<event>
 4    1  0.4991790E-002  0.4188439E+03  0.7818608E-02  0.1037443E+00
         21   -1    0    0  503  502  0.00000000000E+00  0.00000000000E+00  0.13205869839E+03  0.13205869839E+03  0.00000000000E+00 0.  1.
         21   -1    0    0  501  503 -0.00000000000E+00 -0.00000000000E+00 -0.16530576476E+04  0.16530576476E+04  0.00000000000E+00 0.  1.
    9000005    1    1    2  501    0  0.12097145484E+03 -0.28215523340E+02 -0.11560372427E+04  0.12295740381E+04  0.40000000000E+03 0.  1.
   -9000005    1    1    2    0  502 -0.12097145484E+03  0.28215523340E+02 -0.36496170653E+03  0.55554230791E+03  0.40000000000E+03 0.  1.
<mgrwt>
<rscale>  2 0.41884390E+03</rscale>
<asrwt>0</asrwt>
<pdfrwt beam="1">  1       21 0.20316724E-01 0.41884390E+03</pdfrwt>
<pdfrwt beam="2">  1       21 0.25431655E+00 0.41884390E+03</pdfrwt>
<totfact> 0.11748209E+03</totfact>
</mgrwt>
</event>
<event>
 4    1  0.4991790E-002  0.5391419E+03  0.7818608E-02  0.1004039E+00
         21   -1    0    0  503  502  0.00000000000E+00  0.00000000000E+00  0.12637869153E+03  0.12637869153E+03  0.00000000000E+00 0. -1.
         21   -1    0    0  501  503 -0.00000000000E+00 -0.00000000000E+00 -0.23371092667E+04  0.23371092667E+04  0.00000000000E+00 0. -1.
    9000005    1    1    2  501    0 -0.58139940309E+02 -0.35678254544E+03 -0.12605257283E+04  0.13709847370E+04  0.40000000000E+03 0. -1.
   -9000005    1    1    2    0  502  0.58139940309E+02  0.35678254544E+03 -0.95020484689E+03  0.10925032212E+04  0.40000000000E+03 0. -1.
<mgrwt>
<rscale>  2 0.53914195E+03</rscale>
<asrwt>0</asrwt>
<pdfrwt beam="1">  1       21 0.19442875E-01 0.53914195E+03</pdfrwt>
<pdfrwt beam="2">  1       21 0.35955528E+00 0.53914195E+03</pdfrwt>
<totfact> 0.27499716E+02</totfact>
</mgrwt>
</event>
<event>
 4    1  0.4991790E-002  0.4545207E+03  0.7818608E-02  0.1026382E+00
         21   -1    0    0  501  502  0.00000000000E+00  0.00000000000E+00  0.94248600819E+03  0.94248600819E+03  0.00000000000E+00 0. -1.
         21   -1    0    0  502  503 -0.00000000000E+00 -0.00000000000E+00 -0.31506351916E+03  0.31506351916E+03  0.00000000000E+00 0. -1.
    9000005    1    1    2  501    0  0.12260983266E+03 -0.17763973938E+03  0.66055354944E+03  0.80182294788E+03  0.40000000000E+03 0. -1.
   -9000005    1    1    2    0  503 -0.12260983266E+03  0.17763973938E+03 -0.33131060402E+02  0.45572657947E+03  0.40000000000E+03 0. -1.
<mgrwt>
<rscale>  2 0.45452068E+03</rscale>
<asrwt>0</asrwt>
<pdfrwt beam="1">  1       21 0.14499785E+00 0.45452068E+03</pdfrwt>
<pdfrwt beam="2">  1       21 0.48471311E-01 0.45452068E+03</pdfrwt>
<totfact> 0.11231450E+03</totfact>
</mgrwt>
</event>
<event>
 4    1  0.4991790E-002  0.4415998E+03  0.7818608E-02  0.1030257E+00
         21   -1    0    0  503  502  0.00000000000E+00  0.00000000000E+00  0.12632087328E+04  0.12632087328E+04  0.00000000000E+00 0.  1.
         21   -1    0    0  501  503 -0.00000000000E+00 -0.00000000000E+00 -0.50746262586E+03  0.50746262586E+03  0.00000000000E+00 0. -1.
    9000005    1    1    2  501    0  0.18699456714E+03 -0.65882486028E+01 -0.36061921883E+03  0.57013734674E+03  0.40000000000E+03 0. -1.
   -9000005    1    1    2    0  502 -0.18699456714E+03  0.65882486028E+01  0.11163653258E+04  0.12005340119E+04  0.40000000000E+03 0.  1.
<mgrwt>
<rscale>  2 0.44159979E+03</rscale>
<asrwt>0</asrwt>
<pdfrwt beam="1">  1       21 0.19433980E+00 0.44159979E+03</pdfrwt>
<pdfrwt beam="2">  1       21 0.78071173E-01 0.44159979E+03</pdfrwt>
<totfact> 0.17204632E+02</totfact>
</mgrwt>
</event>
<event>
 4    1  0.4991790E-002  0.5176301E+03  0.7818608E-02  0.1009277E+00
         21   -1    0    0  503  502  0.00000000000E+00  0.00000000000E+00  0.27907528383E+03  0.27907528383E+03  0.00000000000E+00 0. -1.
         21   -1    0    0  501  503 -0.00000000000E+00 -0.00000000000E+00 -0.99265907602E+03  0.99265907602E+03  0.00000000000E+00 0.  1.
    9000005    1    1    2  501    0  0.32664834427E+03 -0.35238772833E+02 -0.47194745154E+03  0.70048219745E+03  0.40000000000E+03 0. -1.
   -9000005    1    1    2    0  502 -0.32664834427E+03  0.35238772833E+02 -0.24163634065E+03  0.57125216240E+03  0.40000000000E+03 0. -1.
<mgrwt>
<rscale>  2 0.51763009E+03</rscale>
<asrwt>0</asrwt>
<pdfrwt beam="1">  1       21 0.42934659E-01 0.51763009E+03</pdfrwt>
<pdfrwt beam="2">  1       21 0.15271678E+00 0.51763009E+03</pdfrwt>
<totfact> 0.12284560E+03</totfact>
</mgrwt>
</event>
<event>
 4    1  0.4991790E-002  0.4888587E+03  0.7818608E-02  0.1016729E+00
         21   -1    0    0  503  502  0.00000000000E+00  0.00000000000E+00  0.36984575170E+03  0.36984575170E+03  0.00000000000E+00 0.  1.
         21   -1    0    0  501  503 -0.00000000000E+00 -0.00000000000E+00 -0.86443984290E+03  0.86443984290E+03  0.00000000000E+00 0. -1.
    9000005    1    1    2  501    0 -0.27115034579E+03 -0.73893721744E+02 -0.55740743825E+03  0.74140801476E+03  0.40000000000E+03 0. -1.
   -9000005    1    1    2    0  502  0.27115034579E+03  0.73893721744E+02  0.62813347053E+02  0.49287757984E+03  0.40000000000E+03 0.  1.
<mgrwt>
<rscale>  2 0.48885866E+03</rscale>
<asrwt>0</asrwt>
<pdfrwt beam="1">  1       21 0.56899347E-01 0.48885866E+03</pdfrwt>
<pdfrwt beam="2">  1       21 0.13299074E+00 0.48885866E+03</pdfrwt>
<totfact> 0.98781279E+02</totfact>
</mgrwt>
</event>
<event>
 4    1  0.4991790E-002  0.4124537E+03  0.7818608E-02  0.1039551E+00
         21   -1    0    0  503  502  0.00000000000E+00  0.00000000000E+00  0.11293332178E+04  0.11293332178E+04  0.00000000000E+00 0. -1.
         21   -1    0    0  501  503 -0.00000000000E+00 -0.00000000000E+00 -0.16495836572E+03  0.16495836572E+03  0.00000000000E+00 0.  1.
    9000005    1    1    2  501    0 -0.93653483935E+02 -0.36702529009E+02  0.29149876863E+03  0.50506393932E+03  0.40000000000E+03 0.  1.
   -9000005    1    1    2    0  502  0.93653483935E+02  0.36702529009E+02  0.67287608346E+03  0.78922764421E+03  0.40000000000E+03 0.  1.
<mgrwt>
<rscale>  2 0.41245370E+03</rscale>
<asrwt>0</asrwt>
<pdfrwt beam="1">  1       21 0.17374357E+00 0.41245370E+03</pdfrwt>
<pdfrwt beam="2">  1       21 0.25378211E-01 0.41245370E+03</pdfrwt>
<totfact> 0.25691300E+03</totfact>
</mgrwt>
</event>
<event>
 4    1  0.4991790E-002  0.6540632E+03  0.7818608E-02  0.9799185E-01
         21   -1    0    0  503  502  0.00000000000E+00  0.00000000000E+00  0.84388853920E+03  0.84388853920E+03  0.00000000000E+00 0.  1.
         21   -1    0    0  501  503 -0.00000000000E+00 -0.00000000000E+00 -0.56936574240E+03  0.56936574240E+03  0.00000000000E+00 0. -1.
    9000005    1    1    2  501    0  0.51574760786E+03  0.42463010939E+02 -0.96722182542E+02  0.66117613607E+03  0.40000000000E+03 0. -1.
   -9000005    1    1    2    0  502 -0.51574760786E+03 -0.42463010939E+02  0.37124497934E+03  0.75207814554E+03  0.40000000000E+03 0.  1.
<mgrwt>
<rscale>  2 0.65406323E+03</rscale>
<asrwt>0</asrwt>
<pdfrwt beam="1">  1       21 0.12982901E+00 0.65406323E+03</pdfrwt>
<pdfrwt beam="2">  1       21 0.87594729E-01 0.65406323E+03</pdfrwt>
<totfact> 0.37312526E+02</totfact>
</mgrwt>
</event>
<event>
 4    1  0.4991790E-002  0.4291980E+03  0.7818608E-02  0.1034114E+00
         21   -1    0    0  503  502  0.00000000000E+00  0.00000000000E+00  0.15234430522E+03  0.15234430522E+03  0.00000000000E+00 0.  1.
         21   -1    0    0  501  503 -0.00000000000E+00 -0.00000000000E+00 -0.12353943906E+04  0.12353943906E+04  0.00000000000E+00 0.  1.
    9000005    1    1    2  501    0 -0.10607627233E+03  0.11383654220E+03 -0.64260981046E+03  0.77276018427E+03  0.40000000000E+03 0.  1.
   -9000005    1    1    2    0  502  0.10607627233E+03 -0.11383654220E+03 -0.44044027488E+03  0.61497851152E+03  0.40000000000E+03 0.  1.
<mgrwt>
<rscale>  2 0.42919801E+03</rscale>
<asrwt>0</asrwt>
<pdfrwt beam="1">  1       21 0.23437586E-01 0.42919801E+03</pdfrwt>
<pdfrwt beam="2">  1       21 0.19006067E+00 0.42919801E+03</pdfrwt>
<totfact> 0.22882668E+03</totfact>
</mgrwt>
</event>
<event>
 4    1  0.4991790E-002  0.5538402E+03  0.7818608E-02  0.1000609E+00
         21   -1    0    0  503  502  0.00000000000E+00  0.00000000000E+00  0.12082202159E+04  0.12082202159E+04  0.00000000000E+00 0. -1.
         21   -1    0    0  501  503 -0.00000000000E+00 -0.00000000000E+00 -0.27599706942E+03  0.27599706942E+03  0.00000000000E+00 0. -1.
    9000005    1    1    2  501    0 -0.32394480170E+03  0.20444751832E+03  0.25601888105E+03  0.61015136626E+03  0.40000000000E+03 0. -1.
   -9000005    1    1    2    0  502  0.32394480170E+03 -0.20444751832E+03  0.67620426546E+03  0.87406591909E+03  0.40000000000E+03 0. -1.
<mgrwt>
<rscale>  2 0.55384025E+03</rscale>
<asrwt>0</asrwt>
<pdfrwt beam="1">  1       21 0.18588003E+00 0.55384025E+03</pdfrwt>
<pdfrwt beam="2">  1       21 0.42461088E-01 0.55384025E+03</pdfrwt>
<totfact> 0.70701088E+02</totfact>
</mgrwt>
</event>
<event>
 4    1  0.4991790E-002  0.5495947E+03  0.7818608E-02  0.1001588E+00
         21   -1    0    0  501  502  0.00000000000E+00  0.00000000000E+00  0.50859418508E+03  0.50859418508E+03  0.00000000000E+00 0.  1.
         21   -1    0    0  502  503 -0.00000000000E+00 -0.00000000000E+00 -0.59512444643E+03  0.59512444643E+03  0.00000000000E+00 0. -1.
    9000005    1    1    2  501    0 -0.31262161351E+03 -0.21052807715E+03 -0.68291877509E+02  0.55382138369E+03  0.40000000000E+03 0. -1.
   -9000005    1    1    2    0  503  0.31262161351E+03  0.21052807715E+03 -0.18238383842E+02  0.54989724781E+03  0.40000000000E+03 0.  1.
<mgrwt>
<rscale>  2 0.54959471E+03</rscale>
<asrwt>0</asrwt>
<pdfrwt beam="1">  1       21 0.78245260E-01 0.54959471E+03</pdfrwt>
<pdfrwt beam="2">  1       21 0.91557607E-01 0.54959471E+03</pdfrwt>
<totfact> 0.12035760E+03</totfact>
</mgrwt>
</event>
<event>
 4    1  0.4991790E-002  0.5900002E+03  0.7818608E-02  0.9926372E-01
         21   -1    0    0  503  502  0.00000000000E+00  0.00000000000E+00  0.12491933279E+04  0.12491933279E+04  0.00000000000E+00 0. -1.
         21   -1    0    0  501  503 -0.00000000000E+00 -0.00000000000E+00 -0.50030969449E+03  0.50030969449E+03  0.00000000000E+00 0.  1.
    9000005    1    1    2  501    0  0.43090030630E+03  0.49246143767E+02 -0.20779381028E+03  0.62552260090E+03  0.40000000000E+03 0.  1.
   -9000005    1    1    2    0  502 -0.43090030630E+03 -0.49246143767E+02  0.95667744373E+03  0.11239804215E+04  0.40000000000E+03 0. -1.
<mgrwt>
<rscale>  2 0.59000022E+03</rscale>
<asrwt>0</asrwt>
<pdfrwt beam="1">  1       21 0.19218359E+00 0.59000022E+03</pdfrwt>
<pdfrwt beam="2">  1       21 0.76970722E-01 0.59000022E+03</pdfrwt>
<totfact> 0.17147806E+02</totfact>
</mgrwt>
</event>
<event>
 4    1  0.4991790E-002  0.4618601E+03  0.7818608E-02  0.1024243E+00
         21   -1    0    0  501  502  0.00000000000E+00  0.00000000000E+00  0.12878622127E+04  0.12878622127E+04  0.00000000000E+00 0.  1.
         21   -1    0    0  502  503 -0.00000000000E+00 -0.00000000000E+00 -0.30835439050E+03  0.30835439050E+03  0.00000000000E+00 0.  1.
    9000005    1    1    2  501    0 -0.13770924958E+03  0.18534011443E+03  0.10327273194E+04  0.11313003631E+04  0.40000000000E+03 0.  1.
   -9000005    1    1    2    0  503  0.13770924958E+03 -0.18534011443E+03 -0.53219497137E+02  0.46491624010E+03  0.40000000000E+03 0.  1.
<mgrwt>
<rscale>  2 0.46186015E+03</rscale>
<asrwt>0</asrwt>
<pdfrwt beam="1">  1       21 0.19813265E+00 0.46186015E+03</pdfrwt>
<pdfrwt beam="2">  1       21 0.47439138E-01 0.46186015E+03</pdfrwt>
<totfact> 0.48016673E+02</totfact>
</mgrwt>
</event>
<event>
 4    1  0.4991790E-002  0.4720236E+03  0.7818608E-02  0.1021351E+00
         21   -1    0    0  501  502  0.00000000000E+00  0.00000000000E+00  0.15620008694E+03  0.15620008694E+03  0.00000000000E+00 0.  1.
         21   -1    0    0  502  503 -0.00000000000E+00 -0.00000000000E+00 -0.16525624309E+04  0.16525624309E+04  0.00000000000E+00 0. -1.
    9000005    1    1    2  501    0 -0.44093556275E+02 -0.24670228626E+03 -0.41362599660E+03  0.62760873545E+03  0.40000000000E+03 0.  1.
   -9000005    1    1    2    0  503  0.44093556275E+02  0.24670228626E+03 -0.10827363474E+04  0.11811537824E+04  0.40000000000E+03 0. -1.
<mgrwt>
<rscale>  2 0.47202358E+03</rscale>
<asrwt>0</asrwt>
<pdfrwt beam="1">  1       21 0.24030783E-01 0.47202358E+03</pdfrwt>
<pdfrwt beam="2">  1       21 0.25424037E+00 0.47202358E+03</pdfrwt>
<totfact> 0.82913350E+02</totfact>
</mgrwt>
</event>
<event>
 4    1  0.4991790E-002  0.4907068E+03  0.7818608E-02  0.1016233E+00
         21   -1    0    0  503  502  0.00000000000E+00  0.00000000000E+00  0.88701225014E+03  0.88701225014E+03  0.00000000000E+00 0.  1.
         21   -1    0    0  501  503 -0.00000000000E+00 -0.00000000000E+00 -0.29408028309E+03  0.29408028309E+03  0.00000000000E+00 0. -1.
    9000005    1    1    2  501    0  0.18338558404E+03 -0.21717021233E+03  0.13270224897E+03  0.50833361136E+03  0.40000000000E+03 0.  1.
   -9000005    1    1    2    0  502 -0.18338558404E+03  0.21717021233E+03  0.46022971808E+03  0.67275892187E+03  0.40000000000E+03 0.  1.
<mgrwt>
<rscale>  2 0.49070681E+03</rscale>
<asrwt>0</asrwt>
<pdfrwt beam="1">  1       21 0.13646342E+00 0.49070681E+03</pdfrwt>
<pdfrwt beam="2">  1       21 0.45243121E-01 0.49070681E+03</pdfrwt>
<totfact> 0.15055271E+03</totfact>
</mgrwt>
</event>
<event>
 4    1  0.4991790E-002  0.4114124E+03  0.7818608E-02  0.1039898E+00
         21   -1    0    0  503  502  0.00000000000E+00  0.00000000000E+00  0.65401104112E+03  0.65401104112E+03  0.00000000000E+00 0.  1.
         21   -1    0    0  501  503 -0.00000000000E+00 -0.00000000000E+00 -0.35129076128E+03  0.35129076128E+03  0.00000000000E+00 0.  1.
    9000005    1    1    2  501    0 -0.95541662791E+02 -0.11486092588E+02 -0.10655379272E+03  0.42498688262E+03  0.40000000000E+03 0.  1.
   -9000005    1    1    2    0  502  0.95541662791E+02  0.11486092588E+02  0.40927407256E+03  0.58031491978E+03  0.40000000000E+03 0.  1.
<mgrwt>
<rscale>  2 0.41141237E+03</rscale>
<asrwt>0</asrwt>
<pdfrwt beam="1">  1       21 0.10061708E+00 0.41141237E+03</pdfrwt>
<pdfrwt beam="2">  1       21 0.54044733E-01 0.41141237E+03</pdfrwt>
<totfact> 0.22981894E+03</totfact>
</mgrwt>
</event>
<event>
 4    1  0.4991790E-002  0.5928084E+03  0.7818608E-02  0.9920440E-01
         21   -1    0    0  503  502  0.00000000000E+00  0.00000000000E+00  0.95342424290E+03  0.95342424290E+03  0.00000000000E+00 0. -1.
         21   -1    0    0  501  503 -0.00000000000E+00 -0.00000000000E+00 -0.60015274758E+03  0.60015274758E+03  0.00000000000E+00 0.  1.
    9000005    1    1    2  501    0  0.96927259653E+02 -0.42664608262E+03 -0.30587510540E+03  0.66706922698E+03  0.40000000000E+03 0.  1.
   -9000005    1    1    2    0  502 -0.96927259653E+02  0.42664608262E+03  0.65914660073E+03  0.88650776350E+03  0.40000000000E+03 0. -1.
<mgrwt>
<rscale>  2 0.59280838E+03</rscale>
<asrwt>0</asrwt>
<pdfrwt beam="1">  1       21 0.14668065E+00 0.59280838E+03</pdfrwt>
<pdfrwt beam="2">  1       21 0.92331192E-01 0.59280838E+03</pdfrwt>
<totfact> 0.24245796E+02</totfact>
</mgrwt>
</event>
<event>
 4    1  0.4991790E-002  0.4201863E+03  0.7818608E-02  0.1037006E+00
         21   -1    0    0  501  502  0.00000000000E+00  0.00000000000E+00  0.51786317946E+03  0.51786317946E+03  0.00000000000E+00 0.  1.
         21   -1    0    0  502  503 -0.00000000000E+00 -0.00000000000E+00 -0.41755248020E+03  0.41755248020E+03  0.00000000000E+00 0. -1.
    9000005    1    1    2  501    0 -0.85510842580E+02  0.96148111742E+02  0.25050526611E+03  0.48919265319E+03  0.40000000000E+03 0.  1.
   -9000005    1    1    2    0  503  0.85510842580E+02 -0.96148111742E+02 -0.15019456685E+03  0.44622300647E+03  0.40000000000E+03 0. -1.
<mgrwt>
<rscale>  2 0.42018634E+03</rscale>
<asrwt>0</asrwt>
<pdfrwt beam="1">  1       21 0.79671259E-01 0.42018634E+03</pdfrwt>
<pdfrwt beam="2">  1       21 0.64238843E-01 0.42018634E+03</pdfrwt>
<totfact> 0.27269931E+03</totfact>
</mgrwt>
</event>
<event>
 4    1  0.4991790E-002  0.4442293E+03  0.7818608E-02  0.1029457E+00
         21   -1    0    0  501  502  0.00000000000E+00  0.00000000000E+00  0.13752607448E+04  0.13752607448E+04  0.00000000000E+00 0.  1.
         21   -1    0    0  502  503 -0.00000000000E+00 -0.00000000000E+00 -0.15499770116E+03  0.15499770116E+03  0.00000000000E+00 0.  1.
    9000005    1    1    2  501    0  0.18503057362E+03  0.55707920284E+02  0.40167373233E+03  0.59890021940E+03  0.40000000000E+03 0.  1.
   -9000005    1    1    2    0  503 -0.18503057362E+03 -0.55707920284E+02  0.81858931127E+03  0.93135822651E+03  0.40000000000E+03 0.  1.
<mgrwt>
<rscale>  2 0.44422932E+03</rscale>
<asrwt>0</asrwt>
<pdfrwt beam="1">  1       21 0.21157857E+00 0.44422932E+03</pdfrwt>
<pdfrwt beam="2">  1       21 0.23845801E-01 0.44422932E+03</pdfrwt>
<totfact> 0.15811461E+03</totfact>
</mgrwt>
</event>
<event>
 4    1  0.4991790E-002  0.4432386E+03  0.7818608E-02  0.1029758E+00
         21   -1    0    0  501  502  0.00000000000E+00  0.00000000000E+00  0.42936817212E+03  0.42936817212E+03  0.00000000000E+00 0. -1.
         21   -1    0    0  502  503 -0.00000000000E+00 -0.00000000000E+00 -0.50376910824E+03  0.50376910824E+03  0.00000000000E+00 0. -1.
    9000005    1    1    2  501    0  0.22140663862E+02  0.18965832936E+03  0.10411080672E+03  0.45530160440E+03  0.40000000000E+03 0. -1.
   -9000005    1    1    2    0  503 -0.22140663862E+02 -0.18965832936E+03 -0.17851174283E+03  0.47783567596E+03  0.40000000000E+03 0. -1.
<mgrwt>
<rscale>  2 0.44323864E+03</rscale>
<asrwt>0</asrwt>
<pdfrwt beam="1">  1       21 0.66056642E-01 0.44323864E+03</pdfrwt>
<pdfrwt beam="2">  1       21 0.77502939E-01 0.44323864E+03</pdfrwt>
<totfact> 0.27076187E+03</totfact>
</mgrwt>
</event>
<event>
 4    1  0.4991790E-002  0.4084851E+03  0.7818608E-02  0.1040881E+00
         21   -1    0    0  503  502  0.00000000000E+00  0.00000000000E+00  0.54022392976E+03  0.54022392976E+03  0.00000000000E+00 0. -1.
         21   -1    0    0  501  503 -0.00000000000E+00 -0.00000000000E+00 -0.43485629129E+03  0.43485629129E+03  0.00000000000E+00 0. -1.
    9000005    1    1    2  501    0 -0.80467754116E+02  0.19620960529E+02 -0.20973542737E+03  0.45918296031E+03  0.40000000000E+03 0. -1.
   -9000005    1    1    2    0  502  0.80467754116E+02 -0.19620960529E+02  0.31510306583E+03  0.51589726074E+03  0.40000000000E+03 0. -1.
<mgrwt>
<rscale>  2 0.40848506E+03</rscale>
<asrwt>0</asrwt>
<pdfrwt beam="1">  1       21 0.83111374E-01 0.40848506E+03</pdfrwt>
<pdfrwt beam="2">  1       21 0.66900968E-01 0.40848506E+03</pdfrwt>
<totfact> 0.22700715E+03</totfact>
</mgrwt>
</event>
<event>
 4    1  0.4991790E-002  0.4526299E+03  0.7818608E-02  0.1026941E+00
         21   -1    0    0  501  502  0.00000000000E+00  0.00000000000E+00  0.26489128810E+03  0.26489128810E+03  0.00000000000E+00 0.  1.
         21   -1    0    0  502  503 -0.00000000000E+00 -0.00000000000E+00 -0.85671606267E+03  0.85671606267E+03  0.00000000000E+00 0.  1.
    9000005    1    1    2  501    0 -0.13157768589E+03  0.16601557183E+03 -0.12105317518E+03  0.46853786265E+03  0.40000000000E+03 0.  1.
   -9000005    1    1    2    0  503  0.13157768589E+03 -0.16601557183E+03 -0.47077159939E+03  0.65306948812E+03  0.40000000000E+03 0.  1.
<mgrwt>
<rscale>  2 0.45262993E+03</rscale>
<asrwt>0</asrwt>
<pdfrwt beam="1">  1       21 0.40752504E-01 0.45262993E+03</pdfrwt>
<pdfrwt beam="2">  1       21 0.13180248E+00 0.45262993E+03</pdfrwt>
<totfact> 0.20797947E+03</totfact>
</mgrwt>
</event>
<event>
 4    1  0.4991790E-002  0.5760744E+03  0.7818608E-02  0.9956326E-01
         21   -1    0    0  501  502  0.00000000000E+00  0.00000000000E+00  0.61584901110E+03  0.61584901110E+03  0.00000000000E+00 0.  1.
         21   -1    0    0  502  503 -0.00000000000E+00 -0.00000000000E+00 -0.57310354757E+03  0.57310354757E+03  0.00000000000E+00 0. -1.
    9000005    1    1    2  501    0  0.31362239454E+02 -0.41337402795E+03  0.16666850963E+03  0.59969998261E+03  0.40000000000E+03 0.  1.
   -9000005    1    1    2    0  503 -0.31362239454E+02  0.41337402795E+03 -0.12392304609E+03  0.58925257606E+03  0.40000000000E+03 0. -1.
<mgrwt>
<rscale>  2 0.57607437E+03</rscale>
<asrwt>0</asrwt>
<pdfrwt beam="1">  1       21 0.94746002E-01 0.57607437E+03</pdfrwt>
<pdfrwt beam="2">  1       21 0.88169776E-01 0.57607437E+03</pdfrwt>
<totfact> 0.83107492E+02</totfact>
</mgrwt>
</event>
<event>
 4    1  0.4991790E-002  0.4687089E+03  0.7818608E-02  0.1022285E+00
         21   -1    0    0  501  502  0.00000000000E+00  0.00000000000E+00  0.36746730091E+03  0.36746730091E+03  0.00000000000E+00 0. -1.
         21   -1    0    0  502  503 -0.00000000000E+00 -0.00000000000E+00 -0.73768110818E+03  0.73768110818E+03  0.00000000000E+00 0. -1.
    9000005    1    1    2  501    0  0.61647957797E+02  0.23640551283E+03 -0.42569151666E+03  0.63316767491E+03  0.40000000000E+03 0. -1.
   -9000005    1    1    2    0  503 -0.61647957797E+02 -0.23640551283E+03  0.55477709386E+02  0.47198073418E+03  0.40000000000E+03 0. -1.
<mgrwt>
<rscale>  2 0.46870890E+03</rscale>
<asrwt>0</asrwt>
<pdfrwt beam="1">  1       21 0.56533431E-01 0.46870890E+03</pdfrwt>
<pdfrwt beam="2">  1       21 0.11348940E+00 0.46870890E+03</pdfrwt>
<totfact> 0.15151214E+03</totfact>
</mgrwt>
</event>
<event>
 4    1  0.4991790E-002  0.4389700E+03  0.7818608E-02  0.1031063E+00
         21   -1    0    0  501  502  0.00000000000E+00  0.00000000000E+00  0.68447359677E+03  0.68447359677E+03  0.00000000000E+00 0. -1.
         21   -1    0    0  502  503 -0.00000000000E+00 -0.00000000000E+00 -0.33731150172E+03  0.33731150172E+03  0.00000000000E+00 0. -1.
    9000005    1    1    2  501    0  0.18081652846E+03  0.21404263041E+00  0.38135380519E+03  0.58148550069E+03  0.40000000000E+03 0. -1.
   -9000005    1    1    2    0  503 -0.18081652846E+03 -0.21404263041E+00 -0.34191710137E+02  0.44029959780E+03  0.40000000000E+03 0. -1.
<mgrwt>
<rscale>  2 0.43897000E+03</rscale>
<asrwt>0</asrwt>
<pdfrwt beam="1">  1       21 0.10530363E+00 0.43897000E+03</pdfrwt>
<pdfrwt beam="2">  1       21 0.51894077E-01 0.43897000E+03</pdfrwt>
<totfact> 0.22186261E+03</totfact>
</mgrwt>
</event>
<event>
 4    1  0.4991790E-002  0.5405667E+03  0.7818608E-02  0.1003701E+00
         21   -1    0    0  503  502  0.00000000000E+00  0.00000000000E+00  0.65306240062E+03  0.65306240062E+03  0.00000000000E+00 0. -1.
         21   -1    0    0  501  503 -0.00000000000E+00 -0.00000000000E+00 -0.45501017928E+03  0.45501017928E+03  0.00000000000E+00 0. -1.
    9000005    1    1    2  501    0 -0.87282382789E+02 -0.35297890441E+03  0.27607156320E+02  0.54127116715E+03  0.40000000000E+03 0. -1.
   -9000005    1    1    2    0  502  0.87282382789E+02  0.35297890441E+03  0.17044506502E+03  0.56680141275E+03  0.40000000000E+03 0. -1.
<mgrwt>
<rscale>  2 0.54056667E+03</rscale>
<asrwt>0</asrwt>
<pdfrwt beam="1">  1       21 0.10047114E+00 0.54056667E+03</pdfrwt>
<pdfrwt beam="2">  1       21 0.70001566E-01 0.54056667E+03</pdfrwt>
<totfact> 0.12440680E+03</totfact>
</mgrwt>
</event>
<event>
 4    1  0.4991790E-002  0.4713502E+03  0.7818608E-02  0.1021540E+00
         21   -1    0    0  501  502  0.00000000000E+00  0.00000000000E+00  0.69891928524E+03  0.69891928524E+03  0.00000000000E+00 0. -1.
         21   -1    0    0  502  503 -0.00000000000E+00 -0.00000000000E+00 -0.44122984609E+03  0.44122984609E+03  0.00000000000E+00 0. -1.
    9000005    1    1    2  501    0 -0.23393447216E+03  0.86288528923E+02  0.43026473931E+03  0.63819965009E+03  0.40000000000E+03 0.  1.
   -9000005    1    1    2    0  503  0.23393447216E+03 -0.86288528923E+02 -0.17257530016E+03  0.50194948124E+03  0.40000000000E+03 0.  1.
<mgrwt>
<rscale>  2 0.47135024E+03</rscale>
<asrwt>0</asrwt>
<pdfrwt beam="1">  1       21 0.10752604E+00 0.47135024E+03</pdfrwt>
<pdfrwt beam="2">  1       21 0.67881515E-01 0.47135024E+03</pdfrwt>
<totfact> 0.11561535E+03</totfact>
</mgrwt>
</event>
<event>
 4    1  0.4991790E-002  0.5897397E+03  0.7818608E-02  0.9926925E-01
         21   -1    0    0  503  502  0.00000000000E+00  0.00000000000E+00  0.34922068943E+03  0.34922068943E+03  0.00000000000E+00 0. -1.
         21   -1    0    0  501  503 -0.00000000000E+00 -0.00000000000E+00 -0.10429146275E+04  0.10429146275E+04  0.00000000000E+00 0. -1.
    9000005    1    1    2  501    0  0.24095463315E+03  0.36018576115E+03 -0.49461831452E+03  0.76970136730E+03  0.40000000000E+03 0. -1.
   -9000005    1    1    2    0  502 -0.24095463315E+03 -0.36018576115E+03 -0.19907562357E+03  0.62243394965E+03  0.40000000000E+03 0. -1.
<mgrwt>
<rscale>  2 0.58973970E+03</rscale>
<asrwt>0</asrwt>
<pdfrwt beam="1">  1       21 0.53726260E-01 0.58973970E+03</pdfrwt>
<pdfrwt beam="2">  1       21 0.16044840E+00 0.58973970E+03</pdfrwt>
<totfact> 0.64839177E+02</totfact>
</mgrwt>
</event>
<event>
 4    1  0.4991790E-002  0.5333005E+03  0.7818608E-02  0.1005435E+00
         21   -1    0    0  501  502  0.00000000000E+00  0.00000000000E+00  0.34810340489E+03  0.34810340489E+03  0.00000000000E+00 0.  1.
         21   -1    0    0  502  503 -0.00000000000E+00 -0.00000000000E+00 -0.10251231912E+04  0.10251231912E+04  0.00000000000E+00 0. -1.
    9000005    1    1    2  501    0 -0.33440955294E+03  0.11215900791E+03 -0.29154486283E+02  0.53409678544E+03  0.40000000000E+03 0.  1.
   -9000005    1    1    2    0  503  0.33440955294E+03 -0.11215900791E+03 -0.64786530004E+03  0.83912981066E+03  0.40000000000E+03 0. -1.
<mgrwt>
<rscale>  2 0.53330047E+03</rscale>
<asrwt>0</asrwt>
<pdfrwt beam="1">  1       21 0.53554369E-01 0.53330047E+03</pdfrwt>
<pdfrwt beam="2">  1       21 0.15771126E+00 0.53330047E+03</pdfrwt>
<totfact> 0.69915141E+02</totfact>
</mgrwt>
</event>
<event>
 4    1  0.4991790E-002  0.4309204E+03  0.7818608E-02  0.1033570E+00
         21   -1    0    0  503  502  0.00000000000E+00  0.00000000000E+00  0.67638322393E+03  0.67638322393E+03  0.00000000000E+00 0. -1.
         21   -1    0    0  501  503 -0.00000000000E+00 -0.00000000000E+00 -0.28994685842E+03  0.28994685842E+03  0.00000000000E+00 0. -1.
    9000005    1    1    2  501    0 -0.13798435654E+03  0.81563986644E+02  0.30460469228E+03  0.52770861763E+03  0.40000000000E+03 0.  1.
   -9000005    1    1    2    0  502  0.13798435654E+03 -0.81563986644E+02  0.81831673222E+02  0.43862146471E+03  0.40000000000E+03 0.  1.
<mgrwt>
<rscale>  2 0.43092037E+03</rscale>
<asrwt>0</asrwt>
<pdfrwt beam="1">  1       21 0.10405896E+00 0.43092037E+03</pdfrwt>
<pdfrwt beam="2">  1       21 0.44607209E-01 0.43092037E+03</pdfrwt>
<totfact> 0.31549540E+03</totfact>
</mgrwt>
</event>
<event>
 4    1  0.4991790E-002  0.4670127E+03  0.7818608E-02  0.1022767E+00
         21   -1    0    0  503  502  0.00000000000E+00  0.00000000000E+00  0.62560131479E+03  0.62560131479E+03  0.00000000000E+00 0.  1.
         21   -1    0    0  501  503 -0.00000000000E+00 -0.00000000000E+00 -0.72838250008E+03  0.72838250008E+03  0.00000000000E+00 0.  1.
    9000005    1    1    2  501    0 -0.28959705419E+01  0.24102384044E+03 -0.54021889067E+03  0.71409896243E+03  0.40000000000E+03 0.  1.
   -9000005    1    1    2    0  502  0.28959705419E+01 -0.24102384044E+03  0.43743770538E+03  0.63988485245E+03  0.40000000000E+03 0.  1.
<mgrwt>
<rscale>  2 0.46701272E+03</rscale>
<asrwt>0</asrwt>
<pdfrwt beam="1">  1       21 0.96246356E-01 0.46701272E+03</pdfrwt>
<pdfrwt beam="2">  1       21 0.11205885E+00 0.46701272E+03</pdfrwt>
<totfact> 0.46505415E+02</totfact>
</mgrwt>
</event>
<event>
 4    1  0.4991790E-002  0.4580458E+03  0.7818608E-02  0.1025350E+00
         21   -1    0    0  503  502  0.00000000000E+00  0.00000000000E+00  0.38222660793E+03  0.38222660793E+03  0.00000000000E+00 0.  1.
         21   -1    0    0  501  503 -0.00000000000E+00 -0.00000000000E+00 -0.57486976918E+03  0.57486976918E+03  0.00000000000E+00 0.  1.
    9000005    1    1    2  501    0 -0.16590031420E+03  0.14927503577E+03 -0.19802518896E+03  0.49901896359E+03  0.40000000000E+03 0.  1.
   -9000005    1    1    2    0  502  0.16590031420E+03 -0.14927503577E+03  0.53820277081E+01  0.45807741352E+03  0.40000000000E+03 0.  1.
<mgrwt>
<rscale>  2 0.45804580E+03</rscale>
<asrwt>0</asrwt>
<pdfrwt beam="1">  1       21 0.58804094E-01 0.45804580E+03</pdfrwt>
<pdfrwt beam="2">  1       21 0.88441503E-01 0.45804580E+03</pdfrwt>
<totfact> 0.25601885E+03</totfact>
</mgrwt>
</event>
<event>
 4    1  0.4991790E-002  0.7023630E+03  0.7818608E-02  0.9713200E-01
         21   -1    0    0  501  502  0.00000000000E+00  0.00000000000E+00  0.27411146039E+04  0.27411146039E+04  0.00000000000E+00 0. -1.
         21   -1    0    0  502  503 -0.00000000000E+00 -0.00000000000E+00 -0.30590532774E+03  0.30590532774E+03  0.00000000000E+00 0.  1.
    9000005    1    1    2  501    0  0.35383313906E+03 -0.45619716635E+03  0.21951310323E+04  0.23047589883E+04  0.40000000000E+03 0. -1.
   -9000005    1    1    2    0  503 -0.35383313906E+03  0.45619716635E+03  0.24007824380E+03  0.74226094335E+03  0.40000000000E+03 0.  1.
<mgrwt>
<rscale>  2 0.70236297E+03</rscale>
<asrwt>0</asrwt>
<pdfrwt beam="1">  1       21 0.42170992E+00 0.70236297E+03</pdfrwt>
<pdfrwt beam="2">  1       21 0.47062360E-01 0.70236297E+03</pdfrwt>
<totfact> 0.17154453E+01</totfact>
</mgrwt>
</event>
<event>
 4    1  0.4991790E-002  0.4334614E+03  0.7818608E-02  0.1032772E+00
         21   -1    0    0  501  502  0.00000000000E+00  0.00000000000E+00  0.25009315179E+03  0.25009315179E+03  0.00000000000E+00 0.  1.
         21   -1    0    0  502  503 -0.00000000000E+00 -0.00000000000E+00 -0.79266574051E+03  0.79266574051E+03  0.00000000000E+00 0.  1.
    9000005    1    1    2  501    0 -0.10787186281E+03  0.12748509491E+03 -0.15214582846E+03  0.45938778970E+03  0.40000000000E+03 0.  1.
   -9000005    1    1    2    0  503  0.10787186281E+03 -0.12748509491E+03 -0.39042676026E+03  0.58337110259E+03  0.40000000000E+03 0.  1.
<mgrwt>
<rscale>  2 0.43346140E+03</rscale>
<asrwt>0</asrwt>
<pdfrwt beam="1">  1       21 0.38475870E-01 0.43346140E+03</pdfrwt>
<pdfrwt beam="2">  1       21 0.12194857E+00 0.43346140E+03</pdfrwt>
<totfact> 0.28811522E+03</totfact>
</mgrwt>
</event>
<event>
 4    1  0.4991790E-002  0.4056310E+03  0.7818608E-02  0.1041847E+00
         21   -1    0    0  503  502  0.00000000000E+00  0.00000000000E+00  0.45907357481E+03  0.45907357481E+03  0.00000000000E+00 0. -1.
         21   -1    0    0  501  503 -0.00000000000E+00 -0.00000000000E+00 -0.64628618544E+03  0.64628618544E+03  0.00000000000E+00 0. -1.
    9000005    1    1    2  501    0 -0.67339433468E+02  0.13709094257E+01 -0.46246856417E+03  0.61515335612E+03  0.40000000000E+03 0. -1.
   -9000005    1    1    2    0  502  0.67339433468E+02 -0.13709094257E+01  0.27525595355E+03  0.49020640413E+03  0.40000000000E+03 0. -1.
<mgrwt>
<rscale>  2 0.40563096E+03</rscale>
<asrwt>0</asrwt>
<pdfrwt beam="1">  1       21 0.70626704E-01 0.40563096E+03</pdfrwt>
<pdfrwt beam="2">  1       21 0.99428643E-01 0.40563096E+03</pdfrwt>
<totfact> 0.13167450E+03</totfact>
</mgrwt>
</event>
<event>
 4    1  0.4991790E-002  0.5258987E+03  0.7818608E-02  0.1007232E+00
         21   -1    0    0  503  502  0.00000000000E+00  0.00000000000E+00  0.18693581683E+03  0.18693581683E+03  0.00000000000E+00 0.  1.
         21   -1    0    0  501  503 -0.00000000000E+00 -0.00000000000E+00 -0.14794979092E+04  0.14794979092E+04  0.00000000000E+00 0. -1.
    9000005    1    1    2  501    0 -0.93041637014E+02  0.32850061412E+03 -0.64418485755E+03  0.83159096339E+03  0.40000000000E+03 0.  1.
   -9000005    1    1    2    0  502  0.93041637014E+02 -0.32850061412E+03 -0.64837723482E+03  0.83484276264E+03  0.40000000000E+03 0. -1.
<mgrwt>
<rscale>  2 0.52589866E+03</rscale>
<asrwt>0</asrwt>
<pdfrwt beam="1">  1       21 0.28759357E-01 0.52589866E+03</pdfrwt>
<pdfrwt beam="2">  1       21 0.22761506E+00 0.52589866E+03</pdfrwt>
<totfact> 0.83416995E+02</totfact>
</mgrwt>
</event>
<event>
 4    1  0.4991790E-002  0.6031909E+03  0.7818608E-02  0.9898808E-01
         21   -1    0    0  501  502  0.00000000000E+00  0.00000000000E+00  0.21401983170E+04  0.21401983170E+04  0.00000000000E+00 0.  1.
         21   -1    0    0  502  503 -0.00000000000E+00 -0.00000000000E+00 -0.36309731842E+03  0.36309731842E+03  0.00000000000E+00 0. -1.
    9000005    1    1    2  501    0  0.27577930191E+03 -0.35747028614E+03  0.18013089221E+04  0.18996191886E+04  0.40000000000E+03 0.  1.
   -9000005    1    1    2    0  503 -0.27577930191E+03  0.35747028614E+03 -0.24207923571E+02  0.60367644678E+03  0.40000000000E+03 0. -1.
<mgrwt>
<rscale>  2 0.60319087E+03</rscale>
<asrwt>0</asrwt>
<pdfrwt beam="1">  1       21 0.32926127E+00 0.60319087E+03</pdfrwt>
<pdfrwt beam="2">  1       21 0.55861127E-01 0.60319087E+03</pdfrwt>
<totfact> 0.48212751E+01</totfact>
</mgrwt>
</event>
<event>
 4    1  0.4991790E-002  0.4020711E+03  0.7818608E-02  0.1043065E+00
         21   -1    0    0  501  502  0.00000000000E+00  0.00000000000E+00  0.33391594665E+03  0.33391594665E+03  0.00000000000E+00 0. -1.
         21   -1    0    0  502  503 -0.00000000000E+00 -0.00000000000E+00 -0.49053652772E+03  0.49053652772E+03  0.00000000000E+00 0. -1.
    9000005    1    1    2  501    0  0.92120697076E+01 -0.39702415011E+02 -0.12539347790E+03  0.42117059285E+03  0.40000000000E+03 0. -1.
   -9000005    1    1    2    0  503 -0.92120697076E+01  0.39702415011E+02 -0.31227103169E+02  0.40328188152E+03  0.40000000000E+03 0. -1.
<mgrwt>
<rscale>  2 0.40207107E+03</rscale>
<asrwt>0</asrwt>
<pdfrwt beam="1">  1       21 0.51371684E-01 0.40207107E+03</pdfrwt>
<pdfrwt beam="2">  1       21 0.75467158E-01 0.40207107E+03</pdfrwt>
<totfact> 0.50508952E+03</totfact>
</mgrwt>
</event>
<event>
 4    1  0.4991790E-002  0.9370140E+03  0.7818608E-02  0.9380459E-01
         21   -1    0    0  501  502  0.00000000000E+00  0.00000000000E+00  0.10139404986E+04  0.10139404986E+04  0.00000000000E+00 0. -1.
         21   -1    0    0  502  503 -0.00000000000E+00 -0.00000000000E+00 -0.12132833087E+04  0.12132833087E+04  0.00000000000E+00 0.  1.
    9000005    1    1    2  501    0  0.65235401004E+03  0.54076749513E+03 -0.69552879687E+03  0.11669428201E+04  0.40000000000E+03 0.  1.
   -9000005    1    1    2    0  503 -0.65235401004E+03 -0.54076749513E+03  0.49618598678E+03  0.10602809871E+04  0.40000000000E+03 0. -1.
<mgrwt>
<rscale>  2 0.93701400E+03</rscale>
<asrwt>0</asrwt>
<pdfrwt beam="1">  1       21 0.15599085E+00 0.93701400E+03</pdfrwt>
<pdfrwt beam="2">  1       21 0.18665897E+00 0.93701400E+03</pdfrwt>
<totfact> 0.27929926E+01</totfact>
</mgrwt>
</event>
<event>
 4    1  0.4991790E-002  0.4717193E+03  0.7818608E-02  0.1021436E+00
         21   -1    0    0  503  502  0.00000000000E+00  0.00000000000E+00  0.35436226512E+03  0.35436226512E+03  0.00000000000E+00 0. -1.
         21   -1    0    0  501  503 -0.00000000000E+00 -0.00000000000E+00 -0.81255199873E+03  0.81255199873E+03  0.00000000000E+00 0. -1.
    9000005    1    1    2  501    0  0.21544669045E+03 -0.12689293823E+03  0.49011224132E+02  0.47425857324E+03  0.40000000000E+03 0. -1.
   -9000005    1    1    2    0  502 -0.21544669045E+03  0.12689293823E+03 -0.50720095775E+03  0.69265569061E+03  0.40000000000E+03 0. -1.
<mgrwt>
<rscale>  2 0.47171930E+03</rscale>
<asrwt>0</asrwt>
<pdfrwt beam="1">  1       21 0.54517272E-01 0.47171930E+03</pdfrwt>
<pdfrwt beam="2">  1       21 0.12500800E+00 0.47171930E+03</pdfrwt>
<totfact> 0.12810810E+03</totfact>
</mgrwt>
</event>
<event>
 4    1  0.4991790E-002  0.5090476E+03  0.7818608E-02  0.1011444E+00
         21   -1    0    0  501  502  0.00000000000E+00  0.00000000000E+00  0.19510789411E+03  0.19510789411E+03  0.00000000000E+00 0. -1.
         21   -1    0    0  502  503 -0.00000000000E+00 -0.00000000000E+00 -0.22336135992E+04  0.22336135992E+04  0.00000000000E+00 0. -1.
    9000005    1    1    2  501    0  0.28636089291E+03 -0.13086989256E+03 -0.24606867718E+03  0.56540187801E+03  0.40000000000E+03 0. -1.
   -9000005    1    1    2    0  503 -0.28636089291E+03  0.13086989256E+03 -0.17924370279E+04  0.18633196153E+04  0.40000000000E+03 0. -1.
<mgrwt>
<rscale>  2 0.50904763E+03</rscale>
<asrwt>0</asrwt>
<pdfrwt beam="1">  1       21 0.30016598E-01 0.50904763E+03</pdfrwt>
<pdfrwt beam="2">  1       21 0.34363287E+00 0.50904763E+03</pdfrwt>
<totfact> 0.15055190E+02</totfact>
</mgrwt>
</event>
<event>
 4    1  0.4991790E-002  0.4811352E+03  0.7818608E-02  0.1018824E+00
         21   -1    0    0  501  502  0.00000000000E+00  0.00000000000E+00  0.62627989582E+03  0.62627989582E+03  0.00000000000E+00 0. -1.
         21   -1    0    0  502  503 -0.00000000000E+00 -0.00000000000E+00 -0.37059725584E+03  0.37059725584E+03  0.00000000000E+00 0. -1.
    9000005    1    1    2  501    0 -0.16521501741E+03  0.21022628524E+03  0.15332124153E+03  0.50497375782E+03  0.40000000000E+03 0. -1.
   -9000005    1    1    2    0  503  0.16521501741E+03 -0.21022628524E+03  0.10236139846E+03  0.49190339385E+03  0.40000000000E+03 0. -1.
<mgrwt>
<rscale>  2 0.48113521E+03</rscale>
<asrwt>0</asrwt>
<pdfrwt beam="1">  1       21 0.96350753E-01 0.48113521E+03</pdfrwt>
<pdfrwt beam="2">  1       21 0.57014963E-01 0.48113521E+03</pdfrwt>
<totfact> 0.22145984E+03</totfact>
</mgrwt>
</event>
<event>
 4    1  0.4991790E-002  0.4183200E+03  0.7818608E-02  0.1037614E+00
         21   -1    0    0  503  502  0.00000000000E+00  0.00000000000E+00  0.13394950007E+04  0.13394950007E+04  0.00000000000E+00 0.  1.
         21   -1    0    0  501  503 -0.00000000000E+00 -0.00000000000E+00 -0.13561128082E+03  0.13561128082E+03  0.00000000000E+00 0. -1.
    9000005    1    1    2  501    0 -0.12091010005E+03 -0.19297725023E+02  0.74315615298E+03  0.85280286244E+03  0.40000000000E+03 0.  1.
   -9000005    1    1    2    0  502  0.12091010005E+03  0.19297725023E+02  0.46072756687E+03  0.62230341904E+03  0.40000000000E+03 0. -1.
<mgrwt>
<rscale>  2 0.41832004E+03</rscale>
<asrwt>0</asrwt>
<pdfrwt beam="1">  1       21 0.20607614E+00 0.41832004E+03</pdfrwt>
<pdfrwt beam="2">  1       21 0.20863275E-01 0.41832004E+03</pdfrwt>
<totfact> 0.22464004E+03</totfact>
</mgrwt>
</event>
<event>
 4    1  0.4991790E-002  0.4277437E+03  0.7818608E-02  0.1034575E+00
         21   -1    0    0  503  502  0.00000000000E+00  0.00000000000E+00  0.13802775764E+04  0.13802775764E+04  0.00000000000E+00 0.  1.
         21   -1    0    0  501  503 -0.00000000000E+00 -0.00000000000E+00 -0.13900546484E+03  0.13900546484E+03  0.00000000000E+00 0.  1.
    9000005    1    1    2  501    0 -0.14775764719E+03 -0.33649929620E+02  0.45701439418E+03  0.62596069889E+03  0.40000000000E+03 0.  1.
   -9000005    1    1    2    0  502  0.14775764719E+03  0.33649929620E+02  0.78425771735E+03  0.89332234232E+03  0.40000000000E+03 0.  1.
<mgrwt>
<rscale>  2 0.42774366E+03</rscale>
<asrwt>0</asrwt>
<pdfrwt beam="1">  1       21 0.21235039E+00 0.42774366E+03</pdfrwt>
<pdfrwt beam="2">  1       21 0.21385457E-01 0.42774366E+03</pdfrwt>
<totfact> 0.19419780E+03</totfact>
</mgrwt>
</event>
<event>
 4    1  0.4991790E-002  0.4295191E+03  0.7818608E-02  0.1034012E+00
         21   -1    0    0  503  502  0.00000000000E+00  0.00000000000E+00  0.11699653719E+04  0.11699653719E+04  0.00000000000E+00 0. -1.
         21   -1    0    0  501  503 -0.00000000000E+00 -0.00000000000E+00 -0.16917037218E+03  0.16917037218E+03  0.00000000000E+00 0. -1.
    9000005    1    1    2  501    0  0.26952073905E+02  0.15414360742E+03  0.32593822574E+03  0.53918678859E+03  0.40000000000E+03 0. -1.
   -9000005    1    1    2    0  502 -0.26952073905E+02 -0.15414360742E+03  0.67485677394E+03  0.79994895545E+03  0.40000000000E+03 0. -1.
<mgrwt>
<rscale>  2 0.42951911E+03</rscale>
<asrwt>0</asrwt>
<pdfrwt beam="1">  1       21 0.17999467E+00 0.42951911E+03</pdfrwt>
<pdfrwt beam="2">  1       21 0.26026212E-01 0.42951911E+03</pdfrwt>
<totfact> 0.21919883E+03</totfact>
</mgrwt>
</event>
<event>
 4    1  0.4991790E-002  0.4187805E+03  0.7818608E-02  0.1037464E+00
         21   -1    0    0  503  502  0.00000000000E+00  0.00000000000E+00  0.10541612514E+04  0.10541612514E+04  0.00000000000E+00 0.  1.
         21   -1    0    0  501  503 -0.00000000000E+00 -0.00000000000E+00 -0.19389275136E+03  0.19389275136E+03  0.00000000000E+00 0.  1.
    9000005    1    1    2  501    0  0.72358521568E+02  0.10070421570E+03  0.19501060604E+03  0.46195912283E+03  0.40000000000E+03 0.  1.
   -9000005    1    1    2    0  502 -0.72358521568E+02 -0.10070421570E+03  0.66525789396E+03  0.78609487989E+03  0.40000000000E+03 0.  1.
<mgrwt>
<rscale>  2 0.41878049E+03</rscale>
<asrwt>0</asrwt>
<pdfrwt beam="1">  1       21 0.16217865E+00 0.41878049E+03</pdfrwt>
<pdfrwt beam="2">  1       21 0.29829655E-01 0.41878049E+03</pdfrwt>
<totfact> 0.22663195E+03</totfact>
</mgrwt>
</event>
<event>
 4    1  0.4991790E-002  0.4448924E+03  0.7818608E-02  0.1029256E+00
         21   -1    0    0  503  502  0.00000000000E+00  0.00000000000E+00  0.26212377772E+03  0.26212377772E+03  0.00000000000E+00 0. -1.
         21   -1    0    0  501  503 -0.00000000000E+00 -0.00000000000E+00 -0.75984212276E+03  0.75984212276E+03  0.00000000000E+00 0. -1.
    9000005    1    1    2  501    0  0.12853507870E+03  0.14631463993E+03 -0.28923349269E+03  0.53064607188E+03  0.40000000000E+03 0. -1.
   -9000005    1    1    2    0  502 -0.12853507870E+03 -0.14631463993E+03 -0.20848485236E+03  0.49131982860E+03  0.40000000000E+03 0. -1.
<mgrwt>
<rscale>  2 0.44489239E+03</rscale>
<asrwt>0</asrwt>
<pdfrwt beam="1">  1       21 0.40326736E-01 0.44489239E+03</pdfrwt>
<pdfrwt beam="2">  1       21 0.11689879E+00 0.44489239E+03</pdfrwt>
<totfact> 0.28997482E+03</totfact>
</mgrwt>
</event>
<event>
 4    1  0.4991790E-002  0.8291409E+03  0.7818608E-02  0.9518769E-01
         21   -1    0    0  501  502  0.00000000000E+00  0.00000000000E+00  0.29653665838E+04  0.29653665838E+04  0.00000000000E+00 0. -1.
         21   -1    0    0  502  503 -0.00000000000E+00 -0.00000000000E+00 -0.25170399075E+03  0.25170399075E+03  0.00000000000E+00 0.  1.
    9000005    1    1    2  501    0  0.58363662688E+03  0.43225339443E+03  0.18087677005E+04  0.19897525734E+04  0.40000000000E+03 0. -1.
   -9000005    1    1    2    0  503 -0.58363662688E+03 -0.43225339443E+03  0.90489489262E+03  0.12273180011E+04  0.40000000000E+03 0.  1.
<mgrwt>
<rscale>  2 0.82914095E+03</rscale>
<asrwt>0</asrwt>
<pdfrwt beam="1">  1       21 0.45621022E+00 0.82914095E+03</pdfrwt>
<pdfrwt beam="2">  1       21 0.38723693E-01 0.82914095E+03</pdfrwt>
<totfact> 0.14296532E+01</totfact>
</mgrwt>
</event>
<event>
 4    1  0.4991790E-002  0.5024652E+03  0.7818608E-02  0.1013137E+00
         21   -1    0    0  501  502  0.00000000000E+00  0.00000000000E+00  0.16485073635E+03  0.16485073635E+03  0.00000000000E+00 0.  1.
         21   -1    0    0  502  503 -0.00000000000E+00 -0.00000000000E+00 -0.17271954076E+04  0.17271954076E+04  0.00000000000E+00 0.  1.
    9000005    1    1    2  501    0 -0.25941582762E+03  0.15866554583E+03 -0.46274892548E+03  0.68308703332E+03  0.40000000000E+03 0.  1.
   -9000005    1    1    2    0  503  0.25941582762E+03 -0.15866554583E+03 -0.10995957458E+04  0.12089591106E+04  0.40000000000E+03 0.  1.
<mgrwt>
<rscale>  2 0.50246525E+03</rscale>
<asrwt>0</asrwt>
<pdfrwt beam="1">  1       21 0.25361653E-01 0.50246525E+03</pdfrwt>
<pdfrwt beam="2">  1       21 0.26572236E+00 0.50246525E+03</pdfrwt>
<totfact> 0.62590744E+02</totfact>
</mgrwt>
</event>
<event>
 4    1  0.4991790E-002  0.4435722E+03  0.7818608E-02  0.1029656E+00
         21   -1    0    0  501  502  0.00000000000E+00  0.00000000000E+00  0.16984150692E+04  0.16984150692E+04  0.00000000000E+00 0.  1.
         21   -1    0    0  502  503 -0.00000000000E+00 -0.00000000000E+00 -0.17767746048E+03  0.17767746048E+03  0.00000000000E+00 0.  1.
    9000005    1    1    2  501    0  0.91124003219E+02 -0.16867931554E+03  0.20700682057E+03  0.48949782350E+03  0.40000000000E+03 0.  1.
   -9000005    1    1    2    0  503 -0.91124003219E+02  0.16867931554E+03  0.13137307882E+04  0.13865947062E+04  0.40000000000E+03 0.  1.
<mgrwt>
<rscale>  2 0.44357220E+03</rscale>
<asrwt>0</asrwt>
<pdfrwt beam="1">  1       21 0.26129461E+00 0.44357220E+03</pdfrwt>
<pdfrwt beam="2">  1       21 0.27334995E-01 0.44357220E+03</pdfrwt>
<totfact> 0.59251700E+02</totfact>
</mgrwt>
</event>
<event>
 4    1  0.4991790E-002  0.4662576E+03  0.7818608E-02  0.1022982E+00
         21   -1    0    0  501  502  0.00000000000E+00  0.00000000000E+00  0.51344179976E+03  0.51344179976E+03  0.00000000000E+00 0.  1.
         21   -1    0    0  502  503 -0.00000000000E+00 -0.00000000000E+00 -0.75113749998E+03  0.75113749998E+03  0.00000000000E+00 0.  1.
    9000005    1    1    2  501    0 -0.21679500994E+01  0.23956503195E+03  0.29880280278E+03  0.55378625795E+03  0.40000000000E+03 0.  1.
   -9000005    1    1    2    0  503  0.21679500994E+01 -0.23956503195E+03 -0.53649850300E+03  0.71079304180E+03  0.40000000000E+03 0.  1.
<mgrwt>
<rscale>  2 0.46625755E+03</rscale>
<asrwt>0</asrwt>
<pdfrwt beam="1">  1       21 0.78991046E-01 0.46625755E+03</pdfrwt>
<pdfrwt beam="2">  1       21 0.11555962E+00 0.46625755E+03</pdfrwt>
<totfact> 0.68603531E+02</totfact>
</mgrwt>
</event>
<event>
 4    1  0.4991790E-002  0.4613820E+03  0.7818608E-02  0.1024381E+00
         21   -1    0    0  503  502  0.00000000000E+00  0.00000000000E+00  0.68841674021E+03  0.68841674021E+03  0.00000000000E+00 0. -1.
         21   -1    0    0  501  503 -0.00000000000E+00 -0.00000000000E+00 -0.40091624237E+03  0.40091624237E+03  0.00000000000E+00 0. -1.
    9000005    1    1    2  501    0  0.10812564854E+03  0.20293398154E+03 -0.11673054468E+03  0.47591950664E+03  0.40000000000E+03 0. -1.
   -9000005    1    1    2    0  502 -0.10812564854E+03 -0.20293398154E+03  0.40423104252E+03  0.61341347595E+03  0.40000000000E+03 0. -1.
<mgrwt>
<rscale>  2 0.46138201E+03</rscale>
<asrwt>0</asrwt>
<pdfrwt beam="1">  1       21 0.10591027E+00 0.46138201E+03</pdfrwt>
<pdfrwt beam="2">  1       21 0.61679422E-01 0.46138201E+03</pdfrwt>
<totfact> 0.14907892E+03</totfact>
</mgrwt>
</event>
<event>
 4    1  0.4991790E-002  0.4152481E+03  0.7818608E-02  0.1038624E+00
         21   -1    0    0  501  502  0.00000000000E+00  0.00000000000E+00  0.10532957532E+03  0.10532957532E+03  0.00000000000E+00 0.  1.
         21   -1    0    0  502  503 -0.00000000000E+00 -0.00000000000E+00 -0.17481374361E+04  0.17481374361E+04  0.00000000000E+00 0.  1.
    9000005    1    1    2  501    0  0.64107005864E+01 -0.11130989749E+03 -0.58780163259E+03  0.71968170023E+03  0.40000000000E+03 0. -1.
   -9000005    1    1    2    0  503 -0.64107005864E+01  0.11130989749E+03 -0.10550062282E+04  0.11337853112E+04  0.40000000000E+03 0. -1.
<mgrwt>
<rscale>  2 0.41524811E+03</rscale>
<asrwt>0</asrwt>
<pdfrwt beam="1">  1       21 0.16204549E-01 0.41524811E+03</pdfrwt>
<pdfrwt beam="2">  1       21 0.26894424E+00 0.41524811E+03</pdfrwt>
<totfact> 0.14691138E+03</totfact>
</mgrwt>
</event>
<event>
 4    1  0.4991790E-002  0.7365059E+03  0.7818608E-02  0.9656761E-01
         21   -1    0    0  503  502  0.00000000000E+00  0.00000000000E+00  0.11292241341E+04  0.11292241341E+04  0.00000000000E+00 0.  1.
         21   -1    0    0  501  503 -0.00000000000E+00 -0.00000000000E+00 -0.48091731722E+03  0.48091731722E+03  0.00000000000E+00 0.  1.
    9000005    1    1    2  501    0 -0.59885417901E+03  0.15432006343E+03  0.29689788676E+03  0.79409657149E+03  0.40000000000E+03 0.  1.
   -9000005    1    1    2    0  502  0.59885417901E+03 -0.15432006343E+03  0.35140893008E+03  0.81604487979E+03  0.40000000000E+03 0.  1.
<mgrwt>
<rscale>  2 0.73650595E+03</rscale>
<asrwt>0</asrwt>
<pdfrwt beam="1">  1       21 0.17372679E+00 0.73650595E+03</pdfrwt>
<pdfrwt beam="2">  1       21 0.73987280E-01 0.73650595E+03</pdfrwt>
<totfact> 0.24137554E+02</totfact>
</mgrwt>
</event>
<event>
 4    1  0.4991790E-002  0.4965155E+03  0.7818608E-02  0.1014692E+00
         21   -1    0    0  503  502  0.00000000000E+00  0.00000000000E+00  0.37218151886E+03  0.37218151886E+03  0.00000000000E+00 0.  1.
         21   -1    0    0  501  503 -0.00000000000E+00 -0.00000000000E+00 -0.66398126957E+03  0.66398126957E+03  0.00000000000E+00 0. -1.
    9000005    1    1    2  501    0  0.19361857796E+03 -0.22144857192E+03 -0.12050116572E+03  0.51092871780E+03  0.40000000000E+03 0.  1.
   -9000005    1    1    2    0  502 -0.19361857796E+03  0.22144857192E+03 -0.17129858499E+03  0.52523407063E+03  0.40000000000E+03 0. -1.
<mgrwt>
<rscale>  2 0.49651548E+03</rscale>
<asrwt>0</asrwt>
<pdfrwt beam="1">  1       21 0.57258696E-01 0.49651548E+03</pdfrwt>
<pdfrwt beam="2">  1       21 0.10215096E+00 0.49651548E+03</pdfrwt>
<totfact> 0.18934283E+03</totfact>
</mgrwt>
</event>
<event>
 4    1  0.4991790E-002  0.6349060E+03  0.7818608E-02  0.9835522E-01
         21   -1    0    0  501  502  0.00000000000E+00  0.00000000000E+00  0.30944988958E+04  0.30944988958E+04  0.00000000000E+00 0. -1.
         21   -1    0    0  502  503 -0.00000000000E+00 -0.00000000000E+00 -0.17079763591E+03  0.17079763591E+03  0.00000000000E+00 0. -1.
    9000005    1    1    2  501    0 -0.48363669522E+03 -0.95922833497E+02  0.22571906558E+04  0.23447847022E+04  0.40000000000E+03 0. -1.
   -9000005    1    1    2    0  503  0.48363669522E+03  0.95922833497E+02  0.66651060411E+03  0.92051182955E+03  0.40000000000E+03 0. -1.
<mgrwt>
<rscale>  2 0.63490601E+03</rscale>
<asrwt>0</asrwt>
<pdfrwt beam="1">  1       21 0.47607671E+00 0.63490601E+03</pdfrwt>
<pdfrwt beam="2">  1       21 0.26276562E-01 0.63490601E+03</pdfrwt>
<totfact> 0.24886980E+01</totfact>
</mgrwt>
</event>
<event>
 4    1  0.4991790E-002  0.4230573E+03  0.7818608E-02  0.1036076E+00
         21   -1    0    0  501  502  0.00000000000E+00  0.00000000000E+00  0.89495814460E+03  0.89495814460E+03  0.00000000000E+00 0.  1.
         21   -1    0    0  502  503 -0.00000000000E+00 -0.00000000000E+00 -0.22221676472E+03  0.22221676472E+03  0.00000000000E+00 0. -1.
    9000005    1    1    2  501    0  0.11525091871E+02  0.13727589980E+03  0.51305477057E+03  0.66498323138E+03  0.40000000000E+03 0.  1.
   -9000005    1    1    2    0  503 -0.11525091871E+02 -0.13727589980E+03  0.15968660930E+03  0.45219167794E+03  0.40000000000E+03 0. -1.
<mgrwt>
<rscale>  2 0.42305733E+03</rscale>
<asrwt>0</asrwt>
<pdfrwt beam="1">  1       21 0.13768587E+00 0.42305733E+03</pdfrwt>
<pdfrwt beam="2">  1       21 0.34187195E-01 0.42305733E+03</pdfrwt>
<totfact> 0.26854338E+03</totfact>
</mgrwt>
</event>
<event>
 4    1  0.4991790E-002  0.4842819E+03  0.7818608E-02  0.1017965E+00
         21   -1    0    0  501  502  0.00000000000E+00  0.00000000000E+00  0.16650933475E+04  0.16650933475E+04  0.00000000000E+00 0. -1.
         21   -1    0    0  502  503 -0.00000000000E+00 -0.00000000000E+00 -0.20606853289E+03  0.20606853289E+03  0.00000000000E+00 0. -1.
    9000005    1    1    2  501    0 -0.36615250825E+02  0.27053340659E+03  0.12558444781E+04  0.13459845296E+04  0.40000000000E+03 0. -1.
   -9000005    1    1    2    0  503  0.36615250825E+02 -0.27053340659E+03  0.20318033653E+03  0.52517735083E+03  0.40000000000E+03 0. -1.
<mgrwt>
<rscale>  2 0.48428194E+03</rscale>
<asrwt>0</asrwt>
<pdfrwt beam="1">  1       21 0.25616820E+00 0.48428194E+03</pdfrwt>
<pdfrwt beam="2">  1       21 0.31702852E-01 0.48428194E+03</pdfrwt>
<totfact> 0.46455637E+02</totfact>
</mgrwt>
</event>
<event>
 4    1  0.4991790E-002  0.4362723E+03  0.7818608E-02  0.1031897E+00
         21   -1    0    0  501  502  0.00000000000E+00  0.00000000000E+00  0.15975484757E+03  0.15975484757E+03  0.00000000000E+00 0. -1.
         21   -1    0    0  502  503 -0.00000000000E+00 -0.00000000000E+00 -0.12819101363E+04  0.12819101363E+04  0.00000000000E+00 0. -1.
    9000005    1    1    2  501    0  0.16913736823E+03  0.41545984653E+02 -0.75260475281E+03  0.86991231290E+03  0.40000000000E+03 0. -1.
   -9000005    1    1    2    0  503 -0.16913736823E+03 -0.41545984653E+02 -0.36955053590E+03  0.57175267097E+03  0.40000000000E+03 0. -1.
<mgrwt>
<rscale>  2 0.43627230E+03</rscale>
<asrwt>0</asrwt>
<pdfrwt beam="1">  1       21 0.24577668E-01 0.43627230E+03</pdfrwt>
<pdfrwt beam="2">  1       21 0.19721695E+00 0.43627230E+03</pdfrwt>
<totfact> 0.18611602E+03</totfact>
</mgrwt>
</event>
<event>
 4    1  0.4991790E-002  0.6685409E+03  0.7818608E-02  0.9772597E-01
         21   -1    0    0  503  502  0.00000000000E+00  0.00000000000E+00  0.98682855214E+03  0.98682855214E+03  0.00000000000E+00 0.  1.
         21   -1    0    0  501  503 -0.00000000000E+00 -0.00000000000E+00 -0.68015291118E+03  0.68015291118E+03  0.00000000000E+00 0. -1.
    9000005    1    1    2  501    0  0.40909373347E+03 -0.34581672978E+03 -0.32843286170E+03  0.74485907258E+03  0.40000000000E+03 0. -1.
   -9000005    1    1    2    0  502 -0.40909373347E+03  0.34581672978E+03  0.63510850265E+03  0.92212239074E+03  0.40000000000E+03 0.  1.
<mgrwt>
<rscale>  2 0.66854087E+03</rscale>
<asrwt>0</asrwt>
<pdfrwt beam="1">  1       21 0.15181978E+00 0.66854087E+03</pdfrwt>
<pdfrwt beam="2">  1       21 0.10463891E+00 0.66854087E+03</pdfrwt>
<totfact> 0.15826914E+02</totfact>
</mgrwt>
</event>
<event>
 4    1  0.4991790E-002  0.4728162E+03  0.7818608E-02  0.1021128E+00
         21   -1    0    0  503  502  0.00000000000E+00  0.00000000000E+00  0.13066575252E+04  0.13066575252E+04  0.00000000000E+00 0.  1.
         21   -1    0    0  501  503 -0.00000000000E+00 -0.00000000000E+00 -0.20325922701E+03  0.20325922701E+03  0.00000000000E+00 0.  1.
    9000005    1    1    2  501    0 -0.21100903105E+03  0.13795066286E+03  0.25135268590E+03  0.53547490070E+03  0.40000000000E+03 0.  1.
   -9000005    1    1    2    0  502  0.21100903105E+03 -0.13795066286E+03  0.85204561228E+03  0.97444185151E+03  0.40000000000E+03 0.  1.
<mgrwt>
<rscale>  2 0.47281624E+03</rscale>
<asrwt>0</asrwt>
<pdfrwt beam="1">  1       21 0.20102423E+00 0.47281624E+03</pdfrwt>
<pdfrwt beam="2">  1       21 0.31270651E-01 0.47281624E+03</pdfrwt>
<totfact> 0.10748943E+03</totfact>
</mgrwt>
</event>
<event>
 4    1  0.4991790E-002  0.4956269E+03  0.7818608E-02  0.1014927E+00
         21   -1    0    0  501  502  0.00000000000E+00  0.00000000000E+00  0.68219943341E+03  0.68219943341E+03  0.00000000000E+00 0.  1.
         21   -1    0    0  502  503 -0.00000000000E+00 -0.00000000000E+00 -0.36130252132E+03  0.36130252132E+03  0.00000000000E+00 0. -1.
    9000005    1    1    2  501    0 -0.18602666773E+03 -0.22592058904E+03  0.13009248948E+03  0.51241593406E+03  0.40000000000E+03 0.  1.
   -9000005    1    1    2    0  503  0.18602666773E+03  0.22592058904E+03  0.19080442261E+03  0.53108602067E+03  0.40000000000E+03 0. -1.
<mgrwt>
<rscale>  2 0.49562691E+03</rscale>
<asrwt>0</asrwt>
<pdfrwt beam="1">  1       21 0.10495376E+00 0.49562691E+03</pdfrwt>
<pdfrwt beam="2">  1       21 0.55585003E-01 0.49562691E+03</pdfrwt>
<totfact> 0.18898863E+03</totfact>
</mgrwt>
</event>
<event>
 4    1  0.4991790E-002  0.5543167E+03  0.7818608E-02  0.1000500E+00
         21   -1    0    0  501  502  0.00000000000E+00  0.00000000000E+00  0.62179617985E+03  0.62179617985E+03  0.00000000000E+00 0. -1.
         21   -1    0    0  502  503 -0.00000000000E+00 -0.00000000000E+00 -0.49768668223E+03  0.49768668223E+03  0.00000000000E+00 0. -1.
    9000005    1    1    2  501    0  0.34102949339E+03  0.17597140623E+03  0.10917067779E+03  0.56496485560E+03  0.40000000000E+03 0. -1.
   -9000005    1    1    2    0  503 -0.34102949339E+03 -0.17597140623E+03  0.14938819834E+02  0.55451800648E+03  0.40000000000E+03 0. -1.
<mgrwt>
<rscale>  2 0.55431674E+03</rscale>
<asrwt>0</asrwt>
<pdfrwt beam="1">  1       21 0.95660951E-01 0.55431674E+03</pdfrwt>
<pdfrwt beam="2">  1       21 0.76567182E-01 0.55431674E+03</pdfrwt>
<totfact> 0.11371028E+03</totfact>
</mgrwt>
</event>
<event>
 4    1  0.4991790E-002  0.4711061E+03  0.7818608E-02  0.1021608E+00
         21   -1    0    0  501  502  0.00000000000E+00  0.00000000000E+00  0.42645213754E+03  0.42645213754E+03  0.00000000000E+00 0. -1.
         21   -1    0    0  502  503 -0.00000000000E+00 -0.00000000000E+00 -0.89828964615E+03  0.89828964615E+03  0.00000000000E+00 0. -1.
    9000005    1    1    2  501    0  0.85198190955E+02 -0.23384240243E+03  0.19367198391E+03  0.50936218771E+03  0.40000000000E+03 0. -1.
   -9000005    1    1    2    0  503 -0.85198190955E+02  0.23384240243E+03 -0.66550949252E+03  0.81537959598E+03  0.40000000000E+03 0. -1.
<mgrwt>
<rscale>  2 0.47110615E+03</rscale>
<asrwt>0</asrwt>
<pdfrwt beam="1">  1       21 0.65608023E-01 0.47110615E+03</pdfrwt>
<pdfrwt beam="2">  1       21 0.13819840E+00 0.47110615E+03</pdfrwt>
<totfact> 0.65727945E+02</totfact>
</mgrwt>
</event>
<event>
 4    1  0.4991790E-002  0.4426699E+03  0.7818608E-02  0.1029931E+00
         21   -1    0    0  503  502  0.00000000000E+00  0.00000000000E+00  0.29790119072E+03  0.29790119072E+03  0.00000000000E+00 0. -1.
         21   -1    0    0  501  503 -0.00000000000E+00 -0.00000000000E+00 -0.65835354074E+03  0.65835354074E+03  0.00000000000E+00 0.  1.
    9000005    1    1    2  501    0 -0.13635154597E+03 -0.13177598907E+03 -0.16624713030E+03  0.47285807989E+03  0.40000000000E+03 0.  1.
   -9000005    1    1    2    0  502  0.13635154597E+03  0.13177598907E+03 -0.19420521972E+03  0.48339665157E+03  0.40000000000E+03 0. -1.
<mgrwt>
<rscale>  2 0.44266992E+03</rscale>
<asrwt>0</asrwt>
<pdfrwt beam="1">  1       21 0.45830953E-01 0.44266992E+03</pdfrwt>
<pdfrwt beam="2">  1       21 0.10128516E+00 0.44266992E+03</pdfrwt>
<totfact> 0.31712393E+03</totfact>
</mgrwt>
</event>
<event>
 4    1  0.4991790E-002  0.4378158E+03  0.7818608E-02  0.1031419E+00
         21   -1    0    0  503  502  0.00000000000E+00  0.00000000000E+00  0.58391815567E+03  0.58391815567E+03  0.00000000000E+00 0.  1.
         21   -1    0    0  501  503 -0.00000000000E+00 -0.00000000000E+00 -0.62987894254E+03  0.62987894254E+03  0.00000000000E+00 0.  1.
    9000005    1    1    2  501    0 -0.17187889269E+03  0.46263247399E+02 -0.44294227458E+03  0.62280053020E+03  0.40000000000E+03 0.  1.
   -9000005    1    1    2    0  502  0.17187889269E+03 -0.46263247399E+02  0.39698148771E+03  0.59099656801E+03  0.40000000000E+03 0.  1.
<mgrwt>
<rscale>  2 0.43781576E+03</rscale>
<asrwt>0</asrwt>
<pdfrwt beam="1">  1       21 0.89833563E-01 0.43781576E+03</pdfrwt>
<pdfrwt beam="2">  1       21 0.96904452E-01 0.43781576E+03</pdfrwt>
<totfact> 0.79320818E+02</totfact>
</mgrwt>
</event>
<event>
 4    1  0.4991790E-002  0.4222284E+03  0.7818608E-02  0.1036343E+00
         21   -1    0    0  503  502  0.00000000000E+00  0.00000000000E+00  0.16788895193E+04  0.16788895193E+04  0.00000000000E+00 0. -1.
         21   -1    0    0  501  503 -0.00000000000E+00 -0.00000000000E+00 -0.10791619999E+03  0.10791619999E+03  0.00000000000E+00 0.  1.
    9000005    1    1    2  501    0  0.11963019645E+03 -0.62971817518E+02  0.67240756584E+03  0.79398285139E+03  0.40000000000E+03 0.  1.
   -9000005    1    1    2    0  502 -0.11963019645E+03  0.62971817518E+02  0.89856575343E+03  0.99282286786E+03  0.40000000000E+03 0. -1.
<mgrwt>
<rscale>  2 0.42222841E+03</rscale>
<asrwt>0</asrwt>
<pdfrwt beam="1">  1       21 0.25829068E+00 0.42222841E+03</pdfrwt>
<pdfrwt beam="2">  1       21 0.16602493E-01 0.42222841E+03</pdfrwt>
<totfact> 0.16230259E+03</totfact>
</mgrwt>
</event>
<event>
 4    1  0.4991790E-002  0.4012510E+03  0.7818608E-02  0.1043347E+00
         21   -1    0    0  503  502  0.00000000000E+00  0.00000000000E+00  0.18438375533E+04  0.18438375533E+04  0.00000000000E+00 0.  1.
         21   -1    0    0  501  503 -0.00000000000E+00 -0.00000000000E+00 -0.11573041684E+03  0.11573041684E+03  0.00000000000E+00 0.  1.
    9000005    1    1    2  501    0 -0.10544003291E+02 -0.29853304887E+02  0.37859564268E+03  0.55166752349E+03  0.40000000000E+03 0.  1.
   -9000005    1    1    2    0  502  0.10544003291E+02  0.29853304887E+02  0.13495114937E+04  0.14079004466E+04  0.40000000000E+03 0.  1.
<mgrwt>
<rscale>  2 0.40125104E+03</rscale>
<asrwt>0</asrwt>
<pdfrwt beam="1">  1       21 0.28366730E+00 0.40125104E+03</pdfrwt>
<pdfrwt beam="2">  1       21 0.17804681E-01 0.40125104E+03</pdfrwt>
<totfact> 0.10128733E+03</totfact>
</mgrwt>
</event>
<event>
 4    1  0.4991790E-002  0.4104693E+03  0.7818608E-02  0.1040214E+00
         21   -1    0    0  501  502  0.00000000000E+00  0.00000000000E+00  0.14699437564E+03  0.14699437564E+03  0.00000000000E+00 0.  1.
         21   -1    0    0  502  503 -0.00000000000E+00 -0.00000000000E+00 -0.11462496563E+04  0.11462496563E+04  0.00000000000E+00 0.  1.
    9000005    1    1    2  501    0 -0.91578802051E+02  0.99199066973E+01 -0.49540921023E+03  0.64336254718E+03  0.40000000000E+03 0.  1.
   -9000005    1    1    2    0  503  0.91578802051E+02 -0.99199066973E+01 -0.50384607038E+03  0.64988148471E+03  0.40000000000E+03 0.  1.
<mgrwt>
<rscale>  2 0.41046934E+03</rscale>
<asrwt>0</asrwt>
<pdfrwt beam="1">  1       21 0.22614520E-01 0.41046934E+03</pdfrwt>
<pdfrwt beam="2">  1       21 0.17634610E+00 0.41046934E+03</pdfrwt>
<totfact> 0.30788758E+03</totfact>
</mgrwt>
</event>
<event>
 4    1  0.4991790E-002  0.4968117E+03  0.7818608E-02  0.1014614E+00
         21   -1    0    0  501  502  0.00000000000E+00  0.00000000000E+00  0.80688633476E+03  0.80688633476E+03  0.00000000000E+00 0.  1.
         21   -1    0    0  502  503 -0.00000000000E+00 -0.00000000000E+00 -0.31209353738E+03  0.31209353738E+03  0.00000000000E+00 0. -1.
    9000005    1    1    2  501    0 -0.24128775908E+03 -0.16912154850E+03  0.16854286101E+03  0.52462231829E+03  0.40000000000E+03 0. -1.
   -9000005    1    1    2    0  503  0.24128775908E+03  0.16912154850E+03  0.32624993637E+03  0.59435755386E+03  0.40000000000E+03 0. -1.
<mgrwt>
<rscale>  2 0.49681172E+03</rscale>
<asrwt>0</asrwt>
<pdfrwt beam="1">  1       21 0.12413636E+00 0.49681172E+03</pdfrwt>
<pdfrwt beam="2">  1       21 0.48014391E-01 0.49681172E+03</pdfrwt>
<totfact> 0.16954700E+03</totfact>
</mgrwt>
</event>
<event>
 4    1  0.4991790E-002  0.4411259E+03  0.7818608E-02  0.1030402E+00
         21   -1    0    0  503  502  0.00000000000E+00  0.00000000000E+00  0.18703176059E+03  0.18703176059E+03  0.00000000000E+00 0. -1.
         21   -1    0    0  501  503 -0.00000000000E+00 -0.00000000000E+00 -0.10886382432E+04  0.10886382432E+04  0.00000000000E+00 0. -1.
    9000005    1    1    2  501    0 -0.81069240769E+01 -0.18581264057E+03 -0.31656977587E+03  0.54296268989E+03  0.40000000000E+03 0. -1.
   -9000005    1    1    2    0  502  0.81069240769E+01  0.18581264057E+03 -0.58503670672E+03  0.73270731389E+03  0.40000000000E+03 0. -1.
<mgrwt>
<rscale>  2 0.44112590E+03</rscale>
<asrwt>0</asrwt>
<pdfrwt beam="1">  1       21 0.28774118E-01 0.44112590E+03</pdfrwt>
<pdfrwt beam="2">  1       21 0.16748280E+00 0.44112590E+03</pdfrwt>
<totfact> 0.22027724E+03</totfact>
</mgrwt>
</event>
<event>
 4    1  0.4991790E-002  0.5133215E+03  0.7818608E-02  0.1010359E+00
         21   -1    0    0  501  502  0.00000000000E+00  0.00000000000E+00  0.47695824176E+03  0.47695824176E+03  0.00000000000E+00 0. -1.
         21   -1    0    0  502  503 -0.00000000000E+00 -0.00000000000E+00 -0.12026632664E+04  0.12026632664E+04  0.00000000000E+00 0.  1.
    9000005    1    1    2  501    0 -0.16908711834E+03  0.27369414009E+03  0.25464465870E+03  0.57301207502E+03  0.40000000000E+03 0. -1.
   -9000005    1    1    2    0  503  0.16908711834E+03 -0.27369414009E+03 -0.98034968336E+03  0.11066094332E+04  0.40000000000E+03 0.  1.
<mgrwt>
<rscale>  2 0.51332147E+03</rscale>
<asrwt>0</asrwt>
<pdfrwt beam="1">  1       21 0.73378192E-01 0.51332147E+03</pdfrwt>
<pdfrwt beam="2">  1       21 0.18502512E+00 0.51332147E+03</pdfrwt>
<totfact> 0.22159396E+02</totfact>
</mgrwt>
</event>
<event>
 4    1  0.4991790E-002  0.4662175E+03  0.7818608E-02  0.1022993E+00
         21   -1    0    0  501  502  0.00000000000E+00  0.00000000000E+00  0.23482487876E+03  0.23482487876E+03  0.00000000000E+00 0.  1.
         21   -1    0    0  502  503 -0.00000000000E+00 -0.00000000000E+00 -0.11655533013E+04  0.11655533013E+04  0.00000000000E+00 0.  1.
    9000005    1    1    2  501    0 -0.73002852971E+02  0.22809940165E+03 -0.14768122279E+03  0.48904856317E+03  0.40000000000E+03 0.  1.
   -9000005    1    1    2    0  503  0.73002852971E+02 -0.22809940165E+03 -0.78304719978E+03  0.91132961691E+03  0.40000000000E+03 0.  1.
<mgrwt>
<rscale>  2 0.46621750E+03</rscale>
<asrwt>0</asrwt>
<pdfrwt beam="1">  1       21 0.36126904E-01 0.46621750E+03</pdfrwt>
<pdfrwt beam="2">  1       21 0.17931590E+00 0.46621750E+03</pdfrwt>
<totfact> 0.11353037E+03</totfact>
</mgrwt>
</event>
<event>
 4    1  0.4991790E-002  0.4787560E+03  0.7818608E-02  0.1019478E+00
         21   -1    0    0  501  502  0.00000000000E+00  0.00000000000E+00  0.64726856464E+03  0.64726856464E+03  0.00000000000E+00 0.  1.
         21   -1    0    0  502  503 -0.00000000000E+00 -0.00000000000E+00 -0.35446956738E+03  0.35446956738E+03  0.00000000000E+00 0. -1.
    9000005    1    1    2  501    0  0.25146903679E+03 -0.77270131885E+02  0.13055299028E+03  0.49623727492E+03  0.40000000000E+03 0.  1.
   -9000005    1    1    2    0  503 -0.25146903679E+03  0.77270131885E+02  0.16224600698E+03  0.50550085710E+03  0.40000000000E+03 0.  1.
<mgrwt>
<rscale>  2 0.47875604E+03</rscale>
<asrwt>0</asrwt>
<pdfrwt beam="1">  1       21 0.99579779E-01 0.47875604E+03</pdfrwt>
<pdfrwt beam="2">  1       21 0.54533780E-01 0.47875604E+03</pdfrwt>
<totfact> 0.22537632E+03</totfact>
</mgrwt>
</event>
<event>
 4    1  0.4991790E-002  0.4337970E+03  0.7818608E-02  0.1032667E+00
         21   -1    0    0  503  502  0.00000000000E+00  0.00000000000E+00  0.14907315245E+04  0.14907315245E+04  0.00000000000E+00 0. -1.
         21   -1    0    0  501  503 -0.00000000000E+00 -0.00000000000E+00 -0.48534341930E+03  0.48534341930E+03  0.00000000000E+00 0. -1.
    9000005    1    1    2  501    0 -0.11505595415E+03 -0.12223726294E+03 -0.34719595063E+03  0.55563013702E+03  0.40000000000E+03 0. -1.
   -9000005    1    1    2    0  502  0.11505595415E+03  0.12223726294E+03  0.13525840558E+04  0.14204448067E+04  0.40000000000E+03 0. -1.
<mgrwt>
<rscale>  2 0.43379698E+03</rscale>
<asrwt>0</asrwt>
<pdfrwt beam="1">  1       21 0.22934331E+00 0.43379698E+03</pdfrwt>
<pdfrwt beam="2">  1       21 0.74668219E-01 0.43379698E+03</pdfrwt>
<totfact> 0.11333726E+02</totfact>
</mgrwt>
</event>
<event>
 4    1  0.4991790E-002  0.5191374E+03  0.7818608E-02  0.1008901E+00
         21   -1    0    0  501  502  0.00000000000E+00  0.00000000000E+00  0.51126231009E+03  0.51126231009E+03  0.00000000000E+00 0.  1.
         21   -1    0    0  502  503 -0.00000000000E+00 -0.00000000000E+00 -0.53721210955E+03  0.53721210955E+03  0.00000000000E+00 0.  1.
    9000005    1    1    2  501    0 -0.11369280065E+03 -0.31076941122E+03 -0.84778677632E+02  0.52601435727E+03  0.40000000000E+03 0.  1.
   -9000005    1    1    2    0  503  0.11369280065E+03  0.31076941122E+03  0.58828878166E+02  0.52246006237E+03  0.40000000000E+03 0.  1.
<mgrwt>
<rscale>  2 0.51913744E+03</rscale>
<asrwt>0</asrwt>
<pdfrwt beam="1">  1       21 0.78655740E-01 0.51913744E+03</pdfrwt>
<pdfrwt beam="2">  1       21 0.82648017E-01 0.51913744E+03</pdfrwt>
<totfact> 0.15295051E+03</totfact>
</mgrwt>
</event>
<event>
 4    1  0.4991790E-002  0.4320823E+03  0.7818608E-02  0.1033204E+00
         21   -1    0    0  501  502  0.00000000000E+00  0.00000000000E+00  0.25435828498E+03  0.25435828498E+03  0.00000000000E+00 0.  1.
         21   -1    0    0  502  503 -0.00000000000E+00 -0.00000000000E+00 -0.10072495694E+04  0.10072495694E+04  0.00000000000E+00 0.  1.
    9000005    1    1    2  501    0 -0.74830907572E+01 -0.16321483808E+03 -0.47883308681E+02  0.43472737580E+03  0.40000000000E+03 0.  1.
   -9000005    1    1    2    0  503  0.74830907572E+01  0.16321483808E+03 -0.70500797579E+03  0.82688047863E+03  0.40000000000E+03 0.  1.
<mgrwt>
<rscale>  2 0.43208226E+03</rscale>
<asrwt>0</asrwt>
<pdfrwt beam="1">  1       21 0.39132045E-01 0.43208226E+03</pdfrwt>
<pdfrwt beam="2">  1       21 0.15496147E+00 0.43208226E+03</pdfrwt>
<totfact> 0.14791935E+03</totfact>
</mgrwt>
</event>
<event>
 4    1  0.4991790E-002  0.8088474E+03  0.7818608E-02  0.9547298E-01
         21   -1    0    0  501  502  0.00000000000E+00  0.00000000000E+00  0.44604845307E+03  0.44604845307E+03  0.00000000000E+00 0. -1.
         21   -1    0    0  502  503 -0.00000000000E+00 -0.00000000000E+00 -0.15334096353E+04  0.15334096353E+04  0.00000000000E+00 0.  1.
    9000005    1    1    2  501    0 -0.61547043376E+03  0.33975032964E+03 -0.33729806543E+03  0.87635844622E+03  0.40000000000E+03 0. -1.
   -9000005    1    1    2    0  503  0.61547043376E+03 -0.33975032964E+03 -0.75006311680E+03  0.11030996421E+04  0.40000000000E+03 0.  1.
<mgrwt>
<rscale>  2 0.80884742E+03</rscale>
<asrwt>0</asrwt>
<pdfrwt beam="1">  1       21 0.68622838E-01 0.80884742E+03</pdfrwt>
<pdfrwt beam="2">  1       21 0.23590918E+00 0.80884742E+03</pdfrwt>
<totfact> 0.10625674E+02</totfact>
</mgrwt>
</event>
<event>
 4    1  0.4991790E-002  0.5117858E+03  0.7818608E-02  0.1010748E+00
         21   -1    0    0  501  502  0.00000000000E+00  0.00000000000E+00  0.12477786889E+04  0.12477786889E+04  0.00000000000E+00 0. -1.
         21   -1    0    0  502  503 -0.00000000000E+00 -0.00000000000E+00 -0.33853854313E+03  0.33853854313E+03  0.00000000000E+00 0.  1.
    9000005    1    1    2  501    0  0.26270840044E+03  0.18140828843E+03 -0.34279883685E+02  0.51293253084E+03  0.40000000000E+03 0.  1.
   -9000005    1    1    2    0  503 -0.26270840044E+03 -0.18140828843E+03  0.94352002945E+03  0.10733847012E+04  0.40000000000E+03 0. -1.
<mgrwt>
<rscale>  2 0.51178577E+03</rscale>
<asrwt>0</asrwt>
<pdfrwt beam="1">  1       21 0.19196595E+00 0.51178577E+03</pdfrwt>
<pdfrwt beam="2">  1       21 0.52082853E-01 0.51178577E+03</pdfrwt>
<totfact> 0.42362859E+02</totfact>
</mgrwt>
</event>
<event>
 4    1  0.4991790E-002  0.4666145E+03  0.7818608E-02  0.1022880E+00
         21   -1    0    0  501  502  0.00000000000E+00  0.00000000000E+00  0.49621652942E+03  0.49621652942E+03  0.00000000000E+00 0.  1.
         21   -1    0    0  502  503 -0.00000000000E+00 -0.00000000000E+00 -0.43882300580E+03  0.43882300580E+03  0.00000000000E+00 0. -1.
    9000005    1    1    2  501    0  0.24008405634E+03 -0.94204699275E+01  0.23983663675E+02  0.46723047363E+03  0.40000000000E+03 0. -1.
   -9000005    1    1    2    0  503 -0.24008405634E+03  0.94204699275E+01  0.33409859947E+02  0.46780906159E+03  0.40000000000E+03 0.  1.
<mgrwt>
<rscale>  2 0.46661451E+03</rscale>
<asrwt>0</asrwt>
<pdfrwt beam="1">  1       21 0.76341005E-01 0.46661451E+03</pdfrwt>
<pdfrwt beam="2">  1       21 0.67511231E-01 0.46661451E+03</pdfrwt>
<totfact> 0.26478114E+03</totfact>
</mgrwt>
</event>
<event>
 4    1  0.4991790E-002  0.4017682E+03  0.7818608E-02  0.1043169E+00
         21   -1    0    0  503  502  0.00000000000E+00  0.00000000000E+00  0.13078913680E+04  0.13078913680E+04  0.00000000000E+00 0. -1.
         21   -1    0    0  501  503 -0.00000000000E+00 -0.00000000000E+00 -0.12351948838E+03  0.12351948838E+03  0.00000000000E+00 0. -1.
    9000005    1    1    2  501    0 -0.33461753084E+02  0.17263125647E+02  0.57169921291E+03  0.69875438780E+03  0.40000000000E+03 0. -1.
   -9000005    1    1    2    0  502  0.33461753084E+02 -0.17263125647E+02  0.61267266674E+03  0.73265646861E+03  0.40000000000E+03 0. -1.
<mgrwt>
<rscale>  2 0.40176822E+03</rscale>
<asrwt>0</asrwt>
<pdfrwt beam="1">  1       21 0.20121405E+00 0.40176822E+03</pdfrwt>
<pdfrwt beam="2">  1       21 0.19002999E-01 0.40176822E+03</pdfrwt>
<totfact> 0.29097883E+03</totfact>
</mgrwt>
</event>
<event>
 4    1  0.4991790E-002  0.6479789E+03  0.7818608E-02  0.9810579E-01
         21   -1    0    0  501  502  0.00000000000E+00  0.00000000000E+00  0.75223488380E+03  0.75223488380E+03  0.00000000000E+00 0.  1.
         21   -1    0    0  502  503 -0.00000000000E+00 -0.00000000000E+00 -0.56891008074E+03  0.56891008074E+03  0.00000000000E+00 0. -1.
    9000005    1    1    2  501    0 -0.21692507750E+03  0.46132436925E+03  0.18241441317E+03  0.67316541878E+03  0.40000000000E+03 0.  1.
   -9000005    1    1    2    0  503  0.21692507750E+03 -0.46132436925E+03  0.91038988905E+00  0.64797954575E+03  0.40000000000E+03 0. -1.
<mgrwt>
<rscale>  2 0.64797891E+03</rscale>
<asrwt>0</asrwt>
<pdfrwt beam="1">  1       21 0.11572844E+00 0.64797891E+03</pdfrwt>
<pdfrwt beam="2">  1       21 0.87524628E-01 0.64797891E+03</pdfrwt>
<totfact> 0.50402782E+02</totfact>
</mgrwt>
</event>
<event>
 4    1  0.4991790E-002  0.4914211E+03  0.7818608E-02  0.1016043E+00
         21   -1    0    0  501  502  0.00000000000E+00  0.00000000000E+00  0.49373298900E+03  0.49373298900E+03  0.00000000000E+00 0.  1.
         21   -1    0    0  502  503 -0.00000000000E+00 -0.00000000000E+00 -0.11442184716E+04  0.11442184716E+04  0.00000000000E+00 0.  1.
    9000005    1    1    2  501    0  0.26788892293E+03 -0.98641934362E+02  0.29444061225E+03  0.57287867859E+03  0.40000000000E+03 0.  1.
   -9000005    1    1    2    0  503 -0.26788892293E+03  0.98641934362E+02 -0.94492609486E+03  0.10650727820E+04  0.40000000000E+03 0.  1.
<mgrwt>
<rscale>  2 0.49142111E+03</rscale>
<asrwt>0</asrwt>
<pdfrwt beam="1">  1       21 0.75958923E-01 0.49142111E+03</pdfrwt>
<pdfrwt beam="2">  1       21 0.17603361E+00 0.49142111E+03</pdfrwt>
<totfact> 0.23941586E+02</totfact>
</mgrwt>
</event>
<event>
 4    1  0.4991790E-002  0.4538488E+03  0.7818608E-02  0.1026580E+00
         21   -1    0    0  501  502  0.00000000000E+00  0.00000000000E+00  0.60313516734E+03  0.60313516734E+03  0.00000000000E+00 0. -1.
         21   -1    0    0  502  503 -0.00000000000E+00 -0.00000000000E+00 -0.34727956063E+03  0.34727956063E+03  0.00000000000E+00 0. -1.
    9000005    1    1    2  501    0  0.17315725247E+03  0.12647264890E+03  0.18916079256E+03  0.49169153994E+03  0.40000000000E+03 0. -1.
   -9000005    1    1    2    0  503 -0.17315725247E+03 -0.12647264890E+03  0.66694814151E+02  0.45872318803E+03  0.40000000000E+03 0. -1.
<mgrwt>
<rscale>  2 0.45384883E+03</rscale>
<asrwt>0</asrwt>
<pdfrwt beam="1">  1       21 0.92790026E-01 0.45384883E+03</pdfrwt>
<pdfrwt beam="2">  1       21 0.53427625E-01 0.45384883E+03</pdfrwt>
<totfact> 0.28163291E+03</totfact>
</mgrwt>
</event>
<event>
 4    1  0.4991790E-002  0.5300664E+03  0.7818608E-02  0.1006216E+00
         21   -1    0    0  503  502  0.00000000000E+00  0.00000000000E+00  0.51097892625E+03  0.51097892625E+03  0.00000000000E+00 0.  1.
         21   -1    0    0  501  503 -0.00000000000E+00 -0.00000000000E+00 -0.86787768465E+03  0.86787768465E+03  0.00000000000E+00 0.  1.
    9000005    1    1    2  501    0  0.31755054425E+02  0.34635534766E+03 -0.59578048594E+03  0.79744893113E+03  0.40000000000E+03 0.  1.
   -9000005    1    1    2    0  502 -0.31755054425E+02 -0.34635534766E+03  0.23888172755E+03  0.58140767977E+03  0.40000000000E+03 0.  1.
<mgrwt>
<rscale>  2 0.53006642E+03</rscale>
<asrwt>0</asrwt>
<pdfrwt beam="1">  1       21 0.78612143E-01 0.53006642E+03</pdfrwt>
<pdfrwt beam="2">  1       21 0.13351964E+00 0.53006642E+03</pdfrwt>
<totfact> 0.46633214E+02</totfact>
</mgrwt>
</event>
<event>
 4    1  0.4991790E-002  0.5783696E+03  0.7818608E-02  0.9951327E-01
         21   -1    0    0  501  502  0.00000000000E+00  0.00000000000E+00  0.17730725339E+04  0.17730725339E+04  0.00000000000E+00 0. -1.
         21   -1    0    0  502  503 -0.00000000000E+00 -0.00000000000E+00 -0.38092172432E+03  0.38092172432E+03  0.00000000000E+00 0.  1.
    9000005    1    1    2  501    0 -0.37413623125E+03  0.18583198193E+03  0.14612152352E+04  0.15715156406E+04  0.40000000000E+03 0. -1.
   -9000005    1    1    2    0  503  0.37413623125E+03 -0.18583198193E+03 -0.69064425662E+02  0.58247861758E+03  0.40000000000E+03 0.  1.
<mgrwt>
<rscale>  2 0.57836964E+03</rscale>
<asrwt>0</asrwt>
<pdfrwt beam="1">  1       21 0.27278038E+00 0.57836964E+03</pdfrwt>
<pdfrwt beam="2">  1       21 0.58603343E-01 0.57836964E+03</pdfrwt>
<totfact> 0.97152150E+01</totfact>
</mgrwt>
</event>
<event>
 4    1  0.4991790E-002  0.4665317E+03  0.7818608E-02  0.1022904E+00
         21   -1    0    0  503  502  0.00000000000E+00  0.00000000000E+00  0.10646819745E+04  0.10646819745E+04  0.00000000000E+00 0. -1.
         21   -1    0    0  501  503 -0.00000000000E+00 -0.00000000000E+00 -0.49591969418E+03  0.49591969418E+03  0.00000000000E+00 0.  1.
    9000005    1    1    2  501    0 -0.37608468011E+02  0.23714433619E+03 -0.31384965790E+03  0.56227523582E+03  0.40000000000E+03 0.  1.
   -9000005    1    1    2    0  502  0.37608468011E+02 -0.23714433619E+03  0.88261193822E+03  0.99832643285E+03  0.40000000000E+03 0. -1.
<mgrwt>
<rscale>  2 0.46653171E+03</rscale>
<asrwt>0</asrwt>
<pdfrwt beam="1">  1       21 0.16379723E+00 0.46653171E+03</pdfrwt>
<pdfrwt beam="2">  1       21 0.76295338E-01 0.46653171E+03</pdfrwt>
<totfact> 0.29461681E+02</totfact>
</mgrwt>
</event>
<event>
 4    1  0.4991790E-002  0.4499387E+03  0.7818608E-02  0.1027740E+00
         21   -1    0    0  501  502  0.00000000000E+00  0.00000000000E+00  0.37703466680E+03  0.37703466680E+03  0.00000000000E+00 0.  1.
         21   -1    0    0  502  503 -0.00000000000E+00 -0.00000000000E+00 -0.55259629340E+03  0.55259629340E+03  0.00000000000E+00 0.  1.
    9000005    1    1    2  501    0 -0.16920459825E+03 -0.11753551022E+03 -0.95408754000E+01  0.45003979883E+03  0.40000000000E+03 0.  1.
   -9000005    1    1    2    0  503  0.16920459825E+03  0.11753551022E+03 -0.16602075121E+03  0.47959116137E+03  0.40000000000E+03 0.  1.
<mgrwt>
<rscale>  2 0.44993865E+03</rscale>
<asrwt>0</asrwt>
<pdfrwt beam="1">  1       21 0.58005333E-01 0.44993865E+03</pdfrwt>
<pdfrwt beam="2">  1       21 0.85014814E-01 0.44993865E+03</pdfrwt>
<totfact> 0.29028592E+03</totfact>
</mgrwt>
</event>
<event>
 4    1  0.4991790E-002  0.6230155E+03  0.7818608E-02  0.9858774E-01
         21   -1    0    0  501  502  0.00000000000E+00  0.00000000000E+00  0.26134561501E+04  0.26134561501E+04  0.00000000000E+00 0.  1.
         21   -1    0    0  502  503 -0.00000000000E+00 -0.00000000000E+00 -0.17724745382E+03  0.17724745382E+03  0.00000000000E+00 0. -1.
    9000005    1    1    2  501    0 -0.47351318017E+03 -0.62718097805E+02  0.65634709141E+03  0.90495292474E+03  0.40000000000E+03 0. -1.
   -9000005    1    1    2    0  503  0.47351318017E+03  0.62718097805E+02  0.17798616049E+04  0.18857506792E+04  0.40000000000E+03 0.  1.
<mgrwt>
<rscale>  2 0.62301548E+03</rscale>
<asrwt>0</asrwt>
<pdfrwt beam="1">  1       21 0.40207015E+00 0.62301548E+03</pdfrwt>
<pdfrwt beam="2">  1       21 0.27268841E-01 0.62301548E+03</pdfrwt>
<totfact> 0.73388421E+01</totfact>
</mgrwt>
</event>
<event>
 4    1  0.4991790E-002  0.4406387E+03  0.7818608E-02  0.1030551E+00
         21   -1    0    0  501  502  0.00000000000E+00  0.00000000000E+00  0.40659265825E+03  0.40659265825E+03  0.00000000000E+00 0.  1.
         21   -1    0    0  502  503 -0.00000000000E+00 -0.00000000000E+00 -0.57455120514E+03  0.57455120514E+03  0.00000000000E+00 0.  1.
    9000005    1    1    2  501    0 -0.18343751818E+03  0.22652644305E+02 -0.28556470595E+03  0.52508062872E+03  0.40000000000E+03 0.  1.
   -9000005    1    1    2    0  503  0.18343751818E+03 -0.22652644305E+02  0.11760615905E+03  0.45606323467E+03  0.40000000000E+03 0.  1.
<mgrwt>
<rscale>  2 0.44063870E+03</rscale>
<asrwt>0</asrwt>
<pdfrwt beam="1">  1       21 0.62552717E-01 0.44063870E+03</pdfrwt>
<pdfrwt beam="2">  1       21 0.88392492E-01 0.44063870E+03</pdfrwt>
<totfact> 0.22525901E+03</totfact>
</mgrwt>
</event>
<event>
 4    1  0.4991790E-002  0.4590295E+03  0.7818608E-02  0.1025063E+00
         21   -1    0    0  501  502  0.00000000000E+00  0.00000000000E+00  0.51591930392E+03  0.51591930392E+03  0.00000000000E+00 0.  1.
         21   -1    0    0  502  503 -0.00000000000E+00 -0.00000000000E+00 -0.41860148901E+03  0.41860148901E+03  0.00000000000E+00 0.  1.
    9000005    1    1    2  501    0  0.21101333197E+03  0.78622493209E+02 -0.24238928289E+02  0.45966906395E+03  0.40000000000E+03 0.  1.
   -9000005    1    1    2    0  503 -0.21101333197E+03 -0.78622493209E+02  0.12155674320E+03  0.47485172899E+03  0.40000000000E+03 0.  1.
<mgrwt>
<rscale>  2 0.45902954E+03</rscale>
<asrwt>0</asrwt>
<pdfrwt beam="1">  1       21 0.79372200E-01 0.45902954E+03</pdfrwt>
<pdfrwt beam="2">  1       21 0.64400229E-01 0.45902954E+03</pdfrwt>
<totfact> 0.26967190E+03</totfact>
</mgrwt>
</event>
<event>
 4    1  0.4991790E-002  0.4283860E+03  0.7818608E-02  0.1034371E+00
         21   -1    0    0  503  502  0.00000000000E+00  0.00000000000E+00  0.22111455568E+04  0.22111455568E+04  0.00000000000E+00 0. -1.
         21   -1    0    0  501  503 -0.00000000000E+00 -0.00000000000E+00 -0.10666978670E+03  0.10666978670E+03  0.00000000000E+00 0.  1.
    9000005    1    1    2  501    0 -0.15333673178E+03  0.15599063218E+01  0.50626781648E+03  0.66319053720E+03  0.40000000000E+03 0.  1.
   -9000005    1    1    2    0  502  0.15333673178E+03 -0.15599063218E+01  0.15982079536E+04  0.16546248063E+04  0.40000000000E+03 0. -1.
<mgrwt>
<rscale>  2 0.42838603E+03</rscale>
<asrwt>0</asrwt>
<pdfrwt beam="1">  1       21 0.34017621E+00 0.42838603E+03</pdfrwt>
<pdfrwt beam="2">  1       21 0.16410738E-01 0.42838603E+03</pdfrwt>
<totfact> 0.53074040E+02</totfact>
</mgrwt>
</event>
<event>
 4    1  0.4991790E-002  0.4074422E+03  0.7818608E-02  0.1041233E+00
         21   -1    0    0  501  502  0.00000000000E+00  0.00000000000E+00  0.87782519207E+02  0.87782519207E+02  0.00000000000E+00 0. -1.
         21   -1    0    0  502  503 -0.00000000000E+00 -0.00000000000E+00 -0.21433241311E+04  0.21433241311E+04  0.00000000000E+00 0. -1.
    9000005    1    1    2  501    0 -0.76609328705E+02  0.11839237136E+02 -0.64511872885E+03  0.76301201242E+03  0.40000000000E+03 0. -1.
   -9000005    1    1    2    0  503  0.76609328705E+02 -0.11839237136E+02 -0.14104228830E+04  0.14680946378E+04  0.40000000000E+03 0. -1.
<mgrwt>
<rscale>  2 0.40744221E+03</rscale>
<asrwt>0</asrwt>
<pdfrwt beam="1">  1       21 0.13505003E-01 0.40744221E+03</pdfrwt>
<pdfrwt beam="2">  1       21 0.32974217E+00 0.40744221E+03</pdfrwt>
<totfact> 0.89211313E+02</totfact>
</mgrwt>
</event>
<event>
 4    1  0.4991790E-002  0.4563761E+03  0.7818608E-02  0.1025838E+00
         21   -1    0    0  501  502  0.00000000000E+00  0.00000000000E+00  0.19207937837E+03  0.19207937837E+03  0.00000000000E+00 0. -1.
         21   -1    0    0  502  503 -0.00000000000E+00 -0.00000000000E+00 -0.11776219170E+04  0.11776219170E+04  0.00000000000E+00 0. -1.
    9000005    1    1    2  501    0  0.12564047972E+03 -0.18025987604E+03 -0.30002140235E+03  0.54616114373E+03  0.40000000000E+03 0.  1.
   -9000005    1    1    2    0  503 -0.12564047972E+03  0.18025987604E+03 -0.68552113628E+03  0.82354015163E+03  0.40000000000E+03 0.  1.
<mgrwt>
<rscale>  2 0.45637611E+03</rscale>
<asrwt>0</asrwt>
<pdfrwt beam="1">  1       21 0.29550673E-01 0.45637611E+03</pdfrwt>
<pdfrwt beam="2">  1       21 0.18117261E+00 0.45637611E+03</pdfrwt>
<totfact> 0.16560183E+03</totfact>
</mgrwt>
</event>
<event>
 4    1  0.4991790E-002  0.5640666E+03  0.7818608E-02  0.9982895E-01
         21   -1    0    0  503  502  0.00000000000E+00  0.00000000000E+00  0.12632566308E+04  0.12632566308E+04  0.00000000000E+00 0. -1.
         21   -1    0    0  501  503 -0.00000000000E+00 -0.00000000000E+00 -0.55475906426E+03  0.55475906426E+03  0.00000000000E+00 0.  1.
    9000005    1    1    2  501    0 -0.35716072590E+03  0.17494943941E+03 -0.31742789026E+03  0.64724922247E+03  0.40000000000E+03 0.  1.
   -9000005    1    1    2    0  502  0.35716072590E+03 -0.17494943941E+03  0.10259254568E+04  0.11707664726E+04  0.40000000000E+03 0. -1.
<mgrwt>
<rscale>  2 0.56406657E+03</rscale>
<asrwt>0</asrwt>
<pdfrwt beam="1">  1       21 0.19434717E+00 0.56406657E+03</pdfrwt>
<pdfrwt beam="2">  1       21 0.85347549E-01 0.56406657E+03</pdfrwt>
<totfact> 0.13169485E+02</totfact>
</mgrwt>
</event>
<event>
 4    1  0.4991790E-002  0.6233140E+03  0.7818608E-02  0.9858184E-01
         21   -1    0    0  501  502  0.00000000000E+00  0.00000000000E+00  0.12841851229E+04  0.12841851229E+04  0.00000000000E+00 0.  1.
         21   -1    0    0  502  503 -0.00000000000E+00 -0.00000000000E+00 -0.31124556150E+03  0.31124556150E+03  0.00000000000E+00 0. -1.
    9000005    1    1    2  501    0 -0.36226283746E+03  0.31190694013E+03  0.61986422043E+03  0.87906311177E+03  0.40000000000E+03 0.  1.
   -9000005    1    1    2    0  503  0.36226283746E+03 -0.31190694013E+03  0.35307534095E+03  0.71636757262E+03  0.40000000000E+03 0. -1.
<mgrwt>
<rscale>  2 0.62331397E+03</rscale>
<asrwt>0</asrwt>
<pdfrwt beam="1">  1       21 0.19756694E+00 0.62331397E+03</pdfrwt>
<pdfrwt beam="2">  1       21 0.47883933E-01 0.62331397E+03</pdfrwt>
<totfact> 0.44474350E+02</totfact>
</mgrwt>
</event>
<event>
 4    1  0.4991790E-002  0.4448383E+03  0.7818608E-02  0.1029273E+00
         21   -1    0    0  503  502  0.00000000000E+00  0.00000000000E+00  0.31708176838E+03  0.31708176838E+03  0.00000000000E+00 0. -1.
         21   -1    0    0  501  503 -0.00000000000E+00 -0.00000000000E+00 -0.68186048139E+03  0.68186048139E+03  0.00000000000E+00 0. -1.
    9000005    1    1    2  501    0 -0.52543226044E+02  0.18740412455E+03 -0.32779867390E+03  0.55256951338E+03  0.40000000000E+03 0. -1.
   -9000005    1    1    2    0  502  0.52543226044E+02 -0.18740412455E+03 -0.36980039104E+02  0.44637273639E+03  0.40000000000E+03 0. -1.
<mgrwt>
<rscale>  2 0.44483828E+03</rscale>
<asrwt>0</asrwt>
<pdfrwt beam="1">  1       21 0.48781811E-01 0.44483828E+03</pdfrwt>
<pdfrwt beam="2">  1       21 0.10490161E+00 0.44483828E+03</pdfrwt>
<totfact> 0.25490557E+03</totfact>
</mgrwt>
</event>
<event>
 4    1  0.4991790E-002  0.4151069E+03  0.7818608E-02  0.1038671E+00
         21   -1    0    0  501  502  0.00000000000E+00  0.00000000000E+00  0.21447691141E+04  0.21447691141E+04  0.00000000000E+00 0. -1.
         21   -1    0    0  502  503 -0.00000000000E+00 -0.00000000000E+00 -0.20157550445E+03  0.20157550445E+03  0.00000000000E+00 0. -1.
    9000005    1    1    2  501    0  0.58109593806E+02 -0.94535858454E+02  0.18814164924E+04  0.19266659729E+04  0.40000000000E+03 0. -1.
   -9000005    1    1    2    0  503 -0.58109593806E+02  0.94535858454E+02  0.61777117334E+02  0.41967864569E+03  0.40000000000E+03 0. -1.
<mgrwt>
<rscale>  2 0.41510692E+03</rscale>
<asrwt>0</asrwt>
<pdfrwt beam="1">  1       21 0.32996446E+00 0.41510692E+03</pdfrwt>
<pdfrwt beam="2">  1       21 0.31011618E-01 0.41510692E+03</pdfrwt>
<totfact> 0.18131761E+02</totfact>
</mgrwt>
</event>
<event>
 4    1  0.4991790E-002  0.4291158E+03  0.7818608E-02  0.1034140E+00
         21   -1    0    0  501  502  0.00000000000E+00  0.00000000000E+00  0.67460921360E+03  0.67460921360E+03  0.00000000000E+00 0.  1.
         21   -1    0    0  502  503 -0.00000000000E+00 -0.00000000000E+00 -0.34152550021E+03  0.34152550021E+03  0.00000000000E+00 0.  1.
    9000005    1    1    2  501    0  0.30890255571E+02  0.15226992764E+03  0.39419162192E+03  0.58268977471E+03  0.40000000000E+03 0.  1.
   -9000005    1    1    2    0  503 -0.30890255571E+02 -0.15226992764E+03 -0.61107908536E+02  0.43344493911E+03  0.40000000000E+03 0.  1.
<mgrwt>
<rscale>  2 0.42911576E+03</rscale>
<asrwt>0</asrwt>
<pdfrwt beam="1">  1       21 0.10378603E+00 0.42911576E+03</pdfrwt>
<pdfrwt beam="2">  1       21 0.52542385E-01 0.42911576E+03</pdfrwt>
<totfact> 0.22474443E+03</totfact>
</mgrwt>
</event>
<event>
 4    1  0.4991790E-002  0.5986909E+03  0.7818608E-02  0.9908126E-01
         21   -1    0    0  501  502  0.00000000000E+00  0.00000000000E+00  0.37156508763E+03  0.37156508763E+03  0.00000000000E+00 0.  1.
         21   -1    0    0  502  503 -0.00000000000E+00 -0.00000000000E+00 -0.10931488204E+04  0.10931488204E+04  0.00000000000E+00 0.  1.
    9000005    1    1    2  501    0 -0.44532373024E+03  0.10841389965E+02 -0.10970125918E+03  0.60865846475E+03  0.40000000000E+03 0.  1.
   -9000005    1    1    2    0  503  0.44532373024E+03 -0.10841389965E+02 -0.61188247355E+03  0.85605544323E+03  0.40000000000E+03 0.  1.
<mgrwt>
<rscale>  2 0.59869087E+03</rscale>
<asrwt>0</asrwt>
<pdfrwt beam="1">  1       21 0.57163859E-01 0.59869087E+03</pdfrwt>
<pdfrwt beam="2">  1       21 0.16817674E+00 0.59869087E+03</pdfrwt>
<totfact> 0.49419877E+02</totfact>
</mgrwt>
</event>
<event>
 4    1  0.4991790E-002  0.8483099E+03  0.7818608E-02  0.9492608E-01
         21   -1    0    0  503  502  0.00000000000E+00  0.00000000000E+00  0.72263764124E+03  0.72263764124E+03  0.00000000000E+00 0.  1.
         21   -1    0    0  501  503 -0.00000000000E+00 -0.00000000000E+00 -0.10083634747E+04  0.10083634747E+04  0.00000000000E+00 0.  1.
    9000005    1    1    2  501    0 -0.31779391938E+03 -0.67722724662E+03 -0.46399374896E+02  0.84957790741E+03  0.40000000000E+03 0.  1.
   -9000005    1    1    2    0  502  0.31779391938E+03  0.67722724662E+03 -0.23932645855E+03  0.88142320853E+03  0.40000000000E+03 0.  1.
<mgrwt>
<rscale>  2 0.84830992E+03</rscale>
<asrwt>0</asrwt>
<pdfrwt beam="1">  1       21 0.11117502E+00 0.84830992E+03</pdfrwt>
<pdfrwt beam="2">  1       21 0.15513284E+00 0.84830992E+03</pdfrwt>
<totfact> 0.12124797E+02</totfact>
</mgrwt>
</event>
<event>
 4    1  0.4991790E-002  0.4918675E+03  0.7818608E-02  0.1015924E+00
         21   -1    0    0  501  502  0.00000000000E+00  0.00000000000E+00  0.10983746353E+04  0.10983746353E+04  0.00000000000E+00 0. -1.
         21   -1    0    0  502  503 -0.00000000000E+00 -0.00000000000E+00 -0.67752134790E+03  0.67752134790E+03  0.00000000000E+00 0. -1.
    9000005    1    1    2  501    0  0.26745405093E+03 -0.10198992542E+03  0.93989398804E+03  0.10608177614E+04  0.40000000000E+03 0. -1.
   -9000005    1    1    2    0  503 -0.26745405093E+03  0.10198992542E+03 -0.51904070067E+03  0.71507822173E+03  0.40000000000E+03 0. -1.
<mgrwt>
<rscale>  2 0.49186748E+03</rscale>
<asrwt>0</asrwt>
<pdfrwt beam="1">  1       21 0.16898071E+00 0.49186748E+03</pdfrwt>
<pdfrwt beam="2">  1       21 0.10423405E+00 0.49186748E+03</pdfrwt>
<totfact> 0.12713810E+02</totfact>
</mgrwt>
</event>
<event>
 4    1  0.4991790E-002  0.5890795E+03  0.7818608E-02  0.9928325E-01
         21   -1    0    0  501  502  0.00000000000E+00  0.00000000000E+00  0.33772141295E+03  0.33772141295E+03  0.00000000000E+00 0.  1.
         21   -1    0    0  502  503 -0.00000000000E+00 -0.00000000000E+00 -0.18271688108E+04  0.18271688108E+04  0.00000000000E+00 0. -1.
    9000005    1    1    2  501    0 -0.34178230142E+03 -0.26495187579E+03 -0.28634879724E+02  0.58977503710E+03  0.40000000000E+03 0.  1.
   -9000005    1    1    2    0  503  0.34178230142E+03  0.26495187579E+03 -0.14608125181E+04  0.15751151866E+04  0.40000000000E+03 0. -1.
<mgrwt>
<rscale>  2 0.58907948E+03</rscale>
<asrwt>0</asrwt>
<pdfrwt beam="1">  1       21 0.51957141E-01 0.58907948E+03</pdfrwt>
<pdfrwt beam="2">  1       21 0.28110289E+00 0.58907948E+03</pdfrwt>
<totfact> 0.11168551E+02</totfact>
</mgrwt>
</event>
<event>
 4    1  0.4991790E-002  0.4292733E+03  0.7818608E-02  0.1034090E+00
         21   -1    0    0  503  502  0.00000000000E+00  0.00000000000E+00  0.17117137699E+04  0.17117137699E+04  0.00000000000E+00 0.  1.
         21   -1    0    0  501  503 -0.00000000000E+00 -0.00000000000E+00 -0.11581196039E+03  0.11581196039E+03  0.00000000000E+00 0.  1.
    9000005    1    1    2  501    0  0.67162915789E+01 -0.15566137923E+03  0.55545467454E+03  0.70200104632E+03  0.40000000000E+03 0.  1.
   -9000005    1    1    2    0  502 -0.67162915789E+01  0.15566137923E+03  0.10404471350E+04  0.11255246840E+04  0.40000000000E+03 0.  1.
<mgrwt>
<rscale>  2 0.42927331E+03</rscale>
<asrwt>0</asrwt>
<pdfrwt beam="1">  1       21 0.26334056E+00 0.42927331E+03</pdfrwt>
<pdfrwt beam="2">  1       21 0.17817226E-01 0.42927331E+03</pdfrwt>
<totfact> 0.13201704E+03</totfact>
</mgrwt>
</event>
<event>
 4    1  0.4991790E-002  0.4651188E+03  0.7818608E-02  0.1023307E+00
         21   -1    0    0  503  502  0.00000000000E+00  0.00000000000E+00  0.46246066603E+03  0.46246066603E+03  0.00000000000E+00 0.  1.
         21   -1    0    0  501  503 -0.00000000000E+00 -0.00000000000E+00 -0.46873099084E+03  0.46873099084E+03  0.00000000000E+00 0.  1.
    9000005    1    1    2  501    0  0.23694104955E+03 -0.13945416008E+02 -0.23970956237E+02  0.46573612951E+03  0.40000000000E+03 0. -1.
   -9000005    1    1    2    0  502 -0.23694104955E+03  0.13945416008E+02  0.17700631431E+02  0.46545552735E+03  0.40000000000E+03 0. -1.
<mgrwt>
<rscale>  2 0.46511884E+03</rscale>
<asrwt>0</asrwt>
<pdfrwt beam="1">  1       21 0.71147795E-01 0.46511884E+03</pdfrwt>
<pdfrwt beam="2">  1       21 0.72112460E-01 0.46511884E+03</pdfrwt>
<totfact> 0.26806397E+03</totfact>
</mgrwt>
</event>
<event>
 4    1  0.4991790E-002  0.4690186E+03  0.7818608E-02  0.1022198E+00
         21   -1    0    0  503  502  0.00000000000E+00  0.00000000000E+00  0.91005861067E+03  0.91005861067E+03  0.00000000000E+00 0. -1.
         21   -1    0    0  501  503 -0.00000000000E+00 -0.00000000000E+00 -0.24784314150E+03  0.24784314150E+03  0.00000000000E+00 0.  1.
    9000005    1    1    2  501    0 -0.22975359854E+03  0.84804086689E+02  0.42211502600E+03  0.63099884654E+03  0.40000000000E+03 0. -1.
   -9000005    1    1    2    0  502  0.22975359854E+03 -0.84804086689E+02  0.24010044317E+03  0.52690290564E+03  0.40000000000E+03 0.  1.
<mgrwt>
<rscale>  2 0.46901860E+03</rscale>
<asrwt>0</asrwt>
<pdfrwt beam="1">  1       21 0.14000902E+00 0.46901860E+03</pdfrwt>
<pdfrwt beam="2">  1       21 0.38129715E-01 0.46901860E+03</pdfrwt>
<totfact> 0.20216625E+03</totfact>
</mgrwt>
</event>
<event>
 4    1  0.4991790E-002  0.4737534E+03  0.7818608E-02  0.1020866E+00
         21   -1    0    0  501  502  0.00000000000E+00  0.00000000000E+00  0.18923659771E+03  0.18923659771E+03  0.00000000000E+00 0.  1.
         21   -1    0    0  502  503 -0.00000000000E+00 -0.00000000000E+00 -0.12129400917E+04  0.12129400917E+04  0.00000000000E+00 0. -1.
    9000005    1    1    2  501    0  0.13129080297E+03 -0.21726708185E+03 -0.61625795125E+03  0.77731340030E+03  0.40000000000E+03 0. -1.
   -9000005    1    1    2    0  503 -0.13129080297E+03  0.21726708185E+03 -0.40744554277E+03  0.62486328915E+03  0.40000000000E+03 0.  1.
<mgrwt>
<rscale>  2 0.47375337E+03</rscale>
<asrwt>0</asrwt>
<pdfrwt beam="1">  1       21 0.29113323E-01 0.47375337E+03</pdfrwt>
<pdfrwt beam="2">  1       21 0.18660617E+00 0.47375337E+03</pdfrwt>
<totfact> 0.15520033E+03</totfact>
</mgrwt>
</event>
<event>
 4    1  0.4991790E-002  0.4051339E+03  0.7818608E-02  0.1042016E+00
         21   -1    0    0  501  502  0.00000000000E+00  0.00000000000E+00  0.10809767310E+03  0.10809767310E+03  0.00000000000E+00 0. -1.
         21   -1    0    0  502  503 -0.00000000000E+00 -0.00000000000E+00 -0.19217308889E+04  0.19217308889E+04  0.00000000000E+00 0.  1.
    9000005    1    1    2  501    0  0.17917461178E+02  0.61744995913E+02 -0.44184769808E+03  0.59946882173E+03  0.40000000000E+03 0. -1.
   -9000005    1    1    2    0  503 -0.17917461178E+02 -0.61744995913E+02 -0.13717855177E+04  0.14303597403E+04  0.40000000000E+03 0.  1.
<mgrwt>
<rscale>  2 0.40513390E+03</rscale>
<asrwt>0</asrwt>
<pdfrwt beam="1">  1       21 0.16630411E-01 0.40513390E+03</pdfrwt>
<pdfrwt beam="2">  1       21 0.29565090E+00 0.40513390E+03</pdfrwt>
<totfact> 0.97331787E+02</totfact>
</mgrwt>
</event>
<event>
 4    1  0.4991790E-002  0.4316051E+03  0.7818608E-02  0.1033354E+00
         21   -1    0    0  501  502  0.00000000000E+00  0.00000000000E+00  0.47871710597E+03  0.47871710597E+03  0.00000000000E+00 0.  1.
         21   -1    0    0  502  503 -0.00000000000E+00 -0.00000000000E+00 -0.48085987300E+03  0.48085987300E+03  0.00000000000E+00 0.  1.
    9000005    1    1    2  501    0 -0.40175648786E+02 -0.15706328154E+03  0.20848316449E+03  0.47932054727E+03  0.40000000000E+03 0. -1.
   -9000005    1    1    2    0  503  0.40175648786E+02  0.15706328154E+03 -0.21062593152E+03  0.48025643170E+03  0.40000000000E+03 0. -1.
<mgrwt>
<rscale>  2 0.43160509E+03</rscale>
<asrwt>0</asrwt>
<pdfrwt beam="1">  1       21 0.73648786E-01 0.43160509E+03</pdfrwt>
<pdfrwt beam="2">  1       21 0.73978442E-01 0.43160509E+03</pdfrwt>
<totfact> 0.23679002E+03</totfact>
</mgrwt>
</event>
<event>
 4    1  0.4991790E-002  0.4107297E+03  0.7818608E-02  0.1040126E+00
         21   -1    0    0  501  502  0.00000000000E+00  0.00000000000E+00  0.16875262142E+03  0.16875262142E+03  0.00000000000E+00 0. -1.
         21   -1    0    0  502  503 -0.00000000000E+00 -0.00000000000E+00 -0.16947428978E+04  0.16947428978E+04  0.00000000000E+00 0. -1.
    9000005    1    1    2  501    0  0.77956399745E+02 -0.51202475051E+02 -0.16629245114E+03  0.44311631997E+03  0.40000000000E+03 0. -1.
   -9000005    1    1    2    0  503 -0.77956399745E+02  0.51202475051E+02 -0.13596978253E+04  0.14203791993E+04  0.40000000000E+03 0. -1.
<mgrwt>
<rscale>  2 0.41072971E+03</rscale>
<asrwt>0</asrwt>
<pdfrwt beam="1">  1       21 0.25961942E-01 0.41072971E+03</pdfrwt>
<pdfrwt beam="2">  1       21 0.26072967E+00 0.41072971E+03</pdfrwt>
<totfact> 0.67267806E+02</totfact>
</mgrwt>
</event>
<event>
 4    1  0.4991790E-002  0.4013630E+03  0.7818608E-02  0.1043309E+00
         21   -1    0    0  503  502  0.00000000000E+00  0.00000000000E+00  0.87953281438E+03  0.87953281438E+03  0.00000000000E+00 0. -1.
         21   -1    0    0  501  503 -0.00000000000E+00 -0.00000000000E+00 -0.18537641952E+03  0.18537641952E+03  0.00000000000E+00 0. -1.
    9000005    1    1    2  501    0 -0.16437641621E+02  0.28672013585E+02  0.28881293930E+03  0.49447466501E+03  0.40000000000E+03 0.  1.
   -9000005    1    1    2    0  502  0.16437641621E+02 -0.28672013585E+02  0.40534345556E+03  0.57043456889E+03  0.40000000000E+03 0.  1.
<mgrwt>
<rscale>  2 0.40136303E+03</rscale>
<asrwt>0</asrwt>
<pdfrwt beam="1">  1       21 0.13531274E+00 0.40136303E+03</pdfrwt>
<pdfrwt beam="2">  1       21 0.28519450E-01 0.40136303E+03</pdfrwt>
<totfact> 0.40690103E+03</totfact>
</mgrwt>
</event>
<event>
 4    1  0.4991790E-002  0.5609856E+03  0.7818608E-02  0.9989827E-01
         21   -1    0    0  501  502  0.00000000000E+00  0.00000000000E+00  0.19898720049E+04  0.19898720049E+04  0.00000000000E+00 0.  1.
         21   -1    0    0  502  503 -0.00000000000E+00 -0.00000000000E+00 -0.18686201874E+03  0.18686201874E+03  0.00000000000E+00 0.  1.
    9000005    1    1    2  501    0  0.36771416492E+03 -0.13961057083E+03  0.13281059037E+04  0.14417246998E+04  0.40000000000E+03 0.  1.
   -9000005    1    1    2    0  503 -0.36771416492E+03  0.13961057083E+03  0.47490408242E+03  0.73500932380E+03  0.40000000000E+03 0.  1.
<mgrwt>
<rscale>  2 0.56098558E+03</rscale>
<asrwt>0</asrwt>
<pdfrwt beam="1">  1       21 0.30613414E+00 0.56098558E+03</pdfrwt>
<pdfrwt beam="2">  1       21 0.28748004E-01 0.56098558E+03</pdfrwt>
<totfact> 0.27039635E+02</totfact>
</mgrwt>
</event>
<event>
 4    1  0.4991790E-002  0.4521704E+03  0.7818608E-02  0.1027077E+00
         21   -1    0    0  503  502  0.00000000000E+00  0.00000000000E+00  0.15643168354E+04  0.15643168354E+04  0.00000000000E+00 0.  1.
         21   -1    0    0  501  503 -0.00000000000E+00 -0.00000000000E+00 -0.15126228232E+03  0.15126228232E+03  0.00000000000E+00 0.  1.
    9000005    1    1    2  501    0  0.85260364356E+02  0.19284385314E+03  0.39027150605E+03  0.59730220982E+03  0.40000000000E+03 0.  1.
   -9000005    1    1    2    0  502 -0.85260364356E+02 -0.19284385314E+03  0.10227830470E+04  0.11182769078E+04  0.40000000000E+03 0.  1.
<mgrwt>
<rscale>  2 0.45217041E+03</rscale>
<asrwt>0</asrwt>
<pdfrwt beam="1">  1       21 0.24066412E+00 0.45217041E+03</pdfrwt>
<pdfrwt beam="2">  1       21 0.23271121E-01 0.45217041E+03</pdfrwt>
<totfact> 0.10803002E+03</totfact>
</mgrwt>
</event>
<event>
 4    1  0.4991790E-002  0.4457267E+03  0.7818608E-02  0.1029004E+00
         21   -1    0    0  501  502  0.00000000000E+00  0.00000000000E+00  0.82794828318E+03  0.82794828318E+03  0.00000000000E+00 0. -1.
         21   -1    0    0  502  503 -0.00000000000E+00 -0.00000000000E+00 -0.25266484470E+03  0.25266484470E+03  0.00000000000E+00 0. -1.
    9000005    1    1    2  501    0  0.70616612006E+01 -0.19652592474E+03  0.16647114122E+03  0.47579927177E+03  0.40000000000E+03 0. -1.
   -9000005    1    1    2    0  503 -0.70616612006E+01  0.19652592474E+03  0.40881229725E+03  0.60481385611E+03  0.40000000000E+03 0. -1.
<mgrwt>
<rscale>  2 0.44572672E+03</rscale>
<asrwt>0</asrwt>
<pdfrwt beam="1">  1       21 0.12737666E+00 0.44572672E+03</pdfrwt>
<pdfrwt beam="2">  1       21 0.38871515E-01 0.44572672E+03</pdfrwt>
<totfact> 0.25111381E+03</totfact>
</mgrwt>
</event>
<event>
 4    1  0.4991790E-002  0.4380390E+03  0.7818608E-02  0.1031350E+00
         21   -1    0    0  503  502  0.00000000000E+00  0.00000000000E+00  0.72801597339E+03  0.72801597339E+03  0.00000000000E+00 0.  1.
         21   -1    0    0  501  503 -0.00000000000E+00 -0.00000000000E+00 -0.76114531497E+03  0.76114531497E+03  0.00000000000E+00 0.  1.
    9000005    1    1    2  501    0 -0.82696611081E+02 -0.15823850341E+03 -0.61858391410E+03  0.75797375432E+03  0.40000000000E+03 0.  1.
   -9000005    1    1    2    0  502  0.82696611081E+02  0.15823850341E+03  0.58545457253E+03  0.73118753404E+03  0.40000000000E+03 0.  1.
<mgrwt>
<rscale>  2 0.43803899E+03</rscale>
<asrwt>0</asrwt>
<pdfrwt beam="1">  1       21 0.11200246E+00 0.43803899E+03</pdfrwt>
<pdfrwt beam="2">  1       21 0.11709928E+00 0.43803899E+03</pdfrwt>
<totfact> 0.29120917E+02</totfact>
</mgrwt>
</event>
<event>
 4    1  0.4991790E-002  0.6494228E+03  0.7818608E-02  0.9807863E-01
         21   -1    0    0  503  502  0.00000000000E+00  0.00000000000E+00  0.20240142242E+03  0.20240142242E+03  0.00000000000E+00 0.  1.
         21   -1    0    0  501  503 -0.00000000000E+00 -0.00000000000E+00 -0.27396030632E+04  0.27396030632E+04  0.00000000000E+00 0.  1.
    9000005    1    1    2  501    0 -0.50079543633E+03  0.10466092102E+03 -0.19883469035E+04  0.20917154171E+04  0.40000000000E+03 0.  1.
   -9000005    1    1    2    0  502  0.50079543633E+03 -0.10466092102E+03 -0.54885473732E+03  0.85028906856E+03  0.40000000000E+03 0.  1.
<mgrwt>
<rscale>  2 0.64942280E+03</rscale>
<asrwt>0</asrwt>
<pdfrwt beam="1">  1       21 0.31138681E-01 0.64942280E+03</pdfrwt>
<pdfrwt beam="2">  1       21 0.42147738E+00 0.64942280E+03</pdfrwt>
<totfact> 0.41478991E+01</totfact>
</mgrwt>
</event>
<event>
 4    1  0.4991790E-002  0.5667306E+03  0.7818608E-02  0.9976940E-01
         21   -1    0    0  503  502  0.00000000000E+00  0.00000000000E+00  0.92839953449E+03  0.92839953449E+03  0.00000000000E+00 0.  1.
         21   -1    0    0  501  503 -0.00000000000E+00 -0.00000000000E+00 -0.39562100586E+03  0.39562100586E+03  0.00000000000E+00 0.  1.
    9000005    1    1    2  501    0 -0.36875108998E+03 -0.15876445493E+03  0.31826478180E+02  0.56762350482E+03  0.40000000000E+03 0.  1.
   -9000005    1    1    2    0  502  0.36875108998E+03  0.15876445493E+03  0.50095205045E+03  0.75639703553E+03  0.40000000000E+03 0.  1.
<mgrwt>
<rscale>  2 0.56673055E+03</rscale>
<asrwt>0</asrwt>
<pdfrwt beam="1">  1       21 0.14283070E+00 0.56673055E+03</pdfrwt>
<pdfrwt beam="2">  1       21 0.60864770E-01 0.56673055E+03</pdfrwt>
<totfact> 0.68525663E+02</totfact>
</mgrwt>
</event>
<event>
 4    1  0.4991790E-002  0.4545980E+03  0.7818608E-02  0.1026360E+00
         21   -1    0    0  501  502  0.00000000000E+00  0.00000000000E+00  0.97247000658E+03  0.97247000658E+03  0.00000000000E+00 0.  1.
         21   -1    0    0  502  503 -0.00000000000E+00 -0.00000000000E+00 -0.26882761920E+03  0.26882761920E+03  0.00000000000E+00 0. -1.
    9000005    1    1    2  501    0  0.21172568046E+03  0.42797352295E+02  0.63589554105E+03  0.78167929246E+03  0.40000000000E+03 0.  1.
   -9000005    1    1    2    0  503 -0.21172568046E+03 -0.42797352295E+02  0.67746846329E+02  0.45961833331E+03  0.40000000000E+03 0. -1.
<mgrwt>
<rscale>  2 0.45459804E+03</rscale>
<asrwt>0</asrwt>
<pdfrwt beam="1">  1       21 0.14961077E+00 0.45459804E+03</pdfrwt>
<pdfrwt beam="2">  1       21 0.41358096E-01 0.45459804E+03</pdfrwt>
<totfact> 0.14387948E+03</totfact>
</mgrwt>
</event>
<event>
 4    1  0.4991790E-002  0.4019771E+03  0.7818608E-02  0.1043097E+00
         21   -1    0    0  501  502  0.00000000000E+00  0.00000000000E+00  0.87797677466E+03  0.87797677466E+03  0.00000000000E+00 0. -1.
         21   -1    0    0  502  503 -0.00000000000E+00 -0.00000000000E+00 -0.80254937821E+03  0.80254937821E+03  0.00000000000E+00 0. -1.
    9000005    1    1    2  501    0 -0.26398099329E+01  0.39731765082E+02  0.77536557027E+03  0.87337125514E+03  0.40000000000E+03 0. -1.
   -9000005    1    1    2    0  503  0.26398099329E+01 -0.39731765082E+02 -0.69993817382E+03  0.80715489772E+03  0.40000000000E+03 0. -1.
<mgrwt>
<rscale>  2 0.40197709E+03</rscale>
<asrwt>0</asrwt>
<pdfrwt beam="1">  1       21 0.13507335E+00 0.40197709E+03</pdfrwt>
<pdfrwt beam="2">  1       21 0.12346914E+00 0.40197709E+03</pdfrwt>
<totfact> 0.16100687E+02</totfact>
</mgrwt>
</event>
<event>
 4    1  0.4991790E-002  0.4546029E+03  0.7818608E-02  0.1026358E+00
         21   -1    0    0  503  502  0.00000000000E+00  0.00000000000E+00  0.96381606543E+03  0.96381606543E+03  0.00000000000E+00 0.  1.
         21   -1    0    0  501  503 -0.00000000000E+00 -0.00000000000E+00 -0.59732987361E+03  0.59732987361E+03  0.00000000000E+00 0.  1.
    9000005    1    1    2  501    0  0.35904302014E+02 -0.21301328419E+03 -0.44171845256E+03  0.63386037065E+03  0.40000000000E+03 0.  1.
   -9000005    1    1    2    0  502 -0.35904302014E+02  0.21301328419E+03  0.80820464438E+03  0.92728556839E+03  0.40000000000E+03 0.  1.
<mgrwt>
<rscale>  2 0.45460288E+03</rscale>
<asrwt>0</asrwt>
<pdfrwt beam="1">  1       21 0.14827939E+00 0.45460288E+03</pdfrwt>
<pdfrwt beam="2">  1       21 0.91896904E-01 0.45460288E+03</pdfrwt>
<totfact> 0.25259565E+02</totfact>
</mgrwt>
</event>
<event>
 4    1  0.4991790E-002  0.4642710E+03  0.7818608E-02  0.1023550E+00
         21   -1    0    0  503  502  0.00000000000E+00  0.00000000000E+00  0.78048682967E+03  0.78048682967E+03  0.00000000000E+00 0.  1.
         21   -1    0    0  501  503 -0.00000000000E+00 -0.00000000000E+00 -0.27628364110E+03  0.27628364110E+03  0.00000000000E+00 0.  1.
    9000005    1    1    2  501    0 -0.15623101546E+03  0.17646367101E+03  0.24141622521E+03  0.52328706383E+03  0.40000000000E+03 0.  1.
   -9000005    1    1    2    0  502  0.15623101546E+03 -0.17646367101E+03  0.26278696336E+03  0.53348340695E+03  0.40000000000E+03 0.  1.
<mgrwt>
<rscale>  2 0.46427100E+03</rscale>
<asrwt>0</asrwt>
<pdfrwt beam="1">  1       21 0.12007490E+00 0.46427100E+03</pdfrwt>
<pdfrwt beam="2">  1       21 0.42505176E-01 0.46427100E+03</pdfrwt>
<totfact> 0.24127388E+03</totfact>
</mgrwt>
</event>
<event>
 4    1  0.4991790E-002  0.4976516E+03  0.7818608E-02  0.1014394E+00
         21   -1    0    0  503  502  0.00000000000E+00  0.00000000000E+00  0.49082505016E+03  0.49082505016E+03  0.00000000000E+00 0. -1.
         21   -1    0    0  501  503 -0.00000000000E+00 -0.00000000000E+00 -0.50678036543E+03  0.50678036543E+03  0.00000000000E+00 0. -1.
    9000005    1    1    2  501    0 -0.29383706864E+03 -0.36288563629E+02 -0.40897146201E+02  0.49932920937E+03  0.40000000000E+03 0.  1.
   -9000005    1    1    2    0  502  0.29383706864E+03  0.36288563629E+02  0.24941830940E+02  0.49827620622E+03  0.40000000000E+03 0.  1.
<mgrwt>
<rscale>  2 0.49765157E+03</rscale>
<asrwt>0</asrwt>
<pdfrwt beam="1">  1       21 0.75511546E-01 0.49765157E+03</pdfrwt>
<pdfrwt beam="2">  1       21 0.77966210E-01 0.49765157E+03</pdfrwt>
<totfact> 0.19369341E+03</totfact>
</mgrwt>
</event>
<event>
 4    1  0.4991790E-002  0.4049287E+03  0.7818608E-02  0.1042086E+00
         21   -1    0    0  501  502  0.00000000000E+00  0.00000000000E+00  0.10625649476E+03  0.10625649476E+03  0.00000000000E+00 0. -1.
         21   -1    0    0  502  503 -0.00000000000E+00 -0.00000000000E+00 -0.17609467058E+04  0.17609467058E+04  0.00000000000E+00 0.  1.
    9000005    1    1    2  501    0  0.12400053453E+02  0.61753616491E+02 -0.49899510397E+03  0.64262227184E+03  0.40000000000E+03 0. -1.
   -9000005    1    1    2    0  503 -0.12400053453E+02 -0.61753616491E+02 -0.11556951071E+04  0.12245809288E+04  0.40000000000E+03 0.  1.
<mgrwt>
<rscale>  2 0.40492872E+03</rscale>
<asrwt>0</asrwt>
<pdfrwt beam="1">  1       21 0.16347154E-01 0.40492872E+03</pdfrwt>
<pdfrwt beam="2">  1       21 0.27091487E+00 0.40492872E+03</pdfrwt>
<totfact> 0.14143232E+03</totfact>
</mgrwt>
</event>
<event>
 4    1  0.4991790E-002  0.4310352E+03  0.7818608E-02  0.1033533E+00
         21   -1    0    0  501  502  0.00000000000E+00  0.00000000000E+00  0.45763591990E+03  0.45763591990E+03  0.00000000000E+00 0. -1.
         21   -1    0    0  502  503 -0.00000000000E+00 -0.00000000000E+00 -0.41067541378E+03  0.41067541378E+03  0.00000000000E+00 0. -1.
    9000005    1    1    2  501    0 -0.72477883921E+02  0.14331184737E+03  0.69900013071E+02  0.43666616663E+03  0.40000000000E+03 0. -1.
   -9000005    1    1    2    0  503  0.72477883921E+02 -0.14331184737E+03 -0.22939506946E+02  0.43164516705E+03  0.40000000000E+03 0. -1.
<mgrwt>
<rscale>  2 0.43103518E+03</rscale>
<asrwt>0</asrwt>
<pdfrwt beam="1">  1       21 0.70405526E-01 0.43103518E+03</pdfrwt>
<pdfrwt beam="2">  1       21 0.63180833E-01 0.43103518E+03</pdfrwt>
<totfact> 0.37342235E+03</totfact>
</mgrwt>
</event>
<event>
 4    1  0.4991790E-002  0.4054918E+03  0.7818608E-02  0.1041894E+00
         21   -1    0    0  503  502  0.00000000000E+00  0.00000000000E+00  0.15403152147E+04  0.15403152147E+04  0.00000000000E+00 0. -1.
         21   -1    0    0  501  503 -0.00000000000E+00 -0.00000000000E+00 -0.15765513237E+03  0.15765513237E+03  0.00000000000E+00 0. -1.
    9000005    1    1    2  501    0  0.20713307058E+02 -0.63202475262E+02  0.20889279028E+03  0.45613571643E+03  0.40000000000E+03 0. -1.
   -9000005    1    1    2    0  502 -0.20713307058E+02  0.63202475262E+02  0.11737672920E+04  0.12418346306E+04  0.40000000000E+03 0. -1.
<mgrwt>
<rscale>  2 0.40549179E+03</rscale>
<asrwt>0</asrwt>
<pdfrwt beam="1">  1       21 0.23697156E+00 0.40549179E+03</pdfrwt>
<pdfrwt beam="2">  1       21 0.24254637E-01 0.40549179E+03</pdfrwt>
<totfact> 0.10764632E+03</totfact>
</mgrwt>
</event>
<event>
 4    1  0.4991790E-002  0.4677739E+03  0.7818608E-02  0.1022550E+00
         21   -1    0    0  503  502  0.00000000000E+00  0.00000000000E+00  0.53939844003E+03  0.53939844003E+03  0.00000000000E+00 0.  1.
         21   -1    0    0  501  503 -0.00000000000E+00 -0.00000000000E+00 -0.58164873030E+03  0.58164873030E+03  0.00000000000E+00 0.  1.
    9000005    1    1    2  501    0 -0.10562396814E+03  0.21830255024E+03 -0.32944805946E+03  0.57214373191E+03  0.40000000000E+03 0.  1.
   -9000005    1    1    2    0  502  0.10562396814E+03 -0.21830255024E+03  0.28719776919E+03  0.54890343842E+03  0.40000000000E+03 0.  1.
<mgrwt>
<rscale>  2 0.46777390E+03</rscale>
<asrwt>0</asrwt>
<pdfrwt beam="1">  1       21 0.82984376E-01 0.46777390E+03</pdfrwt>
<pdfrwt beam="2">  1       21 0.89484420E-01 0.46777390E+03</pdfrwt>
<totfact> 0.11414450E+03</totfact>
</mgrwt>
</event>
<event>
 4    1  0.4991790E-002  0.4399513E+03  0.7818608E-02  0.1030762E+00
         21   -1    0    0  501  502  0.00000000000E+00  0.00000000000E+00  0.47158826083E+03  0.47158826083E+03  0.00000000000E+00 0.  1.
         21   -1    0    0  502  503 -0.00000000000E+00 -0.00000000000E+00 -0.50591045444E+03  0.50591045444E+03  0.00000000000E+00 0.  1.
    9000005    1    1    2  501    0 -0.11803559408E+03 -0.14008834437E+03  0.19515909372E+03  0.48129431490E+03  0.40000000000E+03 0.  1.
   -9000005    1    1    2    0  503  0.11803559408E+03  0.14008834437E+03 -0.22948128734E+03  0.49620440036E+03  0.40000000000E+03 0.  1.
<mgrwt>
<rscale>  2 0.43995130E+03</rscale>
<asrwt>0</asrwt>
<pdfrwt beam="1">  1       21 0.72552040E-01 0.43995130E+03</pdfrwt>
<pdfrwt beam="2">  1       21 0.77832378E-01 0.43995130E+03</pdfrwt>
<totfact> 0.21746096E+03</totfact>
</mgrwt>
</event>
<event>
 4    1  0.4991790E-002  0.6844585E+03  0.7818608E-02  0.9744186E-01
         21   -1    0    0  503  502  0.00000000000E+00  0.00000000000E+00  0.16142956753E+04  0.16142956753E+04  0.00000000000E+00 0.  1.
         21   -1    0    0  501  503 -0.00000000000E+00 -0.00000000000E+00 -0.40176910650E+03  0.40176910650E+03  0.00000000000E+00 0.  1.
    9000005    1    1    2  501    0  0.34740819347E+03 -0.43334855013E+03  0.75084972891E+02  0.68856457355E+03  0.40000000000E+03 0.  1.
   -9000005    1    1    2    0  502 -0.34740819347E+03  0.43334855013E+03  0.11374415959E+04  0.13275002082E+04  0.40000000000E+03 0.  1.
<mgrwt>
<rscale>  2 0.68445849E+03</rscale>
<asrwt>0</asrwt>
<pdfrwt beam="1">  1       21 0.24835318E+00 0.68445849E+03</pdfrwt>
<pdfrwt beam="2">  1       21 0.61810633E-01 0.68445849E+03</pdfrwt>
<totfact> 0.11695894E+02</totfact>
</mgrwt>
</event>
<event>
 4    1  0.4991790E-002  0.5257776E+03  0.7818608E-02  0.1007261E+00
         21   -1    0    0  501  502  0.00000000000E+00  0.00000000000E+00  0.49859793025E+03  0.49859793025E+03  0.00000000000E+00 0.  1.
         21   -1    0    0  502  503 -0.00000000000E+00 -0.00000000000E+00 -0.65189766419E+03  0.65189766419E+03  0.00000000000E+00 0. -1.
    9000005    1    1    2  501    0  0.25936266525E+03 -0.22175014343E+03  0.14577101919E+03  0.54561094955E+03  0.40000000000E+03 0.  1.
   -9000005    1    1    2    0  503 -0.25936266525E+03  0.22175014343E+03 -0.29907075313E+03  0.60488464488E+03  0.40000000000E+03 0. -1.
<mgrwt>
<rscale>  2 0.52577763E+03</rscale>
<asrwt>0</asrwt>
<pdfrwt beam="1">  1       21 0.76707375E-01 0.52577763E+03</pdfrwt>
<pdfrwt beam="2">  1       21 0.10029195E+00 0.52577763E+03</pdfrwt>
<totfact> 0.10193404E+03</totfact>
</mgrwt>
</event>
<event>
 4    1  0.4991790E-002  0.4066944E+03  0.7818608E-02  0.1041486E+00
         21   -1    0    0  503  502  0.00000000000E+00  0.00000000000E+00  0.22666121384E+03  0.22666121384E+03  0.00000000000E+00 0.  1.
         21   -1    0    0  501  503 -0.00000000000E+00 -0.00000000000E+00 -0.12306861754E+04  0.12306861754E+04  0.00000000000E+00 0.  1.
    9000005    1    1    2  501    0  0.50621326847E+02  0.53270847916E+02 -0.96691464212E+03  0.10489634060E+04  0.40000000000E+03 0.  1.
   -9000005    1    1    2    0  502 -0.50621326847E+02 -0.53270847916E+02 -0.37110319447E+02  0.40838398325E+03  0.40000000000E+03 0.  1.
<mgrwt>
<rscale>  2 0.40669436E+03</rscale>
<asrwt>0</asrwt>
<pdfrwt beam="1">  1       21 0.34870956E-01 0.40669436E+03</pdfrwt>
<pdfrwt beam="2">  1       21 0.18933633E+00 0.40669436E+03</pdfrwt>
<totfact> 0.10678079E+03</totfact>
</mgrwt>
</event>
<event>
 4    1  0.4991790E-002  0.4551233E+03  0.7818608E-02  0.1026205E+00
         21   -1    0    0  501  502  0.00000000000E+00  0.00000000000E+00  0.17360933541E+03  0.17360933541E+03  0.00000000000E+00 0. -1.
         21   -1    0    0  502  503 -0.00000000000E+00 -0.00000000000E+00 -0.11947499792E+04  0.11947499792E+04  0.00000000000E+00 0. -1.
    9000005    1    1    2  501    0  0.39624676502E+02 -0.21346460884E+03 -0.48532092589E+03  0.66533724931E+03  0.40000000000E+03 0. -1.
   -9000005    1    1    2    0  503 -0.39624676502E+02  0.21346460884E+03 -0.53581971794E+03  0.70302206534E+03  0.40000000000E+03 0. -1.
<mgrwt>
<rscale>  2 0.45512334E+03</rscale>
<asrwt>0</asrwt>
<pdfrwt beam="1">  1       21 0.26709129E-01 0.45512334E+03</pdfrwt>
<pdfrwt beam="2">  1       21 0.18380769E+00 0.45512334E+03</pdfrwt>
<totfact> 0.19384635E+03</totfact>
</mgrwt>
</event>
<event>
 4    1  0.4991790E-002  0.4098232E+03  0.7818608E-02  0.1040430E+00
         21   -1    0    0  503  502  0.00000000000E+00  0.00000000000E+00  0.17220848973E+03  0.17220848973E+03  0.00000000000E+00 0. -1.
         21   -1    0    0  501  503 -0.00000000000E+00 -0.00000000000E+00 -0.97780618642E+03  0.97780618642E+03  0.00000000000E+00 0. -1.
    9000005    1    1    2  501    0 -0.76472369241E+02 -0.45902361309E+02 -0.37369178881E+03  0.55461752862E+03  0.40000000000E+03 0. -1.
   -9000005    1    1    2    0  502  0.76472369241E+02  0.45902361309E+02 -0.43190590787E+03  0.59539714753E+03  0.40000000000E+03 0. -1.
<mgrwt>
<rscale>  2 0.40982319E+03</rscale>
<asrwt>0</asrwt>
<pdfrwt beam="1">  1       21 0.26493614E-01 0.40982319E+03</pdfrwt>
<pdfrwt beam="2">  1       21 0.15043172E+00 0.40982319E+03</pdfrwt>
<totfact> 0.35330732E+03</totfact>
</mgrwt>
</event>
<event>
 4    1  0.4991790E-002  0.4413343E+03  0.7818608E-02  0.1030338E+00
         21   -1    0    0  503  502  0.00000000000E+00  0.00000000000E+00  0.14094974476E+03  0.14094974476E+03  0.00000000000E+00 0. -1.
         21   -1    0    0  501  503 -0.00000000000E+00 -0.00000000000E+00 -0.17459334768E+04  0.17459334768E+04  0.00000000000E+00 0. -1.
    9000005    1    1    2  501    0 -0.15998155808E+03 -0.95822076896E+02 -0.12332984681E+04  0.13098859038E+04  0.40000000000E+03 0. -1.
   -9000005    1    1    2    0  502  0.15998155808E+03  0.95822076896E+02 -0.37168526389E+03  0.57699731779E+03  0.40000000000E+03 0. -1.
<mgrwt>
<rscale>  2 0.44133431E+03</rscale>
<asrwt>0</asrwt>
<pdfrwt beam="1">  1       21 0.21684577E-01 0.44133431E+03</pdfrwt>
<pdfrwt beam="2">  1       21 0.26860514E+00 0.44133431E+03</pdfrwt>
<totfact> 0.83945468E+02</totfact>
</mgrwt>
</event>
<event>
 4    1  0.4991790E-002  0.4087488E+03  0.7818608E-02  0.1040792E+00
         21   -1    0    0  503  502  0.00000000000E+00  0.00000000000E+00  0.37333492618E+03  0.37333492618E+03  0.00000000000E+00 0. -1.
         21   -1    0    0  501  503 -0.00000000000E+00 -0.00000000000E+00 -0.65792083323E+03  0.65792083323E+03  0.00000000000E+00 0. -1.
    9000005    1    1    2  501    0  0.83066238636E+02 -0.13251925138E+02 -0.43388198167E+03  0.59609494843E+03  0.40000000000E+03 0.  1.
   -9000005    1    1    2    0  502 -0.83066238636E+02  0.13251925138E+02  0.14929607462E+03  0.43516081099E+03  0.40000000000E+03 0.  1.
<mgrwt>
<rscale>  2 0.40874884E+03</rscale>
<asrwt>0</asrwt>
<pdfrwt beam="1">  1       21 0.57436143E-01 0.40874884E+03</pdfrwt>
<pdfrwt beam="2">  1       21 0.10121859E+00 0.40874884E+03</pdfrwt>
<totfact> 0.19883585E+03</totfact>
</mgrwt>
</event>
<event>
 4    1  0.4991790E-002  0.4153643E+03  0.7818608E-02  0.1038586E+00
         21   -1    0    0  501  502  0.00000000000E+00  0.00000000000E+00  0.64767641502E+03  0.64767641502E+03  0.00000000000E+00 0. -1.
         21   -1    0    0  502  503 -0.00000000000E+00 -0.00000000000E+00 -0.28171202083E+03  0.28171202083E+03  0.00000000000E+00 0. -1.
    9000005    1    1    2  501    0 -0.91111474080E+02  0.65009248648E+02  0.29139388208E+03  0.50738338328E+03  0.40000000000E+03 0. -1.
   -9000005    1    1    2    0  503  0.91111474080E+02 -0.65009248648E+02  0.74570512111E+02  0.42200505257E+03  0.40000000000E+03 0. -1.
<mgrwt>
<rscale>  2 0.41536430E+03</rscale>
<asrwt>0</asrwt>
<pdfrwt beam="1">  1       21 0.99642525E-01 0.41536430E+03</pdfrwt>
<pdfrwt beam="2">  1       21 0.43340311E-01 0.41536430E+03</pdfrwt>
<totfact> 0.37461178E+03</totfact>
</mgrwt>
</event>
<event>
 4    1  0.4991790E-002  0.4834178E+03  0.7818608E-02  0.1018200E+00
         21   -1    0    0  503  502  0.00000000000E+00  0.00000000000E+00  0.14573351213E+04  0.14573351213E+04  0.00000000000E+00 0.  1.
         21   -1    0    0  501  503 -0.00000000000E+00 -0.00000000000E+00 -0.22885690783E+03  0.22885690783E+03  0.00000000000E+00 0. -1.
    9000005    1    1    2  501    0 -0.43003195214E+02  0.26803644049E+03  0.15298274840E+03  0.50704687114E+03  0.40000000000E+03 0. -1.
   -9000005    1    1    2    0  502  0.43003195214E+02 -0.26803644049E+03  0.10754954651E+04  0.11791451580E+04  0.40000000000E+03 0.  1.
<mgrwt>
<rscale>  2 0.48341784E+03</rscale>
<asrwt>0</asrwt>
<pdfrwt beam="1">  1       21 0.22420540E+00 0.48341784E+03</pdfrwt>
<pdfrwt beam="2">  1       21 0.35208756E-01 0.48341784E+03</pdfrwt>
<totfact> 0.59526765E+02</totfact>
</mgrwt>
</event>
<event>
 4    1  0.4991790E-002  0.4315996E+03  0.7818608E-02  0.1033356E+00
         21   -1    0    0  503  502  0.00000000000E+00  0.00000000000E+00  0.15016186900E+03  0.15016186900E+03  0.00000000000E+00 0.  1.
         21   -1    0    0  501  503 -0.00000000000E+00 -0.00000000000E+00 -0.13643846107E+04  0.13643846107E+04  0.00000000000E+00 0.  1.
    9000005    1    1    2  501    0 -0.16167141184E+03  0.11855438017E+02 -0.37893803737E+03  0.57434504698E+03  0.40000000000E+03 0.  1.
   -9000005    1    1    2    0  502  0.16167141184E+03 -0.11855438017E+02 -0.83528470428E+03  0.94020143268E+03  0.40000000000E+03 0.  1.
<mgrwt>
<rscale>  2 0.43159958E+03</rscale>
<asrwt>0</asrwt>
<pdfrwt beam="1">  1       21 0.23101825E-01 0.43159958E+03</pdfrwt>
<pdfrwt beam="2">  1       21 0.20990533E+00 0.43159958E+03</pdfrwt>
<totfact> 0.17336113E+03</totfact>
</mgrwt>
</event>
<event>
 4    1  0.4991790E-002  0.4147234E+03  0.7818608E-02  0.1038797E+00
         21   -1    0    0  503  502  0.00000000000E+00  0.00000000000E+00  0.79219585389E+03  0.79219585389E+03  0.00000000000E+00 0. -1.
         21   -1    0    0  501  503 -0.00000000000E+00 -0.00000000000E+00 -0.28971839512E+03  0.28971839512E+03  0.00000000000E+00 0. -1.
    9000005    1    1    2  501    0  0.35019472390E+02 -0.10377434344E+03 -0.19569150483E+02  0.41518481361E+03  0.40000000000E+03 0. -1.
   -9000005    1    1    2    0  502 -0.35019472390E+02  0.10377434344E+03  0.52204660925E+03  0.66672943541E+03  0.40000000000E+03 0. -1.
<mgrwt>
<rscale>  2 0.41472338E+03</rscale>
<asrwt>0</asrwt>
<pdfrwt beam="1">  1       21 0.12187628E+00 0.41472338E+03</pdfrwt>
<pdfrwt beam="2">  1       21 0.44572061E-01 0.41472338E+03</pdfrwt>
<totfact> 0.21446700E+03</totfact>
</mgrwt>
</event>
<event>
 4    1  0.4991790E-002  0.4258038E+03  0.7818608E-02  0.1035194E+00
         21   -1    0    0  503  502  0.00000000000E+00  0.00000000000E+00  0.69538048742E+03  0.69538048742E+03  0.00000000000E+00 0.  1.
         21   -1    0    0  501  503 -0.00000000000E+00 -0.00000000000E+00 -0.30768437215E+03  0.30768437215E+03  0.00000000000E+00 0.  1.
    9000005    1    1    2  501    0  0.63659498748E+02 -0.13136334509E+03 -0.20675273515E+01  0.42580880085E+03  0.40000000000E+03 0.  1.
   -9000005    1    1    2    0  502 -0.63659498748E+02  0.13136334509E+03  0.38976364262E+03  0.57725605872E+03  0.40000000000E+03 0.  1.
<mgrwt>
<rscale>  2 0.42580378E+03</rscale>
<asrwt>0</asrwt>
<pdfrwt beam="1">  1       21 0.10698161E+00 0.42580378E+03</pdfrwt>
<pdfrwt beam="2">  1       21 0.47336058E-01 0.42580378E+03</pdfrwt>
<totfact> 0.26068694E+03</totfact>
</mgrwt>
</event>
<event>
 4    1  0.4991790E-002  0.4378884E+03  0.7818608E-02  0.1031397E+00
         21   -1    0    0  501  502  0.00000000000E+00  0.00000000000E+00  0.13877072943E+03  0.13877072943E+03  0.00000000000E+00 0. -1.
         21   -1    0    0  502  503 -0.00000000000E+00 -0.00000000000E+00 -0.13851290106E+04  0.13851290106E+04  0.00000000000E+00 0. -1.
    9000005    1    1    2  501    0  0.12315072040E+02 -0.17774863343E+03 -0.66082150203E+03  0.79273658628E+03  0.40000000000E+03 0. -1.
   -9000005    1    1    2    0  503 -0.12315072040E+02  0.17774863343E+03 -0.58553677915E+03  0.73116315376E+03  0.40000000000E+03 0. -1.
<mgrwt>
<rscale>  2 0.43788838E+03</rscale>
<asrwt>0</asrwt>
<pdfrwt beam="1">  1       21 0.21349342E-01 0.43788838E+03</pdfrwt>
<pdfrwt beam="2">  1       21 0.21309678E+00 0.43788838E+03</pdfrwt>
<totfact> 0.19178512E+03</totfact>
</mgrwt>
</event>
<event>
 4    1  0.4991790E-002  0.8064550E+03  0.7818608E-02  0.9550720E-01
         21   -1    0    0  503  502  0.00000000000E+00  0.00000000000E+00  0.54438333152E+03  0.54438333152E+03  0.00000000000E+00 0.  1.
         21   -1    0    0  501  503 -0.00000000000E+00 -0.00000000000E+00 -0.13522181546E+04  0.13522181546E+04  0.00000000000E+00 0. -1.
    9000005    1    1    2  501    0 -0.54578195420E+03 -0.43873884642E+03 -0.80248637181E+02  0.81043788205E+03  0.40000000000E+03 0. -1.
   -9000005    1    1    2    0  502  0.54578195420E+03  0.43873884642E+03 -0.72758618589E+03  0.10861636041E+04  0.40000000000E+03 0.  1.
<mgrwt>
<rscale>  2 0.80645503E+03</rscale>
<asrwt>0</asrwt>
<pdfrwt beam="1">  1       21 0.83751284E-01 0.80645503E+03</pdfrwt>
<pdfrwt beam="2">  1       21 0.20803356E+00 0.80645503E+03</pdfrwt>
<totfact> 0.10196768E+02</totfact>
</mgrwt>
</event>
<event>
 4    1  0.4991790E-002  0.4039805E+03  0.7818608E-02  0.1042410E+00
         21   -1    0    0  501  502  0.00000000000E+00  0.00000000000E+00  0.85841910484E+03  0.85841910484E+03  0.00000000000E+00 0. -1.
         21   -1    0    0  502  503 -0.00000000000E+00 -0.00000000000E+00 -0.13127474543E+04  0.13127474543E+04  0.00000000000E+00 0. -1.
    9000005    1    1    2  501    0 -0.47885562079E+02 -0.30119832398E+02  0.77673691445E+03  0.87551154511E+03  0.40000000000E+03 0. -1.
   -9000005    1    1    2    0  503  0.47885562079E+02  0.30119832398E+02 -0.12310652639E+04  0.12956550140E+04  0.40000000000E+03 0. -1.
<mgrwt>
<rscale>  2 0.40398048E+03</rscale>
<asrwt>0</asrwt>
<pdfrwt beam="1">  1       21 0.13206448E+00 0.40398048E+03</pdfrwt>
<pdfrwt beam="2">  1       21 0.20196115E+00 0.40398048E+03</pdfrwt>
<totfact> 0.43496710E+01</totfact>
</mgrwt>
</event>
<event>
 4    1  0.4991790E-002  0.6441770E+03  0.7818608E-02  0.9817767E-01
         21   -1    0    0  503  502  0.00000000000E+00  0.00000000000E+00  0.13679022270E+04  0.13679022270E+04  0.00000000000E+00 0. -1.
         21   -1    0    0  501  503 -0.00000000000E+00 -0.00000000000E+00 -0.48343204541E+03  0.48343204541E+03  0.00000000000E+00 0.  1.
    9000005    1    1    2  501    0 -0.44343426426E+03 -0.24151605789E+03 -0.12271853946E+03  0.65576199407E+03  0.40000000000E+03 0.  1.
   -9000005    1    1    2    0  502  0.44343426426E+03  0.24151605789E+03  0.10071887211E+04  0.11955722783E+04  0.40000000000E+03 0. -1.
<mgrwt>
<rscale>  2 0.64417696E+03</rscale>
<asrwt>0</asrwt>
<pdfrwt beam="1">  1       21 0.21044650E+00 0.64417696E+03</pdfrwt>
<pdfrwt beam="2">  1       21 0.74374161E-01 0.64417696E+03</pdfrwt>
<totfact> 0.13688823E+02</totfact>
</mgrwt>
</event>
<event>
 4    1  0.4991790E-002  0.4657642E+03  0.7818608E-02  0.1023123E+00
         21   -1    0    0  503  502  0.00000000000E+00  0.00000000000E+00  0.39634202724E+03  0.39634202724E+03  0.00000000000E+00 0.  1.
         21   -1    0    0  501  503 -0.00000000000E+00 -0.00000000000E+00 -0.55242202150E+03  0.55242202150E+03  0.00000000000E+00 0.  1.
    9000005    1    1    2  501    0  0.19776192712E+03  0.13351596011E+03 -0.32567678390E+02  0.46690142974E+03  0.40000000000E+03 0. -1.
   -9000005    1    1    2    0  502 -0.19776192712E+03 -0.13351596011E+03 -0.12351231587E+03  0.48186261900E+03  0.40000000000E+03 0. -1.
<mgrwt>
<rscale>  2 0.46576420E+03</rscale>
<asrwt>0</asrwt>
<pdfrwt beam="1">  1       21 0.60975697E-01 0.46576420E+03</pdfrwt>
<pdfrwt beam="2">  1       21 0.84988002E-01 0.46576420E+03</pdfrwt>
<totfact> 0.25895818E+03</totfact>
</mgrwt>
</event>
<event>
 4    1  0.4991790E-002  0.4369952E+03  0.7818608E-02  0.1031673E+00
         21   -1    0    0  501  502  0.00000000000E+00  0.00000000000E+00  0.17968090515E+03  0.17968090515E+03  0.00000000000E+00 0.  1.
         21   -1    0    0  502  503 -0.00000000000E+00 -0.00000000000E+00 -0.14339861182E+04  0.14339861182E+04  0.00000000000E+00 0. -1.
    9000005    1    1    2  501    0 -0.84043937809E+02 -0.15460081449E+03 -0.21665791264E+03  0.48775551912E+03  0.40000000000E+03 0.  1.
   -9000005    1    1    2    0  503  0.84043937809E+02  0.15460081449E+03 -0.10376473004E+04  0.11259115042E+04  0.40000000000E+03 0. -1.
<mgrwt>
<rscale>  2 0.43699519E+03</rscale>
<asrwt>0</asrwt>
<pdfrwt beam="1">  1       21 0.27643216E-01 0.43699519E+03</pdfrwt>
<pdfrwt beam="2">  1       21 0.22061325E+00 0.43699519E+03</pdfrwt>
<totfact> 0.10401063E+03</totfact>
</mgrwt>
</event>
<event>
 4    1  0.4991790E-002  0.4365799E+03  0.7818608E-02  0.1031801E+00
         21   -1    0    0  503  502  0.00000000000E+00  0.00000000000E+00  0.15156066248E+03  0.15156066248E+03  0.00000000000E+00 0. -1.
         21   -1    0    0  501  503 -0.00000000000E+00 -0.00000000000E+00 -0.20544612986E+04  0.20544612986E+04  0.00000000000E+00 0. -1.
    9000005    1    1    2  501    0 -0.13419823011E+03  0.11221793593E+03 -0.16383975944E+04  0.16955673703E+04  0.40000000000E+03 0. -1.
   -9000005    1    1    2    0  502  0.13419823011E+03 -0.11221793593E+03 -0.26450304174E+03  0.51045459073E+03  0.40000000000E+03 0. -1.
<mgrwt>
<rscale>  2 0.43657992E+03</rscale>
<asrwt>0</asrwt>
<pdfrwt beam="1">  1       21 0.23317027E-01 0.43657992E+03</pdfrwt>
<pdfrwt beam="2">  1       21 0.31607094E+00 0.43657992E+03</pdfrwt>
<totfact> 0.37926587E+02</totfact>
</mgrwt>
</event>
<event>
 4    1  0.4991790E-002  0.4963924E+03  0.7818608E-02  0.1014725E+00
         21   -1    0    0  501  502  0.00000000000E+00  0.00000000000E+00  0.11059564582E+04  0.11059564582E+04  0.00000000000E+00 0. -1.
         21   -1    0    0  502  503 -0.00000000000E+00 -0.00000000000E+00 -0.22299022054E+03  0.22299022054E+03  0.00000000000E+00 0.  1.
    9000005    1    1    2  501    0 -0.17745080846E+03  0.23434300182E+03  0.46096707794E+03  0.67741868801E+03  0.40000000000E+03 0. -1.
   -9000005    1    1    2    0  503  0.17745080846E+03 -0.23434300182E+03  0.42199915976E+03  0.65152799078E+03  0.40000000000E+03 0. -1.
<mgrwt>
<rscale>  2 0.49639242E+03</rscale>
<asrwt>0</asrwt>
<pdfrwt beam="1">  1       21 0.17014714E+00 0.49639242E+03</pdfrwt>
<pdfrwt beam="2">  1       21 0.34306188E-01 0.49639242E+03</pdfrwt>
<totfact> 0.14495794E+03</totfact>
</mgrwt>
</event>
<event>
 4    1  0.4991790E-002  0.4964416E+03  0.7818608E-02  0.1014712E+00
         21   -1    0    0  503  502  0.00000000000E+00  0.00000000000E+00  0.79477817302E+03  0.79477817302E+03  0.00000000000E+00 0. -1.
         21   -1    0    0  501  503 -0.00000000000E+00 -0.00000000000E+00 -0.35762964523E+03  0.35762964523E+03  0.00000000000E+00 0.  1.
    9000005    1    1    2  501    0 -0.51755519160E+01 -0.29398547476E+03  0.42865145164E+03  0.65589352238E+03  0.40000000000E+03 0. -1.
   -9000005    1    1    2    0  502  0.51755519160E+01  0.29398547476E+03  0.84970761553E+01  0.49651429588E+03  0.40000000000E+03 0.  1.
<mgrwt>
<rscale>  2 0.49644158E+03</rscale>
<asrwt>0</asrwt>
<pdfrwt beam="1">  1       21 0.12227357E+00 0.49644158E+03</pdfrwt>
<pdfrwt beam="2">  1       21 0.55019945E-01 0.49644158E+03</pdfrwt>
<totfact> 0.13170309E+03</totfact>
</mgrwt>
</event>
<event>
 4    1  0.4991790E-002  0.4875379E+03  0.7818608E-02  0.1017084E+00
         21   -1    0    0  503  502  0.00000000000E+00  0.00000000000E+00  0.13608671032E+03  0.13608671032E+03  0.00000000000E+00 0. -1.
         21   -1    0    0  501  503 -0.00000000000E+00 -0.00000000000E+00 -0.19516956462E+04  0.19516956462E+04  0.00000000000E+00 0. -1.
    9000005    1    1    2  501    0  0.14125761231E+03 -0.24029035463E+03 -0.12461771943E+04  0.13381519970E+04  0.40000000000E+03 0. -1.
   -9000005    1    1    2    0  502 -0.14125761231E+03  0.24029035463E+03 -0.56943174164E+03  0.74963035955E+03  0.40000000000E+03 0. -1.
<mgrwt>
<rscale>  2 0.48753786E+03</rscale>
<asrwt>0</asrwt>
<pdfrwt beam="1">  1       21 0.20936416E-01 0.48753786E+03</pdfrwt>
<pdfrwt beam="2">  1       21 0.30026088E+00 0.48753786E+03</pdfrwt>
<totfact> 0.56438733E+02</totfact>
</mgrwt>
</event>
<event>
 4    1  0.4991790E-002  0.4167980E+03  0.7818608E-02  0.1038114E+00
         21   -1    0    0  501  502  0.00000000000E+00  0.00000000000E+00  0.16339993486E+04  0.16339993486E+04  0.00000000000E+00 0.  1.
         21   -1    0    0  502  503 -0.00000000000E+00 -0.00000000000E+00 -0.42954258298E+03  0.42954258298E+03  0.00000000000E+00 0.  1.
    9000005    1    1    2  501    0 -0.11149302884E+03  0.35914716975E+02  0.14972501707E+04  0.15541810178E+04  0.40000000000E+03 0.  1.
   -9000005    1    1    2    0  503  0.11149302884E+03 -0.35914716975E+02 -0.29279340512E+03  0.50936091375E+03  0.40000000000E+03 0.  1.
<mgrwt>
<rscale>  2 0.41679799E+03</rscale>
<asrwt>0</asrwt>
<pdfrwt beam="1">  1       21 0.25138451E+00 0.41679799E+03</pdfrwt>
<pdfrwt beam="2">  1       21 0.66083475E-01 0.41679799E+03</pdfrwt>
<totfact> 0.11011681E+02</totfact>
</mgrwt>
</event>
<event>
 4    1  0.4991790E-002  0.4197144E+03  0.7818608E-02  0.1037159E+00
         21   -1    0    0  501  502  0.00000000000E+00  0.00000000000E+00  0.70801828299E+03  0.70801828299E+03  0.00000000000E+00 0.  1.
         21   -1    0    0  502  503 -0.00000000000E+00 -0.00000000000E+00 -0.75813695091E+03  0.75813695091E+03  0.00000000000E+00 0.  1.
    9000005    1    1    2  501    0  0.11291549003E+03  0.58397846085E+02  0.57580378455E+03  0.71253786890E+03  0.40000000000E+03 0.  1.
   -9000005    1    1    2    0  503 -0.11291549003E+03 -0.58397846085E+02 -0.62592245247E+03  0.75361736499E+03  0.40000000000E+03 0.  1.
<mgrwt>
<rscale>  2 0.41971445E+03</rscale>
<asrwt>0</asrwt>
<pdfrwt beam="1">  1       21 0.10892589E+00 0.41971445E+03</pdfrwt>
<pdfrwt beam="2">  1       21 0.11663645E+00 0.41971445E+03</pdfrwt>
<totfact> 0.31807558E+02</totfact>
</mgrwt>
</event>
<event>
 4    1  0.4991790E-002  0.4718443E+03  0.7818608E-02  0.1021401E+00
         21   -1    0    0  501  502  0.00000000000E+00  0.00000000000E+00  0.15255417440E+04  0.15255417440E+04  0.00000000000E+00 0. -1.
         21   -1    0    0  502  503 -0.00000000000E+00 -0.00000000000E+00 -0.35709234420E+03  0.35709234420E+03  0.00000000000E+00 0. -1.
    9000005    1    1    2  501    0  0.24743841562E+03 -0.37566859919E+02  0.13080670007E+04  0.13905669048E+04  0.40000000000E+03 0. -1.
   -9000005    1    1    2    0  503 -0.24743841562E+03  0.37566859919E+02 -0.13961760088E+03  0.49206718339E+03  0.40000000000E+03 0. -1.
<mgrwt>
<rscale>  2 0.47184429E+03</rscale>
<asrwt>0</asrwt>
<pdfrwt beam="1">  1       21 0.23469873E+00 0.47184429E+03</pdfrwt>
<pdfrwt beam="2">  1       21 0.54937285E-01 0.47184429E+03</pdfrwt>
<totfact> 0.20268870E+02</totfact>
</mgrwt>
</event>
<event>
 4    1  0.4991790E-002  0.4274320E+03  0.7818608E-02  0.1034674E+00
         21   -1    0    0  501  502  0.00000000000E+00  0.00000000000E+00  0.36000013449E+03  0.36000013449E+03  0.00000000000E+00 0. -1.
         21   -1    0    0  502  503 -0.00000000000E+00 -0.00000000000E+00 -0.13541320420E+04  0.13541320420E+04  0.00000000000E+00 0. -1.
    9000005    1    1    2  501    0  0.11967861914E+03 -0.91515746742E+02  0.18062635117E+03  0.46403015260E+03  0.40000000000E+03 0. -1.
   -9000005    1    1    2    0  503 -0.11967861914E+03  0.91515746742E+02 -0.11747582586E+04  0.12501020238E+04  0.40000000000E+03 0. -1.
<mgrwt>
<rscale>  2 0.42743199E+03</rscale>
<asrwt>0</asrwt>
<pdfrwt beam="1">  1       21 0.55384636E-01 0.42743199E+03</pdfrwt>
<pdfrwt beam="2">  1       21 0.20832801E+00 0.42743199E+03</pdfrwt>
<totfact> 0.30065416E+02</totfact>
</mgrwt>
</event>
<event>
 4    1  0.4991790E-002  0.4204905E+03  0.7818608E-02  0.1036907E+00
         21   -1    0    0  501  502  0.00000000000E+00  0.00000000000E+00  0.11484642226E+03  0.11484642226E+03  0.00000000000E+00 0. -1.
         21   -1    0    0  502  503 -0.00000000000E+00 -0.00000000000E+00 -0.17112476944E+04  0.17112476944E+04  0.00000000000E+00 0. -1.
    9000005    1    1    2  501    0  0.41973912230E+02 -0.12268042736E+03 -0.10874108258E+04  0.11658793250E+04  0.40000000000E+03 0. -1.
   -9000005    1    1    2    0  503 -0.41973912230E+02  0.12268042736E+03 -0.50899044639E+03  0.66021479163E+03  0.40000000000E+03 0. -1.
<mgrwt>
<rscale>  2 0.42049054E+03</rscale>
<asrwt>0</asrwt>
<pdfrwt beam="1">  1       21 0.17668680E-01 0.42049054E+03</pdfrwt>
<pdfrwt beam="2">  1       21 0.26326888E+00 0.42049054E+03</pdfrwt>
<totfact> 0.13485940E+03</totfact>
</mgrwt>
</event>
<event>
 4    1  0.4991790E-002  0.4081576E+03  0.7818608E-02  0.1040991E+00
         21   -1    0    0  501  502  0.00000000000E+00  0.00000000000E+00  0.44363297866E+03  0.44363297866E+03  0.00000000000E+00 0. -1.
         21   -1    0    0  502  503 -0.00000000000E+00 -0.00000000000E+00 -0.57431566702E+03  0.57431566702E+03  0.00000000000E+00 0.  1.
    9000005    1    1    2  501    0 -0.80942811508E+02 -0.63947607785E+01  0.23410915648E+03  0.47053132611E+03  0.40000000000E+03 0. -1.
   -9000005    1    1    2    0  503  0.80942811508E+02  0.63947607785E+01 -0.36479184484E+03  0.54741731957E+03  0.40000000000E+03 0.  1.
<mgrwt>
<rscale>  2 0.40815761E+03</rscale>
<asrwt>0</asrwt>
<pdfrwt beam="1">  1       21 0.68251227E-01 0.40815761E+03</pdfrwt>
<pdfrwt beam="2">  1       21 0.88356257E-01 0.40815761E+03</pdfrwt>
<totfact> 0.18818225E+03</totfact>
</mgrwt>
</event>
<event>
 4    1  0.4991790E-002  0.5238338E+03  0.7818608E-02  0.1007739E+00
         21   -1    0    0  503  502  0.00000000000E+00  0.00000000000E+00  0.10826761870E+04  0.10826761870E+04  0.00000000000E+00 0.  1.
         21   -1    0    0  501  503 -0.00000000000E+00 -0.00000000000E+00 -0.12883412374E+04  0.12883412374E+04  0.00000000000E+00 0.  1.
    9000005    1    1    2  501    0 -0.17967615819E+03 -0.28656300511E+03 -0.11653525318E+04  0.12776730415E+04  0.40000000000E+03 0.  1.
   -9000005    1    1    2    0  502  0.17967615819E+03  0.28656300511E+03  0.95968748138E+03  0.10933443829E+04  0.40000000000E+03 0.  1.
<mgrwt>
<rscale>  2 0.52383383E+03</rscale>
<asrwt>0</asrwt>
<pdfrwt beam="1">  1       21 0.16656557E+00 0.52383383E+03</pdfrwt>
<pdfrwt beam="2">  1       21 0.19820634E+00 0.52383383E+03</pdfrwt>
<totfact> 0.22755619E+01</totfact>
</mgrwt>
</event>
<event>
 4    1  0.4991790E-002  0.4302301E+03  0.7818608E-02  0.1033787E+00
         21   -1    0    0  503  502  0.00000000000E+00  0.00000000000E+00  0.13788666652E+03  0.13788666652E+03  0.00000000000E+00 0. -1.
         21   -1    0    0  501  503 -0.00000000000E+00 -0.00000000000E+00 -0.29823907785E+04  0.29823907785E+04  0.00000000000E+00 0. -1.
    9000005    1    1    2  501    0  0.27641750862E+02 -0.15599308845E+03 -0.25791705154E+04  0.26148075374E+04  0.40000000000E+03 0. -1.
   -9000005    1    1    2    0  502 -0.27641750862E+02  0.15599308845E+03 -0.26533359652E+03  0.50546990759E+03  0.40000000000E+03 0. -1.
<mgrwt>
<rscale>  2 0.43023007E+03</rscale>
<asrwt>0</asrwt>
<pdfrwt beam="1">  1       21 0.21213332E-01 0.43023007E+03</pdfrwt>
<pdfrwt beam="2">  1       21 0.45882937E+00 0.43023007E+03</pdfrwt>
<totfact> 0.56481811E+01</totfact>
</mgrwt>
</event>
<event>
 4    1  0.4991790E-002  0.4220730E+03  0.7818608E-02  0.1036394E+00
         21   -1    0    0  501  502  0.00000000000E+00  0.00000000000E+00  0.26285388343E+03  0.26285388343E+03  0.00000000000E+00 0. -1.
         21   -1    0    0  502  503 -0.00000000000E+00 -0.00000000000E+00 -0.94821958244E+03  0.94821958244E+03  0.00000000000E+00 0. -1.
    9000005    1    1    2  501    0 -0.12747863596E+03  0.43529385476E+02 -0.19270743112E+02  0.42251268805E+03  0.40000000000E+03 0. -1.
   -9000005    1    1    2    0  503  0.12747863596E+03 -0.43529385476E+02 -0.66609495590E+03  0.78856077781E+03  0.40000000000E+03 0. -1.
<mgrwt>
<rscale>  2 0.42207299E+03</rscale>
<asrwt>0</asrwt>
<pdfrwt beam="1">  1       21 0.40439058E-01 0.42207299E+03</pdfrwt>
<pdfrwt beam="2">  1       21 0.14587994E+00 0.42207299E+03</pdfrwt>
<totfact> 0.16356305E+03</totfact>
</mgrwt>
</event>
<event>
 4    1  0.4991790E-002  0.4570508E+03  0.7818608E-02  0.1025640E+00
         21   -1    0    0  503  502  0.00000000000E+00  0.00000000000E+00  0.50232387570E+03  0.50232387570E+03  0.00000000000E+00 0.  1.
         21   -1    0    0  501  503 -0.00000000000E+00 -0.00000000000E+00 -0.41646928690E+03  0.41646928690E+03  0.00000000000E+00 0.  1.
    9000005    1    1    2  501    0 -0.19604361419E+03  0.10228557893E+03  0.60526511060E+02  0.46104110106E+03  0.40000000000E+03 0.  1.
   -9000005    1    1    2    0  502  0.19604361419E+03 -0.10228557893E+03  0.25328077736E+02  0.45775206154E+03  0.40000000000E+03 0.  1.
<mgrwt>
<rscale>  2 0.45705080E+03</rscale>
<asrwt>0</asrwt>
<pdfrwt beam="1">  1       21 0.77280596E-01 0.45705080E+03</pdfrwt>
<pdfrwt beam="2">  1       21 0.64072198E-01 0.45705080E+03</pdfrwt>
<totfact> 0.29023509E+03</totfact>
</mgrwt>
</event>
<event>
 4    1  0.4991790E-002  0.4300352E+03  0.7818608E-02  0.1033849E+00
         21   -1    0    0  501  502  0.00000000000E+00  0.00000000000E+00  0.40311469833E+03  0.40311469833E+03  0.00000000000E+00 0. -1.
         21   -1    0    0  502  503 -0.00000000000E+00 -0.00000000000E+00 -0.81441924613E+03  0.81441924613E+03  0.00000000000E+00 0. -1.
    9000005    1    1    2  501    0 -0.12958921167E+03  0.90204830089E+02 -0.60795047820E+03  0.74467043656E+03  0.40000000000E+03 0. -1.
   -9000005    1    1    2    0  503  0.12958921167E+03 -0.90204830089E+02  0.19664593041E+03  0.47286350790E+03  0.40000000000E+03 0. -1.
<mgrwt>
<rscale>  2 0.43003520E+03</rscale>
<asrwt>0</asrwt>
<pdfrwt beam="1">  1       21 0.62017646E-01 0.43003520E+03</pdfrwt>
<pdfrwt beam="2">  1       21 0.12529527E+00 0.43003520E+03</pdfrwt>
<totfact> 0.97828377E+02</totfact>
</mgrwt>
</event>
<event>
 4    1  0.4991790E-002  0.7496431E+03  0.7818608E-02  0.9635910E-01
         21   -1    0    0  501  502  0.00000000000E+00  0.00000000000E+00  0.73469224975E+03  0.73469224975E+03  0.00000000000E+00 0. -1.
         21   -1    0    0  502  503 -0.00000000000E+00 -0.00000000000E+00 -0.11758590763E+04  0.11758590763E+04  0.00000000000E+00 0.  1.
    9000005    1    1    2  501    0 -0.11420847360E+03 -0.62363549436E+03  0.34416015887E+03  0.82487030509E+03  0.40000000000E+03 0. -1.
   -9000005    1    1    2    0  503  0.11420847360E+03  0.62363549436E+03 -0.78532698545E+03  0.10856810210E+04  0.40000000000E+03 0.  1.
<mgrwt>
<rscale>  2 0.74964312E+03</rscale>
<asrwt>0</asrwt>
<pdfrwt beam="1">  1       21 0.11302958E+00 0.74964312E+03</pdfrwt>
<pdfrwt beam="2">  1       21 0.18090140E+00 0.74964312E+03</pdfrwt>
<totfact> 0.76769397E+01</totfact>
</mgrwt>
</event>
<event>
 4    1  0.4991790E-002  0.4976747E+03  0.7818608E-02  0.1014388E+00
         21   -1    0    0  501  502  0.00000000000E+00  0.00000000000E+00  0.39529791347E+03  0.39529791347E+03  0.00000000000E+00 0.  1.
         21   -1    0    0  502  503 -0.00000000000E+00 -0.00000000000E+00 -0.69739760549E+03  0.69739760549E+03  0.00000000000E+00 0.  1.
    9000005    1    1    2  501    0  0.25977000442E+03 -0.14212549842E+03  0.23068051215E+02  0.49820903995E+03  0.40000000000E+03 0.  1.
   -9000005    1    1    2    0  503 -0.25977000442E+03  0.14212549842E+03 -0.32516774324E+03  0.59448647902E+03  0.40000000000E+03 0.  1.
<mgrwt>
<rscale>  2 0.49767471E+03</rscale>
<asrwt>0</asrwt>
<pdfrwt beam="1">  1       21 0.60815064E-01 0.49767471E+03</pdfrwt>
<pdfrwt beam="2">  1       21 0.10729194E+00 0.49767471E+03</pdfrwt>
<totfact> 0.14694461E+03</totfact>
</mgrwt>
</event>
<event>
 4    1  0.4991790E-002  0.4108536E+03  0.7818608E-02  0.1040085E+00
         21   -1    0    0  503  502  0.00000000000E+00  0.00000000000E+00  0.18885002502E+03  0.18885002502E+03  0.00000000000E+00 0.  1.
         21   -1    0    0  501  503 -0.00000000000E+00 -0.00000000000E+00 -0.12650329671E+04  0.12650329671E+04  0.00000000000E+00 0.  1.
    9000005    1    1    2  501    0 -0.21956674395E+02 -0.91206288884E+02 -0.93186958928E+03  0.10184211379E+04  0.40000000000E+03 0.  1.
   -9000005    1    1    2    0  502  0.21956674395E+02  0.91206288884E+02 -0.14431335277E+03  0.43546185421E+03  0.40000000000E+03 0.  1.
<mgrwt>
<rscale>  2 0.41085360E+03</rscale>
<asrwt>0</asrwt>
<pdfrwt beam="1">  1       21 0.29053851E-01 0.41085360E+03</pdfrwt>
<pdfrwt beam="2">  1       21 0.19462045E+00 0.41085360E+03</pdfrwt>
<totfact> 0.14126517E+03</totfact>
</mgrwt>
</event>
<event>
 4    1  0.4991790E-002  0.4110795E+03  0.7818608E-02  0.1040009E+00
         21   -1    0    0  501  502  0.00000000000E+00  0.00000000000E+00  0.11090871563E+04  0.11090871563E+04  0.00000000000E+00 0.  1.
         21   -1    0    0  502  503 -0.00000000000E+00 -0.00000000000E+00 -0.31134519064E+03  0.31134519064E+03  0.00000000000E+00 0.  1.
    9000005    1    1    2  501    0  0.70239346724E+02 -0.63661370042E+02  0.90637636214E+03  0.99524089833E+03  0.40000000000E+03 0.  1.
   -9000005    1    1    2    0  503 -0.70239346724E+02  0.63661370042E+02 -0.10863439649E+03  0.42519144860E+03  0.40000000000E+03 0.  1.
<mgrwt>
<rscale>  2 0.41107948E+03</rscale>
<asrwt>0</asrwt>
<pdfrwt beam="1">  1       21 0.17062879E+00 0.41107948E+03</pdfrwt>
<pdfrwt beam="2">  1       21 0.47899261E-01 0.41107948E+03</pdfrwt>
<totfact> 0.74921070E+02</totfact>
</mgrwt>
</event>
<event>
 4    1  0.4991790E-002  0.4003963E+03  0.7818608E-02  0.1043643E+00
         21   -1    0    0  503  502  0.00000000000E+00  0.00000000000E+00  0.11981313338E+04  0.11981313338E+04  0.00000000000E+00 0. -1.
         21   -1    0    0  501  503 -0.00000000000E+00 -0.00000000000E+00 -0.22182368976E+03  0.22182368976E+03  0.00000000000E+00 0. -1.
    9000005    1    1    2  501    0 -0.17800562539E+02 -0.58350349235E+00  0.40929378668E+02  0.40248281273E+03  0.40000000000E+03 0. -1.
   -9000005    1    1    2    0  502  0.17800562539E+02  0.58350349235E+00  0.93537826538E+03  0.10174722108E+04  0.40000000000E+03 0. -1.
<mgrwt>
<rscale>  2 0.40039630E+03</rscale>
<asrwt>0</asrwt>
<pdfrwt beam="1">  1       21 0.18432789E+00 0.40039630E+03</pdfrwt>
<pdfrwt beam="2">  1       21 0.34126722E-01 0.40039630E+03</pdfrwt>
<totfact> 0.12110998E+03</totfact>
</mgrwt>
</event>
<event>
 4    1  0.4991790E-002  0.4227245E+03  0.7818608E-02  0.1036183E+00
         21   -1    0    0  501  502  0.00000000000E+00  0.00000000000E+00  0.18306958983E+03  0.18306958983E+03  0.00000000000E+00 0. -1.
         21   -1    0    0  502  503 -0.00000000000E+00 -0.00000000000E+00 -0.10483378204E+04  0.10483378204E+04  0.00000000000E+00 0. -1.
    9000005    1    1    2  501    0 -0.10190531014E+03  0.91166556291E+02 -0.59424618445E+03  0.72926302590E+03  0.40000000000E+03 0. -1.
   -9000005    1    1    2    0  503  0.10190531014E+03 -0.91166556291E+02 -0.27102204610E+03  0.50214438431E+03  0.40000000000E+03 0. -1.
<mgrwt>
<rscale>  2 0.42272454E+03</rscale>
<asrwt>0</asrwt>
<pdfrwt beam="1">  1       21 0.28164552E-01 0.42272454E+03</pdfrwt>
<pdfrwt beam="2">  1       21 0.16128274E+00 0.42272454E+03</pdfrwt>
<totfact> 0.25740595E+03</totfact>
</mgrwt>
</event>
<event>
 4    1  0.4991790E-002  0.5314588E+03  0.7818608E-02  0.1005879E+00
         21   -1    0    0  503  502  0.00000000000E+00  0.00000000000E+00  0.21604171834E+04  0.21604171834E+04  0.00000000000E+00 0.  1.
         21   -1    0    0  501  503 -0.00000000000E+00 -0.00000000000E+00 -0.22533449667E+03  0.22533449667E+03  0.00000000000E+00 0.  1.
    9000005    1    1    2  501    0  0.80411709363E+02  0.34056189961E+03  0.19464881425E+03  0.56598287196E+03  0.40000000000E+03 0.  1.
   -9000005    1    1    2    0  502 -0.80411709363E+02 -0.34056189961E+03  0.17404338725E+04  0.18197688081E+04  0.40000000000E+03 0.  1.
<mgrwt>
<rscale>  2 0.53145879E+03</rscale>
<asrwt>0</asrwt>
<pdfrwt beam="1">  1       21 0.33237186E+00 0.53145879E+03</pdfrwt>
<pdfrwt beam="2">  1       21 0.34666847E-01 0.53145879E+03</pdfrwt>
<totfact> 0.13049068E+02</totfact>
</mgrwt>
</event>
<event>
 4    1  0.4991790E-002  0.4375591E+03  0.7818608E-02  0.1031498E+00
         21   -1    0    0  503  502  0.00000000000E+00  0.00000000000E+00  0.72882753881E+03  0.72882753881E+03  0.00000000000E+00 0. -1.
         21   -1    0    0  501  503 -0.00000000000E+00 -0.00000000000E+00 -0.32359097638E+03  0.32359097638E+03  0.00000000000E+00 0. -1.
    9000005    1    1    2  501    0  0.12099981123E+02  0.17695083421E+03 -0.25658191389E+02  0.43831079163E+03  0.40000000000E+03 0. -1.
   -9000005    1    1    2    0  502 -0.12099981123E+02 -0.17695083421E+03  0.43089475382E+03  0.61410772356E+03  0.40000000000E+03 0. -1.
<mgrwt>
<rscale>  2 0.43755915E+03</rscale>
<asrwt>0</asrwt>
<pdfrwt beam="1">  1       21 0.11212731E+00 0.43755915E+03</pdfrwt>
<pdfrwt beam="2">  1       21 0.49783227E-01 0.43755915E+03</pdfrwt>
<totfact> 0.20762816E+03</totfact>
</mgrwt>
</event>
<event>
 4    1  0.4991790E-002  0.5972639E+03  0.7818608E-02  0.9911099E-01
         21   -1    0    0  501  502  0.00000000000E+00  0.00000000000E+00  0.45368897811E+03  0.45368897811E+03  0.00000000000E+00 0. -1.
         21   -1    0    0  502  503 -0.00000000000E+00 -0.00000000000E+00 -0.89760079294E+03  0.89760079294E+03  0.00000000000E+00 0. -1.
    9000005    1    1    2  501    0 -0.27145549150E+03  0.35076504074E+03 -0.45990016257E+03  0.75381188449E+03  0.40000000000E+03 0. -1.
   -9000005    1    1    2    0  503  0.27145549150E+03 -0.35076504074E+03  0.15988347743E+02  0.59747788656E+03  0.40000000000E+03 0. -1.
<mgrwt>
<rscale>  2 0.59726393E+03</rscale>
<asrwt>0</asrwt>
<pdfrwt beam="1">  1       21 0.69798305E-01 0.59726393E+03</pdfrwt>
<pdfrwt beam="2">  1       21 0.13809243E+00 0.59726393E+03</pdfrwt>
<totfact> 0.54657100E+02</totfact>
</mgrwt>
</event>
<event>
 4    1  0.4991790E-002  0.4620383E+03  0.7818608E-02  0.1024192E+00
         21   -1    0    0  503  502  0.00000000000E+00  0.00000000000E+00  0.14464220223E+03  0.14464220223E+03  0.00000000000E+00 0.  1.
         21   -1    0    0  501  503 -0.00000000000E+00 -0.00000000000E+00 -0.19130552128E+04  0.19130552128E+04  0.00000000000E+00 0.  1.
    9000005    1    1    2  501    0  0.21723082566E+03  0.79310499944E+02 -0.13760182109E+04  0.14515183442E+04  0.40000000000E+03 0.  1.
   -9000005    1    1    2    0  502 -0.21723082566E+03 -0.79310499944E+02 -0.39239479965E+03  0.60617907075E+03  0.40000000000E+03 0.  1.
<mgrwt>
<rscale>  2 0.46203830E+03</rscale>
<asrwt>0</asrwt>
<pdfrwt beam="1">  1       21 0.22252648E-01 0.46203830E+03</pdfrwt>
<pdfrwt beam="2">  1       21 0.29431617E+00 0.46203830E+03</pdfrwt>
<totfact> 0.55276187E+02</totfact>
</mgrwt>
</event>
<event>
 4    1  0.4991790E-002  0.5564493E+03  0.7818608E-02  0.1000012E+00
         21   -1    0    0  503  502  0.00000000000E+00  0.00000000000E+00  0.11113089196E+04  0.11113089196E+04  0.00000000000E+00 0.  1.
         21   -1    0    0  501  503 -0.00000000000E+00 -0.00000000000E+00 -0.29279705465E+03  0.29279705465E+03  0.00000000000E+00 0. -1.
    9000005    1    1    2  501    0 -0.26488863501E+03  0.28190397030E+03  0.25478778592E+03  0.61200706964E+03  0.40000000000E+03 0. -1.
   -9000005    1    1    2    0  502  0.26488863501E+03 -0.28190397030E+03  0.56372407905E+03  0.79209890464E+03  0.40000000000E+03 0. -1.
<mgrwt>
<rscale>  2 0.55644931E+03</rscale>
<asrwt>0</asrwt>
<pdfrwt beam="1">  1       21 0.17097060E+00 0.55644931E+03</pdfrwt>
<pdfrwt beam="2">  1       21 0.45045701E-01 0.55644931E+03</pdfrwt>
<totfact> 0.79748251E+02</totfact>
</mgrwt>
</event>
<event>
 4    1  0.4991790E-002  0.4126998E+03  0.7818608E-02  0.1039469E+00
         21   -1    0    0  501  502  0.00000000000E+00  0.00000000000E+00  0.92526231633E+02  0.92526231633E+02  0.00000000000E+00 0. -1.
         21   -1    0    0  502  503 -0.00000000000E+00 -0.00000000000E+00 -0.18430223311E+04  0.18430223311E+04  0.00000000000E+00 0. -1.
    9000005    1    1    2  501    0  0.19662328445E+02  0.99672203298E+02 -0.90894613603E+03  0.99825058651E+03  0.40000000000E+03 0. -1.
   -9000005    1    1    2    0  503 -0.19662328445E+02 -0.99672203298E+02 -0.84154996346E+03  0.93729797625E+03  0.40000000000E+03 0. -1.
<mgrwt>
<rscale>  2 0.41269984E+03</rscale>
<asrwt>0</asrwt>
<pdfrwt beam="1">  1       21 0.14234805E-01 0.41269984E+03</pdfrwt>
<pdfrwt beam="2">  1       21 0.28354189E+00 0.41269984E+03</pdfrwt>
<totfact> 0.15283371E+03</totfact>
</mgrwt>
</event>
<event>
 4    1  0.4991790E-002  0.4294136E+03  0.7818608E-02  0.1034045E+00
         21   -1    0    0  501  502  0.00000000000E+00  0.00000000000E+00  0.29145877319E+04  0.29145877319E+04  0.00000000000E+00 0. -1.
         21   -1    0    0  502  503 -0.00000000000E+00 -0.00000000000E+00 -0.29365342205E+03  0.29365342205E+03  0.00000000000E+00 0. -1.
    9000005    1    1    2  501    0  0.15567016443E+03  0.12761521445E+02  0.27313173579E+04  0.27648671878E+04  0.40000000000E+03 0. -1.
   -9000005    1    1    2    0  503 -0.15567016443E+03 -0.12761521445E+02 -0.11038304809E+03  0.44337396612E+03  0.40000000000E+03 0. -1.
<mgrwt>
<rscale>  2 0.42941362E+03</rscale>
<asrwt>0</asrwt>
<pdfrwt beam="1">  1       21 0.44839809E+00 0.42941362E+03</pdfrwt>
<pdfrwt beam="2">  1       21 0.45177452E-01 0.42941362E+03</pdfrwt>
<totfact> 0.14718851E+01</totfact>
</mgrwt>
</event>
<event>
 4    1  0.4991790E-002  0.5555507E+03  0.7818608E-02  0.1000217E+00
         21   -1    0    0  503  502  0.00000000000E+00  0.00000000000E+00  0.50313555116E+03  0.50313555116E+03  0.00000000000E+00 0. -1.
         21   -1    0    0  501  503 -0.00000000000E+00 -0.00000000000E+00 -0.61379279958E+03  0.61379279958E+03  0.00000000000E+00 0.  1.
    9000005    1    1    2  501    0 -0.10355945599E+03  0.37136506883E+03 -0.41681969735E+02  0.55711216274E+03  0.40000000000E+03 0. -1.
   -9000005    1    1    2    0  502  0.10355945599E+03 -0.37136506883E+03 -0.68975278680E+02  0.55981618800E+03  0.40000000000E+03 0.  1.
<mgrwt>
<rscale>  2 0.55555070E+03</rscale>
<asrwt>0</asrwt>
<pdfrwt beam="1">  1       21 0.77405470E-01 0.55555070E+03</pdfrwt>
<pdfrwt beam="2">  1       21 0.94429661E-01 0.55555070E+03</pdfrwt>
<totfact> 0.11436418E+03</totfact>
</mgrwt>
</event>
<event>
 4    1  0.4991790E-002  0.4766666E+03  0.7818608E-02  0.1020055E+00
         21   -1    0    0  503  502  0.00000000000E+00  0.00000000000E+00  0.35029012931E+03  0.35029012931E+03  0.00000000000E+00 0.  1.
         21   -1    0    0  501  503 -0.00000000000E+00 -0.00000000000E+00 -0.69730984235E+03  0.69730984235E+03  0.00000000000E+00 0. -1.
    9000005    1    1    2  501    0  0.23066346089E+03 -0.11834459821E+03 -0.31189731544E+03  0.56964112518E+03  0.40000000000E+03 0. -1.
   -9000005    1    1    2    0  502 -0.23066346089E+03  0.11834459821E+03 -0.35122397588E+02  0.47795884648E+03  0.40000000000E+03 0.  1.
<mgrwt>
<rscale>  2 0.47666663E+03</rscale>
<asrwt>0</asrwt>
<pdfrwt beam="1">  1       21 0.53890790E-01 0.47666663E+03</pdfrwt>
<pdfrwt beam="2">  1       21 0.10727844E+00 0.47666663E+03</pdfrwt>
<totfact> 0.19270376E+03</totfact>
</mgrwt>
</event>
<event>
 4    1  0.4991790E-002  0.4118502E+03  0.7818608E-02  0.1039752E+00
         21   -1    0    0  501  502  0.00000000000E+00  0.00000000000E+00  0.38973245123E+03  0.38973245123E+03  0.00000000000E+00 0.  1.
         21   -1    0    0  502  503 -0.00000000000E+00 -0.00000000000E+00 -0.74589976228E+03  0.74589976228E+03  0.00000000000E+00 0.  1.
    9000005    1    1    2  501    0 -0.53016765617E+02 -0.82521527146E+02  0.18837228220E+03  0.45288486018E+03  0.40000000000E+03 0.  1.
   -9000005    1    1    2    0  503  0.53016765617E+02  0.82521527146E+02 -0.54453959325E+03  0.68274735334E+03  0.40000000000E+03 0.  1.
<mgrwt>
<rscale>  2 0.41185019E+03</rscale>
<asrwt>0</asrwt>
<pdfrwt beam="1">  1       21 0.59958839E-01 0.41185019E+03</pdfrwt>
<pdfrwt beam="2">  1       21 0.11475381E+00 0.41185019E+03</pdfrwt>
<totfact> 0.13268398E+03</totfact>
</mgrwt>
</event>
<event>
 4    1  0.4991790E-002  0.5479025E+03  0.7818608E-02  0.1001981E+00
         21   -1    0    0  503  502  0.00000000000E+00  0.00000000000E+00  0.56279700068E+03  0.56279700068E+03  0.00000000000E+00 0.  1.
         21   -1    0    0  501  503 -0.00000000000E+00 -0.00000000000E+00 -0.66380447457E+03  0.66380447457E+03  0.00000000000E+00 0.  1.
    9000005    1    1    2  501    0 -0.26406927840E+03  0.26545166129E+03 -0.32233284065E+03  0.63568516456E+03  0.40000000000E+03 0.  1.
   -9000005    1    1    2    0  502  0.26406927840E+03 -0.26545166129E+03  0.22132536675E+03  0.59091631069E+03  0.40000000000E+03 0.  1.
<mgrwt>
<rscale>  2 0.54790252E+03</rscale>
<asrwt>0</asrwt>
<pdfrwt beam="1">  1       21 0.86584155E-01 0.54790252E+03</pdfrwt>
<pdfrwt beam="2">  1       21 0.10212376E+00 0.54790252E+03</pdfrwt>
<totfact> 0.72974333E+02</totfact>
</mgrwt>
</event>
<event>
 4    1  0.4991790E-002  0.5630295E+03  0.7818608E-02  0.9985223E-01
         21   -1    0    0  501  502  0.00000000000E+00  0.00000000000E+00  0.59768434577E+03  0.59768434577E+03  0.00000000000E+00 0. -1.
         21   -1    0    0  502  503 -0.00000000000E+00 -0.00000000000E+00 -0.53133094566E+03  0.53133094566E+03  0.00000000000E+00 0. -1.
    9000005    1    1    2  501    0 -0.30551368900E+03  0.25231640201E+03  0.57008811592E+02  0.56590828364E+03  0.40000000000E+03 0. -1.
   -9000005    1    1    2    0  503  0.30551368900E+03 -0.25231640201E+03  0.93445885204E+01  0.56310700779E+03  0.40000000000E+03 0. -1.
<mgrwt>
<rscale>  2 0.56302947E+03</rscale>
<asrwt>0</asrwt>
<pdfrwt beam="1">  1       21 0.91951438E-01 0.56302947E+03</pdfrwt>
<pdfrwt beam="2">  1       21 0.81743222E-01 0.56302947E+03</pdfrwt>
<totfact> 0.10716039E+03</totfact>
</mgrwt>
</event>
<event>
 4    1  0.4991790E-002  0.4539718E+03  0.7818608E-02  0.1026544E+00
         21   -1    0    0  501  502  0.00000000000E+00  0.00000000000E+00  0.39997524998E+04  0.39997524998E+04  0.00000000000E+00 0.  1.
         21   -1    0    0  502  503 -0.00000000000E+00 -0.00000000000E+00 -0.53126471688E+02  0.53126471688E+02  0.00000000000E+00 0.  1.
    9000005    1    1    2  501    0  0.44111228172E+02 -0.21010607383E+03  0.16215645944E+04  0.16839127343E+04  0.40000000000E+03 0.  1.
   -9000005    1    1    2    0  503 -0.44111228172E+02  0.21010607383E+03  0.23250614337E+04  0.23689662372E+04  0.40000000000E+03 0.  1.
<mgrwt>
<rscale>  2 0.45397176E+03</rscale>
<asrwt>0</asrwt>
<pdfrwt beam="1">  1       21 0.61534630E+00 0.45397176E+03</pdfrwt>
<pdfrwt beam="2">  1       21 0.81733065E-02 0.45397176E+03</pdfrwt>
<totfact> 0.22245177E+01</totfact>
</mgrwt>
</event>
<event>
 4    1  0.4991790E-002  0.4679652E+03  0.7818608E-02  0.1022496E+00
         21   -1    0    0  501  502  0.00000000000E+00  0.00000000000E+00  0.11954734075E+04  0.11954734075E+04  0.00000000000E+00 0. -1.
         21   -1    0    0  502  503 -0.00000000000E+00 -0.00000000000E+00 -0.19483616107E+03  0.19483616107E+03  0.00000000000E+00 0.  1.
    9000005    1    1    2  501    0 -0.15637583037E+03  0.18584415960E+03  0.33031730389E+03  0.57280098920E+03  0.40000000000E+03 0.  1.
   -9000005    1    1    2    0  503  0.15637583037E+03 -0.18584415960E+03  0.67031994252E+03  0.81750857936E+03  0.40000000000E+03 0. -1.
<mgrwt>
<rscale>  2 0.46796523E+03</rscale>
<asrwt>0</asrwt>
<pdfrwt beam="1">  1       21 0.18391898E+00 0.46796523E+03</pdfrwt>
<pdfrwt beam="2">  1       21 0.29974795E-01 0.46796523E+03</pdfrwt>
<totfact> 0.15326785E+03</totfact>
</mgrwt>
</event>
<event>
 4    1  0.4991790E-002  0.4294680E+03  0.7818608E-02  0.1034028E+00
         21   -1    0    0  503  502  0.00000000000E+00  0.00000000000E+00  0.15864793246E+04  0.15864793246E+04  0.00000000000E+00 0.  1.
         21   -1    0    0  501  503 -0.00000000000E+00 -0.00000000000E+00 -0.16592740997E+03  0.16592740997E+03  0.00000000000E+00 0.  1.
    9000005    1    1    2  501    0 -0.10447522561E+03  0.11630875263E+03  0.23089016822E+03  0.48759929090E+03  0.40000000000E+03 0.  1.
   -9000005    1    1    2    0  502  0.10447522561E+03 -0.11630875263E+03  0.11896617464E+04  0.12648074437E+04  0.40000000000E+03 0.  1.
<mgrwt>
<rscale>  2 0.42946804E+03</rscale>
<asrwt>0</asrwt>
<pdfrwt beam="1">  1       21 0.24407373E+00 0.42946804E+03</pdfrwt>
<pdfrwt beam="2">  1       21 0.25527295E-01 0.42946804E+03</pdfrwt>
<totfact> 0.86987604E+02</totfact>
</mgrwt>
</event>
<event>
 4    1  0.4991790E-002  0.6269012E+03  0.7818608E-02  0.9851115E-01
         21   -1    0    0  501  502  0.00000000000E+00  0.00000000000E+00  0.66017963754E+03  0.66017963754E+03  0.00000000000E+00 0.  1.
         21   -1    0    0  502  503 -0.00000000000E+00 -0.00000000000E+00 -0.61181703022E+03  0.61181703022E+03  0.00000000000E+00 0. -1.
    9000005    1    1    2  501    0  0.14672600428E+02 -0.48248299503E+03  0.12867917542E+03  0.63997144927E+03  0.40000000000E+03 0.  1.
   -9000005    1    1    2    0  503 -0.14672600428E+02  0.48248299503E+03 -0.80316568102E+02  0.63202521849E+03  0.40000000000E+03 0. -1.
<mgrwt>
<rscale>  2 0.62690121E+03</rscale>
<asrwt>0</asrwt>
<pdfrwt beam="1">  1       21 0.10156610E+00 0.62690121E+03</pdfrwt>
<pdfrwt beam="2">  1       21 0.94125697E-01 0.62690121E+03</pdfrwt>
<totfact> 0.59057638E+02</totfact>
</mgrwt>
</event>
<event>
 4    1  0.4991790E-002  0.4210083E+03  0.7818608E-02  0.1036739E+00
         21   -1    0    0  503  502  0.00000000000E+00  0.00000000000E+00  0.13381681274E+04  0.13381681274E+04  0.00000000000E+00 0. -1.
         21   -1    0    0  501  503 -0.00000000000E+00 -0.00000000000E+00 -0.35398228818E+03  0.35398228818E+03  0.00000000000E+00 0. -1.
    9000005    1    1    2  501    0  0.12390581499E+03  0.43535582964E+02 -0.17722296356E+03  0.45678876605E+03  0.40000000000E+03 0. -1.
   -9000005    1    1    2    0  502 -0.12390581499E+03 -0.43535582964E+02  0.11614088028E+04  0.12353616496E+04  0.40000000000E+03 0. -1.
<mgrwt>
<rscale>  2 0.42100831E+03</rscale>
<asrwt>0</asrwt>
<pdfrwt beam="1">  1       21 0.20587202E+00 0.42100831E+03</pdfrwt>
<pdfrwt beam="2">  1       21 0.54458814E-01 0.42100831E+03</pdfrwt>
<totfact> 0.32466555E+02</totfact>
</mgrwt>
</event>
<event>
 4    1  0.4991790E-002  0.4313877E+03  0.7818608E-02  0.1033422E+00
         21   -1    0    0  503  502  0.00000000000E+00  0.00000000000E+00  0.14553650752E+04  0.14553650752E+04  0.00000000000E+00 0. -1.
         21   -1    0    0  501  503 -0.00000000000E+00 -0.00000000000E+00 -0.16475294273E+03  0.16475294273E+03  0.00000000000E+00 0. -1.
    9000005    1    1    2  501    0 -0.15154360732E+03  0.55945659168E+02  0.26202130970E+03  0.50472819263E+03  0.40000000000E+03 0. -1.
   -9000005    1    1    2    0  502  0.15154360732E+03 -0.55945659168E+02  0.10285908228E+04  0.11153898253E+04  0.40000000000E+03 0. -1.
<mgrwt>
<rscale>  2 0.43138774E+03</rscale>
<asrwt>0</asrwt>
<pdfrwt beam="1">  1       21 0.22390231E+00 0.43138774E+03</pdfrwt>
<pdfrwt beam="2">  1       21 0.25346608E-01 0.43138774E+03</pdfrwt>
<totfact> 0.11777403E+03</totfact>
</mgrwt>
</event>
<event>
 4    1  0.4991790E-002  0.4226663E+03  0.7818608E-02  0.1036202E+00
         21   -1    0    0  503  502  0.00000000000E+00  0.00000000000E+00  0.48268017882E+03  0.48268017882E+03  0.00000000000E+00 0.  1.
         21   -1    0    0  501  503 -0.00000000000E+00 -0.00000000000E+00 -0.38364325438E+03  0.38364325438E+03  0.00000000000E+00 0. -1.
    9000005    1    1    2  501    0  0.76282409231E+02 -0.11325982935E+03 -0.31824462326E+02  0.42386270337E+03  0.40000000000E+03 0. -1.
   -9000005    1    1    2    0  502 -0.76282409231E+02  0.11325982935E+03  0.13086138677E+03  0.44246072984E+03  0.40000000000E+03 0.  1.
<mgrwt>
<rscale>  2 0.42266629E+03</rscale>
<asrwt>0</asrwt>
<pdfrwt beam="1">  1       21 0.74258489E-01 0.42266629E+03</pdfrwt>
<pdfrwt beam="2">  1       21 0.59022039E-01 0.42266629E+03</pdfrwt>
<totfact> 0.38555101E+03</totfact>
</mgrwt>
</event>
<event>
 4    1  0.4991790E-002  0.4809492E+03  0.7818608E-02  0.1018875E+00
         21   -1    0    0  503  502  0.00000000000E+00  0.00000000000E+00  0.47024088095E+03  0.47024088095E+03  0.00000000000E+00 0.  1.
         21   -1    0    0  501  503 -0.00000000000E+00 -0.00000000000E+00 -0.94005548497E+03  0.94005548497E+03  0.00000000000E+00 0.  1.
    9000005    1    1    2  501    0 -0.84010500061E+02  0.25348436188E+03 -0.72178220748E+03  0.86734170940E+03  0.40000000000E+03 0.  1.
   -9000005    1    1    2    0  502  0.84010500061E+02 -0.25348436188E+03  0.25196760346E+03  0.54295465651E+03  0.40000000000E+03 0.  1.
<mgrwt>
<rscale>  2 0.48094915E+03</rscale>
<asrwt>0</asrwt>
<pdfrwt beam="1">  1       21 0.72344751E-01 0.48094915E+03</pdfrwt>
<pdfrwt beam="2">  1       21 0.14462392E+00 0.48094915E+03</pdfrwt>
<totfact> 0.46522699E+02</totfact>
</mgrwt>
</event>
<event>
 4    1  0.4991790E-002  0.6699232E+03  0.7818608E-02  0.9770097E-01
         21   -1    0    0  503  502  0.00000000000E+00  0.00000000000E+00  0.80836419377E+03  0.80836419377E+03  0.00000000000E+00 0. -1.
         21   -1    0    0  501  503 -0.00000000000E+00 -0.00000000000E+00 -0.61333711948E+03  0.61333711948E+03  0.00000000000E+00 0.  1.
    9000005    1    1    2  501    0  0.11418027370E+03  0.52512845720E+03 -0.12135673260E+03  0.68082632735E+03  0.40000000000E+03 0.  1.
   -9000005    1    1    2    0  502 -0.11418027370E+03 -0.52512845720E+03  0.31638380689E+03  0.74087498590E+03  0.40000000000E+03 0. -1.
<mgrwt>
<rscale>  2 0.66992315E+03</rscale>
<asrwt>0</asrwt>
<pdfrwt beam="1">  1       21 0.12436372E+00 0.66992315E+03</pdfrwt>
<pdfrwt beam="2">  1       21 0.94359557E-01 0.66992315E+03</pdfrwt>
<totfact> 0.34757480E+02</totfact>
</mgrwt>
</event>
<event>
 4    1  0.4991790E-002  0.4593441E+03  0.7818608E-02  0.1024972E+00
         21   -1    0    0  503  502  0.00000000000E+00  0.00000000000E+00  0.23410017107E+03  0.23410017107E+03  0.00000000000E+00 0. -1.
         21   -1    0    0  501  503 -0.00000000000E+00 -0.00000000000E+00 -0.90156554603E+03  0.90156554603E+03  0.00000000000E+00 0. -1.
    9000005    1    1    2  501    0  0.22056641174E+03 -0.48450810659E+02 -0.32418854162E+03  0.56222347297E+03  0.40000000000E+03 0. -1.
   -9000005    1    1    2    0  502 -0.22056641174E+03  0.48450810659E+02 -0.34327683334E+03  0.57344224413E+03  0.40000000000E+03 0. -1.
<mgrwt>
<rscale>  2 0.45934412E+03</rscale>
<asrwt>0</asrwt>
<pdfrwt beam="1">  1       21 0.36015411E-01 0.45934412E+03</pdfrwt>
<pdfrwt beam="2">  1       21 0.13870239E+00 0.45934412E+03</pdfrwt>
<totfact> 0.23370122E+03</totfact>
</mgrwt>
</event>
<event>
 4    1  0.4991790E-002  0.4860665E+03  0.7818608E-02  0.1017481E+00
         21   -1    0    0  503  502  0.00000000000E+00  0.00000000000E+00  0.25918829386E+03  0.25918829386E+03  0.00000000000E+00 0. -1.
         21   -1    0    0  501  503 -0.00000000000E+00 -0.00000000000E+00 -0.10278906192E+04  0.10278906192E+04  0.00000000000E+00 0.  1.
    9000005    1    1    2  501    0  0.38535196557E+02  0.27345144359E+03 -0.16783767574E+03  0.51422771101E+03  0.40000000000E+03 0. -1.
   -9000005    1    1    2    0  502 -0.38535196557E+02 -0.27345144359E+03 -0.60086464965E+03  0.77285120209E+03  0.40000000000E+03 0.  1.
<mgrwt>
<rscale>  2 0.48606651E+03</rscale>
<asrwt>0</asrwt>
<pdfrwt beam="1">  1       21 0.39875122E-01 0.48606651E+03</pdfrwt>
<pdfrwt beam="2">  1       21 0.15813702E+00 0.48606651E+03</pdfrwt>
<totfact> 0.13159212E+03</totfact>
</mgrwt>
</event>
<event>
 4    1  0.4991790E-002  0.4280908E+03  0.7818608E-02  0.1034465E+00
         21   -1    0    0  501  502  0.00000000000E+00  0.00000000000E+00  0.97512531380E+03  0.97512531380E+03  0.00000000000E+00 0.  1.
         21   -1    0    0  502  503 -0.00000000000E+00 -0.00000000000E+00 -0.41286525406E+03  0.41286525406E+03  0.00000000000E+00 0.  1.
    9000005    1    1    2  501    0 -0.60610458317E+01 -0.15239757594E+03  0.79337148529E+03  0.90149879151E+03  0.40000000000E+03 0.  1.
   -9000005    1    1    2    0  503  0.60610458317E+01  0.15239757594E+03 -0.23111142555E+03  0.48649177634E+03  0.40000000000E+03 0.  1.
<mgrwt>
<rscale>  2 0.42809083E+03</rscale>
<asrwt>0</asrwt>
<pdfrwt beam="1">  1       21 0.15001928E+00 0.42809083E+03</pdfrwt>
<pdfrwt beam="2">  1       21 0.63517731E-01 0.42809083E+03</pdfrwt>
<totfact> 0.57776722E+02</totfact>
</mgrwt>
</event>
<event>
 4    1  0.4991790E-002  0.4519525E+03  0.7818608E-02  0.1027141E+00
         21   -1    0    0  501  502  0.00000000000E+00  0.00000000000E+00  0.22093714627E+03  0.22093714627E+03  0.00000000000E+00 0. -1.
         21   -1    0    0  502  503 -0.00000000000E+00 -0.00000000000E+00 -0.93365923133E+03  0.93365923133E+03  0.00000000000E+00 0. -1.
    9000005    1    1    2  501    0  0.18734362331E+03  0.95725832178E+02 -0.29924828623E+03  0.54204299179E+03  0.40000000000E+03 0.  1.
   -9000005    1    1    2    0  503 -0.18734362331E+03 -0.95725832178E+02 -0.41347379883E+03  0.61255338581E+03  0.40000000000E+03 0.  1.
<mgrwt>
<rscale>  2 0.45195251E+03</rscale>
<asrwt>0</asrwt>
<pdfrwt beam="1">  1       21 0.33990330E-01 0.45195251E+03</pdfrwt>
<pdfrwt beam="2">  1       21 0.14363988E+00 0.45195251E+03</pdfrwt>
<totfact> 0.23999484E+03</totfact>
</mgrwt>
</event>
<event>
 4    1  0.4991790E-002  0.4197544E+03  0.7818608E-02  0.1037146E+00
         21   -1    0    0  501  502  0.00000000000E+00  0.00000000000E+00  0.15411364355E+03  0.15411364355E+03  0.00000000000E+00 0. -1.
         21   -1    0    0  502  503 -0.00000000000E+00 -0.00000000000E+00 -0.16152516966E+04  0.16152516966E+04  0.00000000000E+00 0. -1.
    9000005    1    1    2  501    0  0.10108882059E+02 -0.12685256232E+03 -0.25234738157E+03  0.48976827485E+03  0.40000000000E+03 0. -1.
   -9000005    1    1    2    0  503 -0.10108882059E+02  0.12685256232E+03 -0.12087906715E+04  0.12795970653E+04  0.40000000000E+03 0. -1.
<mgrwt>
<rscale>  2 0.41975441E+03</rscale>
<asrwt>0</asrwt>
<pdfrwt beam="1">  1       21 0.23709791E-01 0.41975441E+03</pdfrwt>
<pdfrwt beam="2">  1       21 0.24850027E+00 0.41975441E+03</pdfrwt>
<totfact> 0.94776826E+02</totfact>
</mgrwt>
</event>
<event>
 4    1  0.4991790E-002  0.4879340E+03  0.7818608E-02  0.1016977E+00
         21   -1    0    0  501  502  0.00000000000E+00  0.00000000000E+00  0.56079574297E+03  0.56079574297E+03  0.00000000000E+00 0.  1.
         21   -1    0    0  502  503 -0.00000000000E+00 -0.00000000000E+00 -0.50901133407E+03  0.50901133407E+03  0.00000000000E+00 0. -1.
    9000005    1    1    2  501    0 -0.83679124574E+02  0.26660350698E+03  0.24379819327E+03  0.54545135884E+03  0.40000000000E+03 0.  1.
   -9000005    1    1    2    0  503  0.83679124574E+02 -0.26660350698E+03 -0.19201378436E+03  0.52435571820E+03  0.40000000000E+03 0. -1.
<mgrwt>
<rscale>  2 0.48793404E+03</rscale>
<asrwt>0</asrwt>
<pdfrwt beam="1">  1       21 0.86276268E-01 0.48793404E+03</pdfrwt>
<pdfrwt beam="2">  1       21 0.78309436E-01 0.48793404E+03</pdfrwt>
<totfact> 0.14122719E+03</totfact>
</mgrwt>
</event>
<event>
 4    1  0.4991790E-002  0.5049669E+03  0.7818608E-02  0.1012491E+00
         21   -1    0    0  501  502  0.00000000000E+00  0.00000000000E+00  0.35095520600E+03  0.35095520600E+03  0.00000000000E+00 0.  1.
         21   -1    0    0  502  503 -0.00000000000E+00 -0.00000000000E+00 -0.78047144453E+03  0.78047144453E+03  0.00000000000E+00 0.  1.
    9000005    1    1    2  501    0  0.81618518898E+02  0.29720369528E+03 -0.36343381071E+03  0.62215412390E+03  0.40000000000E+03 0.  1.
   -9000005    1    1    2    0  503 -0.81618518898E+02 -0.29720369528E+03 -0.66082427817E+02  0.50927252663E+03  0.40000000000E+03 0.  1.
<mgrwt>
<rscale>  2 0.50496695E+03</rscale>
<asrwt>0</asrwt>
<pdfrwt beam="1">  1       21 0.53993109E-01 0.50496695E+03</pdfrwt>
<pdfrwt beam="2">  1       21 0.12007253E+00 0.50496695E+03</pdfrwt>
<totfact> 0.14327581E+03</totfact>
</mgrwt>
</event>
<event>
 4    1  0.4991790E-002  0.5742053E+03  0.7818608E-02  0.9960416E-01
         21   -1    0    0  503  502  0.00000000000E+00  0.00000000000E+00  0.73987601868E+03  0.73987601868E+03  0.00000000000E+00 0. -1.
         21   -1    0    0  501  503 -0.00000000000E+00 -0.00000000000E+00 -0.13819728830E+04  0.13819728830E+04  0.00000000000E+00 0.  1.
    9000005    1    1    2  501    0 -0.40164969652E+02  0.40999816274E+03 -0.11943252151E+04  0.13251884536E+04  0.40000000000E+03 0.  1.
   -9000005    1    1    2    0  502  0.40164969652E+02 -0.40999816274E+03  0.55222835072E+03  0.79666044811E+03  0.40000000000E+03 0. -1.
<mgrwt>
<rscale>  2 0.57420529E+03</rscale>
<asrwt>0</asrwt>
<pdfrwt beam="1">  1       21 0.11382708E+00 0.57420529E+03</pdfrwt>
<pdfrwt beam="2">  1       21 0.21261121E+00 0.57420529E+03</pdfrwt>
<totfact> 0.49079668E+01</totfact>
</mgrwt>
</event>
<event>
 4    1  0.4991790E-002  0.4403880E+03  0.7818608E-02  0.1030628E+00
         21   -1    0    0  501  502  0.00000000000E+00  0.00000000000E+00  0.62132487247E+03  0.62132487247E+03  0.00000000000E+00 0.  1.
         21   -1    0    0  502  503 -0.00000000000E+00 -0.00000000000E+00 -0.31498379563E+03  0.31498379563E+03  0.00000000000E+00 0.  1.
    9000005    1    1    2  501    0  0.65262718266E+02  0.17228578874E+03  0.19763755949E+03  0.48270303533E+03  0.40000000000E+03 0.  1.
   -9000005    1    1    2    0  503 -0.65262718266E+02 -0.17228578874E+03  0.10870351735E+03  0.45360563277E+03  0.40000000000E+03 0.  1.
<mgrwt>
<rscale>  2 0.44038803E+03</rscale>
<asrwt>0</asrwt>
<pdfrwt beam="1">  1       21 0.95588442E-01 0.44038803E+03</pdfrwt>
<pdfrwt beam="2">  1       21 0.48459046E-01 0.44038803E+03</pdfrwt>
<totfact> 0.32457768E+03</totfact>
</mgrwt>
</event>
<event>
 4    1  0.4991790E-002  0.5439854E+03  0.7818608E-02  0.1002896E+00
         21   -1    0    0  503  502  0.00000000000E+00  0.00000000000E+00  0.14357329021E+04  0.14357329021E+04  0.00000000000E+00 0.  1.
         21   -1    0    0  501  503 -0.00000000000E+00 -0.00000000000E+00 -0.56389020818E+03  0.56389020818E+03  0.00000000000E+00 0.  1.
    9000005    1    1    2  501    0  0.50836515141E+02 -0.36515170603E+03 -0.36047364305E+03  0.65258054448E+03  0.40000000000E+03 0.  1.
   -9000005    1    1    2    0  502 -0.50836515141E+02  0.36515170603E+03  0.12323163369E+04  0.13470425658E+04  0.40000000000E+03 0.  1.
<mgrwt>
<rscale>  2 0.54398540E+03</rscale>
<asrwt>0</asrwt>
<pdfrwt beam="1">  1       21 0.22088198E+00 0.54398540E+03</pdfrwt>
<pdfrwt beam="2">  1       21 0.86752341E-01 0.54398540E+03</pdfrwt>
<totfact> 0.85355315E+01</totfact>
</mgrwt>
</event>
<event>
 4    1  0.4991790E-002  0.4216020E+03  0.7818608E-02  0.1036546E+00
         21   -1    0    0  501  502  0.00000000000E+00  0.00000000000E+00  0.18733134726E+03  0.18733134726E+03  0.00000000000E+00 0.  1.
         21   -1    0    0  502  503 -0.00000000000E+00 -0.00000000000E+00 -0.22934184286E+04  0.22934184286E+04  0.00000000000E+00 0.  1.
    9000005    1    1    2  501    0  0.13309081475E+03  0.59244859710E+01 -0.10330577945E+03  0.43407412797E+03  0.40000000000E+03 0.  1.
   -9000005    1    1    2    0  503 -0.13309081475E+03 -0.59244859710E+01 -0.20027813019E+04  0.20466756479E+04  0.40000000000E+03 0.  1.
<mgrwt>
<rscale>  2 0.42160202E+03</rscale>
<asrwt>0</asrwt>
<pdfrwt beam="1">  1       21 0.28820208E-01 0.42160202E+03</pdfrwt>
<pdfrwt beam="2">  1       21 0.35283360E+00 0.42160202E+03</pdfrwt>
<totfact> 0.15152200E+02</totfact>
</mgrwt>
</event>
<event>
 4    1  0.4991790E-002  0.5378117E+03  0.7818608E-02  0.1004355E+00
         21   -1    0    0  501  502  0.00000000000E+00  0.00000000000E+00  0.90642428753E+03  0.90642428753E+03  0.00000000000E+00 0. -1.
         21   -1    0    0  502  503 -0.00000000000E+00 -0.00000000000E+00 -0.60783628912E+03  0.60783628912E+03  0.00000000000E+00 0. -1.
    9000005    1    1    2  501    0  0.32427180567E+03 -0.15520688843E+03  0.67112134971E+03  0.86002630669E+03  0.40000000000E+03 0. -1.
   -9000005    1    1    2    0  503 -0.32427180567E+03  0.15520688843E+03 -0.37253335129E+03  0.65423426996E+03  0.40000000000E+03 0. -1.
<mgrwt>
<rscale>  2 0.53781166E+03</rscale>
<asrwt>0</asrwt>
<pdfrwt beam="1">  1       21 0.13944989E+00 0.53781166E+03</pdfrwt>
<pdfrwt beam="2">  1       21 0.93513275E-01 0.53781166E+03</pdfrwt>
<totfact> 0.27537785E+02</totfact>
</mgrwt>
</event>
<event>
 4    1  0.4991790E-002  0.4361596E+03  0.7818608E-02  0.1031932E+00
         21   -1    0    0  501  502  0.00000000000E+00  0.00000000000E+00  0.12372116531E+03  0.12372116531E+03  0.00000000000E+00 0.  1.
         21   -1    0    0  502  503 -0.00000000000E+00 -0.00000000000E+00 -0.35363122292E+04  0.35363122292E+04  0.00000000000E+00 0.  1.
    9000005    1    1    2  501    0 -0.16405239828E+03  0.57637154474E+02 -0.33050122020E+03  0.54723513001E+03  0.40000000000E+03 0.  1.
   -9000005    1    1    2    0  503  0.16405239828E+03 -0.57637154474E+02 -0.30820898437E+04  0.31127982645E+04  0.40000000000E+03 0.  1.
<mgrwt>
<rscale>  2 0.43615964E+03</rscale>
<asrwt>0</asrwt>
<pdfrwt beam="1">  1       21 0.19034028E-01 0.43615964E+03</pdfrwt>
<pdfrwt beam="2">  1       21 0.54404798E+00 0.43615964E+03</pdfrwt>
<totfact> 0.17014854E+01</totfact>
</mgrwt>
</event>
<event>
 4    1  0.4991790E-002  0.5876838E+03  0.7818608E-02  0.9931293E-01
         21   -1    0    0  503  502  0.00000000000E+00  0.00000000000E+00  0.57743214226E+03  0.57743214226E+03  0.00000000000E+00 0. -1.
         21   -1    0    0  501  503 -0.00000000000E+00 -0.00000000000E+00 -0.23839450135E+04  0.23839450135E+04  0.00000000000E+00 0. -1.
    9000005    1    1    2  501    0  0.23318845865E+03 -0.36193290655E+03 -0.21848058618E+04  0.22624652351E+04  0.40000000000E+03 0. -1.
   -9000005    1    1    2    0  502 -0.23318845865E+03  0.36193290655E+03  0.37829299061E+03  0.69891192065E+03  0.40000000000E+03 0. -1.
<mgrwt>
<rscale>  2 0.58768383E+03</rscale>
<asrwt>0</asrwt>
<pdfrwt beam="1">  1       21 0.88835715E-01 0.58768383E+03</pdfrwt>
<pdfrwt beam="2">  1       21 0.36676077E+00 0.58768383E+03</pdfrwt>
<totfact> 0.99220520E+00</totfact>
</mgrwt>
</event>
<event>
 4    1  0.4991790E-002  0.4616187E+03  0.7818608E-02  0.1024313E+00
         21   -1    0    0  503  502  0.00000000000E+00  0.00000000000E+00  0.13403239077E+04  0.13403239077E+04  0.00000000000E+00 0. -1.
         21   -1    0    0  501  503 -0.00000000000E+00 -0.00000000000E+00 -0.15936022007E+03  0.15936022007E+03  0.00000000000E+00 0. -1.
    9000005    1    1    2  501    0  0.13349131195E+03  0.18780823758E+03  0.55411373623E+03  0.72120309008E+03  0.40000000000E+03 0. -1.
   -9000005    1    1    2    0  502 -0.13349131195E+03 -0.18780823758E+03  0.62684995143E+03  0.77848103771E+03  0.40000000000E+03 0. -1.
<mgrwt>
<rscale>  2 0.46161874E+03</rscale>
<asrwt>0</asrwt>
<pdfrwt beam="1">  1       21 0.20620367E+00 0.46161874E+03</pdfrwt>
<pdfrwt beam="2">  1       21 0.24516958E-01 0.46161874E+03</pdfrwt>
<totfact> 0.16120430E+03</totfact>
</mgrwt>
</event>
<event>
 4    1  0.4991790E-002  0.4310378E+03  0.7818608E-02  0.1033533E+00
         21   -1    0    0  503  502  0.00000000000E+00  0.00000000000E+00  0.31444167730E+03  0.31444167730E+03  0.00000000000E+00 0. -1.
         21   -1    0    0  501  503 -0.00000000000E+00 -0.00000000000E+00 -0.63734935866E+03  0.63734935866E+03  0.00000000000E+00 0. -1.
    9000005    1    1    2  501    0  0.42259738407E+02 -0.15494427826E+03 -0.28997093854E+03  0.51949664104E+03  0.40000000000E+03 0. -1.
   -9000005    1    1    2    0  502 -0.42259738407E+02  0.15494427826E+03 -0.32936742829E+02  0.43229439492E+03  0.40000000000E+03 0. -1.
<mgrwt>
<rscale>  2 0.43103783E+03</rscale>
<asrwt>0</asrwt>
<pdfrwt beam="1">  1       21 0.48375643E-01 0.43103783E+03</pdfrwt>
<pdfrwt beam="2">  1       21 0.98053747E-01 0.43103783E+03</pdfrwt>
<totfact> 0.30745958E+03</totfact>
</mgrwt>
</event>
<event>
 4    1  0.4991790E-002  0.4284984E+03  0.7818608E-02  0.1034335E+00
         21   -1    0    0  503  502  0.00000000000E+00  0.00000000000E+00  0.40801845706E+03  0.40801845706E+03  0.00000000000E+00 0. -1.
         21   -1    0    0  501  503 -0.00000000000E+00 -0.00000000000E+00 -0.76153641033E+03  0.76153641033E+03  0.00000000000E+00 0. -1.
    9000005    1    1    2  501    0  0.15145412807E+03 -0.25933604747E+02 -0.55077932847E+03  0.69783147925E+03  0.40000000000E+03 0. -1.
   -9000005    1    1    2    0  502 -0.15145412807E+03  0.25933604747E+02  0.19726137521E+03  0.47172338813E+03  0.40000000000E+03 0. -1.
<mgrwt>
<rscale>  2 0.42849843E+03</rscale>
<asrwt>0</asrwt>
<pdfrwt beam="1">  1       21 0.62772071E-01 0.42849843E+03</pdfrwt>
<pdfrwt beam="2">  1       21 0.11715945E+00 0.42849843E+03</pdfrwt>
<totfact> 0.11308830E+03</totfact>
</mgrwt>
</event>
<event>
 4    1  0.4991790E-002  0.4840854E+03  0.7818608E-02  0.1018018E+00
         21   -1    0    0  501  502  0.00000000000E+00  0.00000000000E+00  0.42801132431E+03  0.42801132431E+03  0.00000000000E+00 0. -1.
         21   -1    0    0  502  503 -0.00000000000E+00 -0.00000000000E+00 -0.20913381375E+04  0.20913381375E+04  0.00000000000E+00 0.  1.
    9000005    1    1    2  501    0  0.19287258693E+03  0.19271439945E+03  0.25063335316E+03  0.54511994300E+03  0.40000000000E+03 0. -1.
   -9000005    1    1    2    0  503 -0.19287258693E+03 -0.19271439945E+03 -0.19139601663E+04  0.19742295188E+04  0.40000000000E+03 0.  1.
<mgrwt>
<rscale>  2 0.48408540E+03</rscale>
<asrwt>0</asrwt>
<pdfrwt beam="1">  1       21 0.65847895E-01 0.48408540E+03</pdfrwt>
<pdfrwt beam="2">  1       21 0.32174433E+00 0.48408540E+03</pdfrwt>
<totfact> 0.39912362E+01</totfact>
</mgrwt>
</event>
<event>
 4    1  0.4991790E-002  0.4357518E+03  0.7818608E-02  0.1032058E+00
         21   -1    0    0  503  502  0.00000000000E+00  0.00000000000E+00  0.87139219680E+02  0.87139219680E+02  0.00000000000E+00 0. -1.
         21   -1    0    0  501  503 -0.00000000000E+00 -0.00000000000E+00 -0.22824134920E+04  0.22824134920E+04  0.00000000000E+00 0.  1.
    9000005    1    1    2  501    0 -0.16255039728E+03  0.58796167080E+02 -0.13497814721E+04  0.14183757060E+04  0.40000000000E+03 0. -1.
   -9000005    1    1    2    0  502  0.16255039728E+03 -0.58796167080E+02 -0.84549280016E+03  0.95117700563E+03  0.40000000000E+03 0.  1.
<mgrwt>
<rscale>  2 0.43575179E+03</rscale>
<asrwt>0</asrwt>
<pdfrwt beam="1">  1       21 0.13406032E-01 0.43575179E+03</pdfrwt>
<pdfrwt beam="2">  1       21 0.35114059E+00 0.43575179E+03</pdfrwt>
<totfact> 0.65856330E+02</totfact>
</mgrwt>
</event>
<event>
 4    1  0.4991790E-002  0.4487636E+03  0.7818608E-02  0.1028091E+00
         21   -1    0    0  503  502  0.00000000000E+00  0.00000000000E+00  0.10397434333E+04  0.10397434333E+04  0.00000000000E+00 0.  1.
         21   -1    0    0  501  503 -0.00000000000E+00 -0.00000000000E+00 -0.24426547851E+03  0.24426547851E+03  0.00000000000E+00 0.  1.
    9000005    1    1    2  501    0 -0.89609555308E+02  0.18264416994E+03  0.10561080203E+03  0.46102321712E+03  0.40000000000E+03 0.  1.
   -9000005    1    1    2    0  502  0.89609555308E+02 -0.18264416994E+03  0.68986715276E+03  0.82298569470E+03  0.40000000000E+03 0.  1.
<mgrwt>
<rscale>  2 0.44876360E+03</rscale>
<asrwt>0</asrwt>
<pdfrwt beam="1">  1       21 0.15996053E+00 0.44876360E+03</pdfrwt>
<pdfrwt beam="2">  1       21 0.37579305E-01 0.44876360E+03</pdfrwt>
<totfact> 0.14613785E+03</totfact>
</mgrwt>
</event>
<event>
 4    1  0.4991790E-002  0.4316687E+03  0.7818608E-02  0.1033334E+00
         21   -1    0    0  501  502  0.00000000000E+00  0.00000000000E+00  0.96571332410E+02  0.96571332410E+02  0.00000000000E+00 0. -1.
         21   -1    0    0  502  503 -0.00000000000E+00 -0.00000000000E+00 -0.19311611690E+04  0.19311611690E+04  0.00000000000E+00 0. -1.
    9000005    1    1    2  501    0 -0.15909209613E+03  0.32056155277E+02 -0.94670387339E+03  0.10404739862E+04  0.40000000000E+03 0. -1.
   -9000005    1    1    2    0  503  0.15909209613E+03 -0.32056155277E+02 -0.88788596321E+03  0.98725851519E+03  0.40000000000E+03 0. -1.
<mgrwt>
<rscale>  2 0.43166873E+03</rscale>
<asrwt>0</asrwt>
<pdfrwt beam="1">  1       21 0.14857127E-01 0.43166873E+03</pdfrwt>
<pdfrwt beam="2">  1       21 0.29710174E+00 0.43166873E+03</pdfrwt>
<totfact> 0.11588738E+03</totfact>
</mgrwt>
</event>
<event>
 4    1  0.4991790E-002  0.4361318E+03  0.7818608E-02  0.1031940E+00
         21   -1    0    0  503  502  0.00000000000E+00  0.00000000000E+00  0.44016539478E+03  0.44016539478E+03  0.00000000000E+00 0. -1.
         21   -1    0    0  501  503 -0.00000000000E+00 -0.00000000000E+00 -0.45035104358E+03  0.45035104358E+03  0.00000000000E+00 0. -1.
    9000005    1    1    2  501    0 -0.17228701407E+03  0.22981448395E+02  0.84456222474E+02  0.44423396505E+03  0.40000000000E+03 0. -1.
   -9000005    1    1    2    0  502  0.17228701407E+03 -0.22981448395E+02 -0.94641871276E+02  0.44628247331E+03  0.40000000000E+03 0. -1.
<mgrwt>
<rscale>  2 0.43613182E+03</rscale>
<asrwt>0</asrwt>
<pdfrwt beam="1">  1       21 0.67717753E-01 0.43613182E+03</pdfrwt>
<pdfrwt beam="2">  1       21 0.69284776E-01 0.43613182E+03</pdfrwt>
<totfact> 0.33123447E+03</totfact>
</mgrwt>
</event>
<event>
 4    1  0.4991790E-002  0.4140337E+03  0.7818608E-02  0.1039026E+00
         21   -1    0    0  503  502  0.00000000000E+00  0.00000000000E+00  0.93840408117E+03  0.93840408117E+03  0.00000000000E+00 0.  1.
         21   -1    0    0  501  503 -0.00000000000E+00 -0.00000000000E+00 -0.54054529642E+03  0.54054529642E+03  0.00000000000E+00 0.  1.
    9000005    1    1    2  501    0  0.81826786893E+02 -0.68762253864E+02 -0.40275605590E+03  0.57761259610E+03  0.40000000000E+03 0.  1.
   -9000005    1    1    2    0  502 -0.81826786893E+02  0.68762253864E+02  0.80061484064E+03  0.90133678149E+03  0.40000000000E+03 0.  1.
<mgrwt>
<rscale>  2 0.41403366E+03</rscale>
<asrwt>0</asrwt>
<pdfrwt beam="1">  1       21 0.14436986E+00 0.41403366E+03</pdfrwt>
<pdfrwt beam="2">  1       21 0.83160815E-01 0.41403366E+03</pdfrwt>
<totfact> 0.35044950E+02</totfact>
</mgrwt>
</event>
<event>
 4    1  0.4991790E-002  0.5213632E+03  0.7818608E-02  0.1008348E+00
         21   -1    0    0  501  502  0.00000000000E+00  0.00000000000E+00  0.13329535997E+04  0.13329535997E+04  0.00000000000E+00 0.  1.
         21   -1    0    0  502  503 -0.00000000000E+00 -0.00000000000E+00 -0.25224940469E+03  0.25224940469E+03  0.00000000000E+00 0.  1.
    9000005    1    1    2  501    0 -0.94257722930E+02  0.32083489319E+03  0.88727521377E+03  0.10291145961E+04  0.40000000000E+03 0.  1.
   -9000005    1    1    2    0  503  0.94257722930E+02 -0.32083489319E+03  0.19342898125E+03  0.55608840826E+03  0.40000000000E+03 0.  1.
<mgrwt>
<rscale>  2 0.52136316E+03</rscale>
<asrwt>0</asrwt>
<pdfrwt beam="1">  1       21 0.20506978E+00 0.52136316E+03</pdfrwt>
<pdfrwt beam="2">  1       21 0.38807601E-01 0.52136316E+03</pdfrwt>
<totfact> 0.63896705E+02</totfact>
</mgrwt>
</event>
<event>
 4    1  0.4991790E-002  0.4414454E+03  0.7818608E-02  0.1030304E+00
         21   -1    0    0  503  502  0.00000000000E+00  0.00000000000E+00  0.57949014515E+03  0.57949014515E+03  0.00000000000E+00 0.  1.
         21   -1    0    0  501  503 -0.00000000000E+00 -0.00000000000E+00 -0.13175847405E+04  0.13175847405E+04  0.00000000000E+00 0.  1.
    9000005    1    1    2  501    0  0.86879235327E+02 -0.16530595977E+03 -0.11876364014E+04  0.12670257629E+04  0.40000000000E+03 0.  1.
   -9000005    1    1    2    0  502 -0.86879235327E+02  0.16530595977E+03  0.44954180598E+03  0.63004912284E+03  0.40000000000E+03 0.  1.
<mgrwt>
<rscale>  2 0.44144542E+03</rscale>
<asrwt>0</asrwt>
<pdfrwt beam="1">  1       21 0.89152331E-01 0.44144542E+03</pdfrwt>
<pdfrwt beam="2">  1       21 0.20270534E+00 0.44144542E+03</pdfrwt>
<totfact> 0.11102340E+02</totfact>
</mgrwt>
</event>
<event>
 4    1  0.4991790E-002  0.5376618E+03  0.7818608E-02  0.1004391E+00
         21   -1    0    0  501  502  0.00000000000E+00  0.00000000000E+00  0.19497567729E+03  0.19497567729E+03  0.00000000000E+00 0.  1.
         21   -1    0    0  502  503 -0.00000000000E+00 -0.00000000000E+00 -0.22582444472E+04  0.22582444472E+04  0.00000000000E+00 0.  1.
    9000005    1    1    2  501    0 -0.25239882829E+03  0.25568537992E+03 -0.31278299054E+03  0.62202361788E+03  0.40000000000E+03 0.  1.
   -9000005    1    1    2    0  503  0.25239882829E+03 -0.25568537992E+03 -0.17504857794E+04  0.18311965066E+04  0.40000000000E+03 0.  1.
<mgrwt>
<rscale>  2 0.53766177E+03</rscale>
<asrwt>0</asrwt>
<pdfrwt beam="1">  1       21 0.29996258E-01 0.53766177E+03</pdfrwt>
<pdfrwt beam="2">  1       21 0.34742223E+00 0.53766177E+03</pdfrwt>
<totfact> 0.14064372E+02</totfact>
</mgrwt>
</event>
<event>
 4    1  0.4991790E-002  0.4150555E+03  0.7818608E-02  0.1038688E+00
         21   -1    0    0  501  502  0.00000000000E+00  0.00000000000E+00  0.62063057839E+03  0.62063057839E+03  0.00000000000E+00 0.  1.
         21   -1    0    0  502  503 -0.00000000000E+00 -0.00000000000E+00 -0.35291833824E+03  0.35291833824E+03  0.00000000000E+00 0.  1.
    9000005    1    1    2  501    0  0.10184493808E+02 -0.11030559850E+03  0.35876952763E+03  0.54862247760E+03  0.40000000000E+03 0.  1.
   -9000005    1    1    2    0  503 -0.10184493808E+02  0.11030559850E+03 -0.91057287489E+02  0.42492643902E+03  0.40000000000E+03 0.  1.
<mgrwt>
<rscale>  2 0.41505548E+03</rscale>
<asrwt>0</asrwt>
<pdfrwt beam="1">  1       21 0.95481628E-01 0.41505548E+03</pdfrwt>
<pdfrwt beam="2">  1       21 0.54295129E-01 0.41505548E+03</pdfrwt>
<totfact> 0.25779412E+03</totfact>
</mgrwt>
</event>
<event>
 4    1  0.4991790E-002  0.4998968E+03  0.7818608E-02  0.1013806E+00
         21   -1    0    0  503  502  0.00000000000E+00  0.00000000000E+00  0.30352791164E+03  0.30352791164E+03  0.00000000000E+00 0.  1.
         21   -1    0    0  501  503 -0.00000000000E+00 -0.00000000000E+00 -0.85280945782E+03  0.85280945782E+03  0.00000000000E+00 0.  1.
    9000005    1    1    2  501    0 -0.17310283528E+03  0.24481059037E+03 -0.38217673458E+03  0.62925024688E+03  0.40000000000E+03 0.  1.
   -9000005    1    1    2    0  502  0.17310283528E+03 -0.24481059037E+03 -0.16710481160E+03  0.52708712259E+03  0.40000000000E+03 0.  1.
<mgrwt>
<rscale>  2 0.49989681E+03</rscale>
<asrwt>0</asrwt>
<pdfrwt beam="1">  1       21 0.46696602E-01 0.49989681E+03</pdfrwt>
<pdfrwt beam="2">  1       21 0.13120145E+00 0.49989681E+03</pdfrwt>
<totfact> 0.15562375E+03</totfact>
</mgrwt>
</event>
<event>
 4    1  0.4991790E-002  0.4407077E+03  0.7818608E-02  0.1030530E+00
         21   -1    0    0  503  502  0.00000000000E+00  0.00000000000E+00  0.24381972607E+03  0.24381972607E+03  0.00000000000E+00 0.  1.
         21   -1    0    0  501  503 -0.00000000000E+00 -0.00000000000E+00 -0.90823745642E+03  0.90823745642E+03  0.00000000000E+00 0.  1.
    9000005    1    1    2  501    0 -0.99314111518E+02 -0.15607692861E+03 -0.53417435618E+03  0.69250670985E+03  0.40000000000E+03 0.  1.
   -9000005    1    1    2    0  502  0.99314111518E+02  0.15607692861E+03 -0.13024337417E+03  0.45955047264E+03  0.40000000000E+03 0.  1.
<mgrwt>
<rscale>  2 0.44070773E+03</rscale>
<asrwt>0</asrwt>
<pdfrwt beam="1">  1       21 0.37510727E-01 0.44070773E+03</pdfrwt>
<pdfrwt beam="2">  1       21 0.13972884E+00 0.44070773E+03</pdfrwt>
<totfact> 0.21247248E+03</totfact>
</mgrwt>
</event>
<event>
 4    1  0.4991790E-002  0.4188840E+03  0.7818608E-02  0.1037430E+00
         21   -1    0    0  503  502  0.00000000000E+00  0.00000000000E+00  0.71267512012E+03  0.71267512012E+03  0.00000000000E+00 0.  1.
         21   -1    0    0  501  503 -0.00000000000E+00 -0.00000000000E+00 -0.28463282254E+03  0.28463282254E+03  0.00000000000E+00 0.  1.
    9000005    1    1    2  501    0 -0.10041431162E+03 -0.73353664088E+02  0.30796994906E+02  0.42001458178E+03  0.40000000000E+03 0.  1.
   -9000005    1    1    2    0  502  0.10041431162E+03  0.73353664088E+02  0.39724530268E+03  0.57729336088E+03  0.40000000000E+03 0.  1.
<mgrwt>
<rscale>  2 0.41888399E+03</rscale>
<asrwt>0</asrwt>
<pdfrwt beam="1">  1       21 0.10964233E+00 0.41888399E+03</pdfrwt>
<pdfrwt beam="2">  1       21 0.43789665E-01 0.41888399E+03</pdfrwt>
<totfact> 0.28959588E+03</totfact>
</mgrwt>
</event>
<event>
 4    1  0.4991790E-002  0.4062693E+03  0.7818608E-02  0.1041630E+00
         21   -1    0    0  501  502  0.00000000000E+00  0.00000000000E+00  0.42542070448E+03  0.42542070448E+03  0.00000000000E+00 0. -1.
         21   -1    0    0  502  503 -0.00000000000E+00 -0.00000000000E+00 -0.41092910256E+03  0.41092910256E+03  0.00000000000E+00 0. -1.
    9000005    1    1    2  501    0 -0.18397722550E+02 -0.68675278804E+02  0.10606842097E+03  0.41988722300E+03  0.40000000000E+03 0. -1.
   -9000005    1    1    2    0  503  0.18397722550E+02  0.68675278804E+02 -0.91576819049E+02  0.41646258403E+03  0.40000000000E+03 0. -1.
<mgrwt>
<rscale>  2 0.40626933E+03</rscale>
<asrwt>0</asrwt>
<pdfrwt beam="1">  1       21 0.65449339E-01 0.40626933E+03</pdfrwt>
<pdfrwt beam="2">  1       21 0.63219862E-01 0.40626933E+03</pdfrwt>
<totfact> 0.44298948E+03</totfact>
</mgrwt>
</event>
<event>
 4    1  0.4991790E-002  0.4252731E+03  0.7818608E-02  0.1035364E+00
         21   -1    0    0  501  502  0.00000000000E+00  0.00000000000E+00  0.37641693294E+03  0.37641693294E+03  0.00000000000E+00 0. -1.
         21   -1    0    0  502  503 -0.00000000000E+00 -0.00000000000E+00 -0.72133785470E+03  0.72133785470E+03  0.00000000000E+00 0. -1.
    9000005    1    1    2  501    0 -0.90387840167E+02  0.11263781995E+03  0.14471160741E+03  0.44922009022E+03  0.40000000000E+03 0. -1.
   -9000005    1    1    2    0  503  0.90387840167E+02 -0.11263781995E+03 -0.48963252917E+03  0.64853469742E+03  0.40000000000E+03 0. -1.
<mgrwt>
<rscale>  2 0.42527314E+03</rscale>
<asrwt>0</asrwt>
<pdfrwt beam="1">  1       21 0.57910298E-01 0.42527314E+03</pdfrwt>
<pdfrwt beam="2">  1       21 0.11097505E+00 0.42527314E+03</pdfrwt>
<totfact> 0.15468504E+03</totfact>
</mgrwt>
</event>
<event>
 4    1  0.4991790E-002  0.4609293E+03  0.7818608E-02  0.1024512E+00
         21   -1    0    0  501  502  0.00000000000E+00  0.00000000000E+00  0.59491245918E+03  0.59491245918E+03  0.00000000000E+00 0.  1.
         21   -1    0    0  502  503 -0.00000000000E+00 -0.00000000000E+00 -0.51798182471E+03  0.51798182471E+03  0.00000000000E+00 0. -1.
    9000005    1    1    2  501    0 -0.14637659635E+03  0.17615244930E+03  0.34855810295E+03  0.57788281207E+03  0.40000000000E+03 0.  1.
   -9000005    1    1    2    0  503  0.14637659635E+03 -0.17615244930E+03 -0.27162746847E+03  0.53501147182E+03  0.40000000000E+03 0. -1.
<mgrwt>
<rscale>  2 0.46092927E+03</rscale>
<asrwt>0</asrwt>
<pdfrwt beam="1">  1       21 0.91524994E-01 0.46092927E+03</pdfrwt>
<pdfrwt beam="2">  1       21 0.79689511E-01 0.46092927E+03</pdfrwt>
<totfact> 0.11917790E+03</totfact>
</mgrwt>
</event>
<event>
 4    1  0.4991790E-002  0.4075167E+03  0.7818608E-02  0.1041208E+00
         21   -1    0    0  503  502  0.00000000000E+00  0.00000000000E+00  0.31850239046E+03  0.31850239046E+03  0.00000000000E+00 0.  1.
         21   -1    0    0  501  503 -0.00000000000E+00 -0.00000000000E+00 -0.67487589334E+03  0.67487589334E+03  0.00000000000E+00 0.  1.
    9000005    1    1    2  501    0 -0.47505507948E+02  0.61749955519E+02 -0.41504083157E+03  0.58166031510E+03  0.40000000000E+03 0.  1.
   -9000005    1    1    2    0  502  0.47505507948E+02 -0.61749955519E+02  0.58667328697E+02  0.41171796870E+03  0.40000000000E+03 0.  1.
<mgrwt>
<rscale>  2 0.40751666E+03</rscale>
<asrwt>0</asrwt>
<pdfrwt beam="1">  1       21 0.49000368E-01 0.40751666E+03</pdfrwt>
<pdfrwt beam="2">  1       21 0.10382706E+00 0.40751666E+03</pdfrwt>
<totfact> 0.26272745E+03</totfact>
</mgrwt>
</event>
<event>
 4    1  0.4991790E-002  0.4776760E+03  0.7818608E-02  0.1019776E+00
         21   -1    0    0  503  502  0.00000000000E+00  0.00000000000E+00  0.10310936123E+04  0.10310936123E+04  0.00000000000E+00 0. -1.
         21   -1    0    0  501  503 -0.00000000000E+00 -0.00000000000E+00 -0.27499014544E+03  0.27499014544E+03  0.00000000000E+00 0. -1.
    9000005    1    1    2  501    0 -0.24618769586E+03 -0.86982667193E+02  0.89478635052E+02  0.48598435377E+03  0.40000000000E+03 0. -1.
   -9000005    1    1    2    0  502  0.24618769586E+03  0.86982667193E+02  0.66662483177E+03  0.82009940392E+03  0.40000000000E+03 0. -1.
<mgrwt>
<rscale>  2 0.47767601E+03</rscale>
<asrwt>0</asrwt>
<pdfrwt beam="1">  1       21 0.15862979E+00 0.47767601E+03</pdfrwt>
<pdfrwt beam="2">  1       21 0.42306177E-01 0.47767601E+03</pdfrwt>
<totfact> 0.11579300E+03</totfact>
</mgrwt>
</event>
<event>
 4    1  0.4991790E-002  0.4169462E+03  0.7818608E-02  0.1038065E+00
         21   -1    0    0  501  502  0.00000000000E+00  0.00000000000E+00  0.71503841060E+03  0.71503841060E+03  0.00000000000E+00 0. -1.
         21   -1    0    0  502  503 -0.00000000000E+00 -0.00000000000E+00 -0.28093588573E+03  0.28093588573E+03  0.00000000000E+00 0. -1.
    9000005    1    1    2  501    0  0.54769154435E+02 -0.10413673177E+03  0.39974333117E+03  0.57761479378E+03  0.40000000000E+03 0. -1.
   -9000005    1    1    2    0  503 -0.54769154435E+02  0.10413673177E+03  0.34359193696E+02  0.41835950255E+03  0.40000000000E+03 0. -1.
<mgrwt>
<rscale>  2 0.41694618E+03</rscale>
<asrwt>0</asrwt>
<pdfrwt beam="1">  1       21 0.11000591E+00 0.41694618E+03</pdfrwt>
<pdfrwt beam="2">  1       21 0.43220906E-01 0.41694618E+03</pdfrwt>
<totfact> 0.29537754E+03</totfact>
</mgrwt>
</event>
<event>
 4    1  0.4991790E-002  0.4150312E+03  0.7818608E-02  0.1038696E+00
         21   -1    0    0  501  502  0.00000000000E+00  0.00000000000E+00  0.24623684125E+03  0.24623684125E+03  0.00000000000E+00 0.  1.
         21   -1    0    0  502  503 -0.00000000000E+00 -0.00000000000E+00 -0.73820700904E+03  0.73820700904E+03  0.00000000000E+00 0.  1.
    9000005    1    1    2  501    0  0.24967370415E+02 -0.10783108155E+03 -0.13332272588E+03  0.43591955791E+03  0.40000000000E+03 0.  1.
   -9000005    1    1    2    0  503 -0.24967370415E+02  0.10783108155E+03 -0.35864744191E+03  0.54852429237E+03  0.40000000000E+03 0.  1.
<mgrwt>
<rscale>  2 0.41503122E+03</rscale>
<asrwt>0</asrwt>
<pdfrwt beam="1">  1       21 0.37882591E-01 0.41503122E+03</pdfrwt>
<pdfrwt beam="2">  1       21 0.11357031E+00 0.41503122E+03</pdfrwt>
<totfact> 0.35831287E+03</totfact>
</mgrwt>
</event>
<event>
 4    1  0.4991790E-002  0.6073952E+03  0.7818608E-02  0.9890181E-01
         21   -1    0    0  501  502  0.00000000000E+00  0.00000000000E+00  0.42720702729E+03  0.42720702729E+03  0.00000000000E+00 0. -1.
         21   -1    0    0  502  503 -0.00000000000E+00 -0.00000000000E+00 -0.89021865385E+03  0.89021865385E+03  0.00000000000E+00 0. -1.
    9000005    1    1    2  501    0  0.30634618080E+03 -0.33923585335E+03 -0.11756606421E+03  0.61866851071E+03  0.40000000000E+03 0. -1.
   -9000005    1    1    2    0  503 -0.30634618080E+03  0.33923585335E+03 -0.34544556236E+03  0.69875717044E+03  0.40000000000E+03 0. -1.
<mgrwt>
<rscale>  2 0.60739521E+03</rscale>
<asrwt>0</asrwt>
<pdfrwt beam="1">  1       21 0.65724159E-01 0.60739521E+03</pdfrwt>
<pdfrwt beam="2">  1       21 0.13695671E+00 0.60739521E+03</pdfrwt>
<totfact> 0.63778194E+02</totfact>
</mgrwt>
</event>
<event>
 4    1  0.4991790E-002  0.4277906E+03  0.7818608E-02  0.1034560E+00
         21   -1    0    0  503  502  0.00000000000E+00  0.00000000000E+00  0.12374632545E+04  0.12374632545E+04  0.00000000000E+00 0.  1.
         21   -1    0    0  501  503 -0.00000000000E+00 -0.00000000000E+00 -0.17190710603E+03  0.17190710603E+03  0.00000000000E+00 0. -1.
    9000005    1    1    2  501    0  0.12559039792E+03  0.85040473728E+02  0.26936644817E+03  0.50553250501E+03  0.40000000000E+03 0. -1.
   -9000005    1    1    2    0  502 -0.12559039792E+03 -0.85040473728E+02  0.79618970034E+03  0.90383785557E+03  0.40000000000E+03 0. -1.
<mgrwt>
<rscale>  2 0.42779064E+03</rscale>
<asrwt>0</asrwt>
<pdfrwt beam="1">  1       21 0.19037896E+00 0.42779064E+03</pdfrwt>
<pdfrwt beam="2">  1       21 0.26447248E-01 0.42779064E+03</pdfrwt>
<totfact> 0.18015909E+03</totfact>
</mgrwt>
</event>
<event>
 4    1  0.4991790E-002  0.6358729E+03  0.7818608E-02  0.9833655E-01
         21   -1    0    0  501  502  0.00000000000E+00  0.00000000000E+00  0.57027697330E+03  0.57027697330E+03  0.00000000000E+00 0. -1.
         21   -1    0    0  502  503 -0.00000000000E+00 -0.00000000000E+00 -0.77738911464E+03  0.77738911464E+03  0.00000000000E+00 0.  1.
    9000005    1    1    2  501    0  0.39160518693E+03  0.30162841367E+03  0.96283877696E+02  0.64312122299E+03  0.40000000000E+03 0. -1.
   -9000005    1    1    2    0  503 -0.39160518693E+03 -0.30162841367E+03 -0.30339601904E+03  0.70454486495E+03  0.40000000000E+03 0.  1.
<mgrwt>
<rscale>  2 0.63587288E+03</rscale>
<asrwt>0</asrwt>
<pdfrwt beam="1">  1       21 0.87734919E-01 0.63587288E+03</pdfrwt>
<pdfrwt beam="2">  1       21 0.11959833E+00 0.63587288E+03</pdfrwt>
<totfact> 0.46264131E+02</totfact>
</mgrwt>
</event>
<event>
 4    1  0.4991790E-002  0.4322540E+03  0.7818608E-02  0.1033150E+00
         21   -1    0    0  501  502  0.00000000000E+00  0.00000000000E+00  0.31121524321E+03  0.31121524321E+03  0.00000000000E+00 0.  1.
         21   -1    0    0  502  503 -0.00000000000E+00 -0.00000000000E+00 -0.79281406365E+03  0.79281406365E+03  0.00000000000E+00 0.  1.
    9000005    1    1    2  501    0 -0.73986231268E+02 -0.14618327834E+03  0.31169981152E+02  0.43337637339E+03  0.40000000000E+03 0.  1.
   -9000005    1    1    2    0  503  0.73986231268E+02  0.14618327834E+03 -0.51276880159E+03  0.67065293347E+03  0.40000000000E+03 0.  1.
<mgrwt>
<rscale>  2 0.43225399E+03</rscale>
<asrwt>0</asrwt>
<pdfrwt beam="1">  1       21 0.47879269E-01 0.43225399E+03</pdfrwt>
<pdfrwt beam="2">  1       21 0.12197139E+00 0.43225399E+03</pdfrwt>
<totfact> 0.18286086E+03</totfact>
</mgrwt>
</event>
<event>
 4    1  0.4991790E-002  0.4579780E+03  0.7818608E-02  0.1025369E+00
         21   -1    0    0  501  502  0.00000000000E+00  0.00000000000E+00  0.83303823571E+03  0.83303823571E+03  0.00000000000E+00 0. -1.
         21   -1    0    0  502  503 -0.00000000000E+00 -0.00000000000E+00 -0.25380861945E+03  0.25380861945E+03  0.00000000000E+00 0.  1.
    9000005    1    1    2  501    0 -0.16440631872E+02 -0.22242652902E+03  0.33817653860E+03  0.56930415988E+03  0.40000000000E+03 0.  1.
   -9000005    1    1    2    0  503  0.16440631872E+02  0.22242652902E+03  0.24105307766E+03  0.51754269528E+03  0.40000000000E+03 0.  1.
<mgrwt>
<rscale>  2 0.45797801E+03</rscale>
<asrwt>0</asrwt>
<pdfrwt beam="1">  1       21 0.12815973E+00 0.45797801E+03</pdfrwt>
<pdfrwt beam="2">  1       21 0.39047480E-01 0.45797801E+03</pdfrwt>
<totfact> 0.24376511E+03</totfact>
</mgrwt>
</event>
<event>
 4    1  0.4991790E-002  0.4917096E+03  0.7818608E-02  0.1015966E+00
         21   -1    0    0  503  502  0.00000000000E+00  0.00000000000E+00  0.42791914994E+03  0.42791914994E+03  0.00000000000E+00 0. -1.
         21   -1    0    0  501  503 -0.00000000000E+00 -0.00000000000E+00 -0.56747974937E+03  0.56747974937E+03  0.00000000000E+00 0. -1.
    9000005    1    1    2  501    0 -0.11005788395E+02  0.28575717904E+03 -0.10261864868E+03  0.50230357336E+03  0.40000000000E+03 0. -1.
   -9000005    1    1    2    0  502  0.11005788395E+02 -0.28575717904E+03 -0.36941950760E+02  0.49309532595E+03  0.40000000000E+03 0. -1.
<mgrwt>
<rscale>  2 0.49170956E+03</rscale>
<asrwt>0</asrwt>
<pdfrwt beam="1">  1       21 0.65833715E-01 0.49170956E+03</pdfrwt>
<pdfrwt beam="2">  1       21 0.87304577E-01 0.49170956E+03</pdfrwt>
<totfact> 0.20328494E+03</totfact>
</mgrwt>
</event>
<event>
 4    1  0.4991790E-002  0.4004363E+03  0.7818608E-02  0.1043629E+00
         21   -1    0    0  503  502  0.00000000000E+00  0.00000000000E+00  0.99457707972E+03  0.99457707972E+03  0.00000000000E+00 0. -1.
         21   -1    0    0  501  503 -0.00000000000E+00 -0.00000000000E+00 -0.26046888096E+03  0.26046888096E+03  0.00000000000E+00 0. -1.
    9000005    1    1    2  501    0 -0.13289824723E+02  0.13137937968E+02 -0.20298794237E+02  0.40095045318E+03  0.40000000000E+03 0.  1.
   -9000005    1    1    2    0  502  0.13289824723E+02 -0.13137937968E+02  0.75440699299E+03  0.85409550750E+03  0.40000000000E+03 0.  1.
<mgrwt>
<rscale>  2 0.40043629E+03</rscale>
<asrwt>0</asrwt>
<pdfrwt beam="1">  1       21 0.15301186E+00 0.40043629E+03</pdfrwt>
<pdfrwt beam="2">  1       21 0.40072136E-01 0.40043629E+03</pdfrwt>
<totfact> 0.14791548E+03</totfact>
</mgrwt>
</event>
<event>
 4    1  0.4991790E-002  0.4498675E+03  0.7818608E-02  0.1027762E+00
         21   -1    0    0  503  502  0.00000000000E+00  0.00000000000E+00  0.16074109344E+03  0.16074109344E+03  0.00000000000E+00 0.  1.
         21   -1    0    0  501  503 -0.00000000000E+00 -0.00000000000E+00 -0.14022702328E+04  0.14022702328E+04  0.00000000000E+00 0.  1.
    9000005    1    1    2  501    0  0.20233300593E+03 -0.37975396851E+02 -0.87052363873E+03  0.97989396449E+03  0.40000000000E+03 0.  1.
   -9000005    1    1    2    0  502 -0.20233300593E+03  0.37975396851E+02 -0.37100550059E+03  0.58311736170E+03  0.40000000000E+03 0.  1.
<mgrwt>
<rscale>  2 0.44986751E+03</rscale>
<asrwt>0</asrwt>
<pdfrwt beam="1">  1       21 0.24729399E-01 0.44986751E+03</pdfrwt>
<pdfrwt beam="2">  1       21 0.21573388E+00 0.44986751E+03</pdfrwt>
<totfact> 0.13813468E+03</totfact>
</mgrwt>
</event>
<event>
 4    1  0.4991790E-002  0.4333480E+03  0.7818608E-02  0.1032808E+00
         21   -1    0    0  503  502  0.00000000000E+00  0.00000000000E+00  0.16962065793E+03  0.16962065793E+03  0.00000000000E+00 0. -1.
         21   -1    0    0  501  503 -0.00000000000E+00 -0.00000000000E+00 -0.17819999147E+04  0.17819999147E+04  0.00000000000E+00 0.  1.
    9000005    1    1    2  501    0  0.11177525179E+03  0.12368031022E+03 -0.20567359384E+03  0.47967921912E+03  0.40000000000E+03 0. -1.
   -9000005    1    1    2    0  502 -0.11177525179E+03 -0.12368031022E+03 -0.14067056629E+04  0.14719413535E+04  0.40000000000E+03 0.  1.
<mgrwt>
<rscale>  2 0.43334804E+03</rscale>
<asrwt>0</asrwt>
<pdfrwt beam="1">  1       21 0.26095484E-01 0.43334804E+03</pdfrwt>
<pdfrwt beam="2">  1       21 0.27415386E+00 0.43334804E+03</pdfrwt>
<totfact> 0.54546440E+02</totfact>
</mgrwt>
</event>
<event>
 4    1  0.4991790E-002  0.4083570E+03  0.7818608E-02  0.1040924E+00
         21   -1    0    0  503  502  0.00000000000E+00  0.00000000000E+00  0.64145705852E+03  0.64145705852E+03  0.00000000000E+00 0. -1.
         21   -1    0    0  501  503 -0.00000000000E+00 -0.00000000000E+00 -0.26035545405E+03  0.26035545405E+03  0.00000000000E+00 0.  1.
    9000005    1    1    2  501    0 -0.40945324224E+02 -0.71266673952E+02  0.17305680344E+03  0.44351337704E+03  0.40000000000E+03 0.  1.
   -9000005    1    1    2    0  502  0.40945324224E+02  0.71266673952E+02  0.20804480103E+03  0.45829913553E+03  0.40000000000E+03 0.  1.
<mgrwt>
<rscale>  2 0.40835702E+03</rscale>
<asrwt>0</asrwt>
<pdfrwt beam="1">  1       21 0.98685701E-01 0.40835702E+03</pdfrwt>
<pdfrwt beam="2">  1       21 0.40054685E-01 0.40835702E+03</pdfrwt>
<totfact> 0.45254264E+03</totfact>
</mgrwt>
</event>
<event>
 4    1  0.4991790E-002  0.4060657E+03  0.7818608E-02  0.1041699E+00
         21   -1    0    0  503  502  0.00000000000E+00  0.00000000000E+00  0.22460707528E+04  0.22460707528E+04  0.00000000000E+00 0.  1.
         21   -1    0    0  501  503 -0.00000000000E+00 -0.00000000000E+00 -0.92241724620E+02  0.92241724620E+02  0.00000000000E+00 0. -1.
    9000005    1    1    2  501    0  0.29027268689E+02  0.63614547746E+02  0.54868035728E+03  0.68259763220E+03  0.40000000000E+03 0. -1.
   -9000005    1    1    2    0  502 -0.29027268689E+02 -0.63614547746E+02  0.16051486709E+04  0.16557148453E+04  0.40000000000E+03 0.  1.
<mgrwt>
<rscale>  2 0.40606575E+03</rscale>
<asrwt>0</asrwt>
<pdfrwt beam="1">  1       21 0.34554931E+00 0.40606575E+03</pdfrwt>
<pdfrwt beam="2">  1       21 0.14191036E-01 0.40606575E+03</pdfrwt>
<totfact> 0.65374685E+02</totfact>
</mgrwt>
</event>
<event>
 4    1  0.4991790E-002  0.4374725E+03  0.7818608E-02  0.1031525E+00
         21   -1    0    0  501  502  0.00000000000E+00  0.00000000000E+00  0.17084517896E+03  0.17084517896E+03  0.00000000000E+00 0.  1.
         21   -1    0    0  502  503 -0.00000000000E+00 -0.00000000000E+00 -0.13664058041E+04  0.13664058041E+04  0.00000000000E+00 0.  1.
    9000005    1    1    2  501    0 -0.15196597555E+03  0.91041266691E+02 -0.27151804664E+03  0.51488272414E+03  0.40000000000E+03 0.  1.
   -9000005    1    1    2    0  503  0.15196597555E+03 -0.91041266691E+02 -0.92404257854E+03  0.10223682590E+04  0.40000000000E+03 0.  1.
<mgrwt>
<rscale>  2 0.43747248E+03</rscale>
<asrwt>0</asrwt>
<pdfrwt beam="1">  1       21 0.26283873E-01 0.43747248E+03</pdfrwt>
<pdfrwt beam="2">  1       21 0.21021628E+00 0.43747248E+03</pdfrwt>
<totfact> 0.13394941E+03</totfact>
</mgrwt>
</event>
<event>
 4    1  0.4991790E-002  0.4568588E+03  0.7818608E-02  0.1025696E+00
         21   -1    0    0  501  502  0.00000000000E+00  0.00000000000E+00  0.19132427916E+04  0.19132427916E+04  0.00000000000E+00 0. -1.
         21   -1    0    0  502  503 -0.00000000000E+00 -0.00000000000E+00 -0.10910379312E+03  0.10910379312E+03  0.00000000000E+00 0. -1.
    9000005    1    1    2  501    0 -0.14854552053E+03  0.16326102263E+03  0.89166215193E+03  0.10018888792E+04  0.40000000000E+03 0. -1.
   -9000005    1    1    2    0  503  0.14854552053E+03 -0.16326102263E+03  0.91247684659E+03  0.10204577055E+04  0.40000000000E+03 0. -1.
<mgrwt>
<rscale>  2 0.45685877E+03</rscale>
<asrwt>0</asrwt>
<pdfrwt beam="1">  1       21 0.29434502E+00 0.45685877E+03</pdfrwt>
<pdfrwt beam="2">  1       21 0.16785200E-01 0.45685877E+03</pdfrwt>
<totfact> 0.94625394E+02</totfact>
</mgrwt>
</event>
<event>
 4    1  0.4991790E-002  0.4039919E+03  0.7818608E-02  0.1042406E+00
         21   -1    0    0  503  502  0.00000000000E+00  0.00000000000E+00  0.36862441667E+03  0.36862441667E+03  0.00000000000E+00 0.  1.
         21   -1    0    0  501  503 -0.00000000000E+00 -0.00000000000E+00 -0.47877376760E+03  0.47877376760E+03  0.00000000000E+00 0.  1.
    9000005    1    1    2  501    0 -0.37988604696E+02 -0.42027999577E+02 -0.17129180432E+03  0.43880561649E+03  0.40000000000E+03 0. -1.
   -9000005    1    1    2    0  502  0.37988604696E+02  0.42027999577E+02  0.61142453387E+02  0.40859256778E+03  0.40000000000E+03 0. -1.
<mgrwt>
<rscale>  2 0.40399194E+03</rscale>
<asrwt>0</asrwt>
<pdfrwt beam="1">  1       21 0.56711449E-01 0.40399194E+03</pdfrwt>
<pdfrwt beam="2">  1       21 0.73657503E-01 0.40399194E+03</pdfrwt>
<totfact> 0.43131587E+03</totfact>
</mgrwt>
</event>
<event>
 4    1  0.4991790E-002  0.5932002E+03  0.7818608E-02  0.9919615E-01
         21   -1    0    0  503  502  0.00000000000E+00  0.00000000000E+00  0.17577889500E+03  0.17577889500E+03  0.00000000000E+00 0.  1.
         21   -1    0    0  501  503 -0.00000000000E+00 -0.00000000000E+00 -0.24658642029E+04  0.24658642029E+04  0.00000000000E+00 0. -1.
    9000005    1    1    2  501    0  0.84796798583E+02  0.42976269796E+03 -0.17179915751E+04  0.18175207085E+04  0.40000000000E+03 0. -1.
   -9000005    1    1    2    0  502 -0.84796798583E+02 -0.42976269796E+03 -0.57209373273E+03  0.82412238936E+03  0.40000000000E+03 0.  1.
<mgrwt>
<rscale>  2 0.59320020E+03</rscale>
<asrwt>0</asrwt>
<pdfrwt beam="1">  1       21 0.27042908E-01 0.59320020E+03</pdfrwt>
<pdfrwt beam="2">  1       21 0.37936370E+00 0.59320020E+03</pdfrwt>
<totfact> 0.10589235E+02</totfact>
</mgrwt>
</event>
<event>
 4    1  0.4991790E-002  0.4229657E+03  0.7818608E-02  0.1036105E+00
         21   -1    0    0  501  502  0.00000000000E+00  0.00000000000E+00  0.50219532690E+03  0.50219532690E+03  0.00000000000E+00 0. -1.
         21   -1    0    0  502  503 -0.00000000000E+00 -0.00000000000E+00 -0.66642793733E+03  0.66642793733E+03  0.00000000000E+00 0. -1.
    9000005    1    1    2  501    0 -0.39925705273E+02  0.13155196827E+03  0.31652591033E+03  0.52828840060E+03  0.40000000000E+03 0. -1.
   -9000005    1    1    2    0  503  0.39925705273E+02 -0.13155196827E+03 -0.48075852076E+03  0.64033486363E+03  0.40000000000E+03 0. -1.
<mgrwt>
<rscale>  2 0.42296570E+03</rscale>
<asrwt>0</asrwt>
<pdfrwt beam="1">  1       21 0.77260820E-01 0.42296570E+03</pdfrwt>
<pdfrwt beam="2">  1       21 0.10252737E+00 0.42296570E+03</pdfrwt>
<totfact> 0.98902707E+02</totfact>
</mgrwt>
</event>
<event>
 4    1  0.4991790E-002  0.4335367E+03  0.7818608E-02  0.1032749E+00
         21   -1    0    0  501  502  0.00000000000E+00  0.00000000000E+00  0.26747356054E+03  0.26747356054E+03  0.00000000000E+00 0. -1.
         21   -1    0    0  502  503 -0.00000000000E+00 -0.00000000000E+00 -0.73499797755E+03  0.73499797755E+03  0.00000000000E+00 0. -1.
    9000005    1    1    2  501    0  0.75379190371E+02 -0.14923814993E+03 -0.12869258468E+03  0.45223426350E+03  0.40000000000E+03 0. -1.
   -9000005    1    1    2    0  503 -0.75379190371E+02  0.14923814993E+03 -0.33883183233E+03  0.55023727458E+03  0.40000000000E+03 0. -1.
<mgrwt>
<rscale>  2 0.43353667E+03</rscale>
<asrwt>0</asrwt>
<pdfrwt beam="1">  1       21 0.41149778E-01 0.43353667E+03</pdfrwt>
<pdfrwt beam="2">  1       21 0.11307661E+00 0.43353667E+03</pdfrwt>
<totfact> 0.30349623E+03</totfact>
</mgrwt>
</event>
<event>
 4    1  0.4991790E-002  0.6328004E+03  0.7818608E-02  0.9839599E-01
         21   -1    0    0  503  502  0.00000000000E+00  0.00000000000E+00  0.47506585876E+03  0.47506585876E+03  0.00000000000E+00 0. -1.
         21   -1    0    0  501  503 -0.00000000000E+00 -0.00000000000E+00 -0.89542497858E+03  0.89542497858E+03  0.00000000000E+00 0.  1.
    9000005    1    1    2  501    0 -0.13623243329E+03 -0.47103828781E+03 -0.37613270255E+03  0.73614682937E+03  0.40000000000E+03 0.  1.
   -9000005    1    1    2    0  502  0.13623243329E+03  0.47103828781E+03 -0.44226417272E+02  0.63434400797E+03  0.40000000000E+03 0. -1.
<mgrwt>
<rscale>  2 0.63280040E+03</rscale>
<asrwt>0</asrwt>
<pdfrwt beam="1">  1       21 0.73087056E-01 0.63280040E+03</pdfrwt>
<pdfrwt beam="2">  1       21 0.13775769E+00 0.63280040E+03</pdfrwt>
<totfact> 0.48977234E+02</totfact>
</mgrwt>
</event>
<event>
 4    1  0.4991790E-002  0.4930869E+03  0.7818608E-02  0.1015599E+00
         21   -1    0    0  503  502  0.00000000000E+00  0.00000000000E+00  0.15731180681E+03  0.15731180681E+03  0.00000000000E+00 0.  1.
         21   -1    0    0  501  503 -0.00000000000E+00 -0.00000000000E+00 -0.26498362896E+04  0.26498362896E+04  0.00000000000E+00 0. -1.
    9000005    1    1    2  501    0  0.17009190531E+03  0.23281621149E+03 -0.21523388547E+04  0.22080980934E+04  0.40000000000E+03 0. -1.
   -9000005    1    1    2    0  502 -0.17009190531E+03 -0.23281621149E+03 -0.34018562813E+03  0.59905000306E+03  0.40000000000E+03 0.  1.
<mgrwt>
<rscale>  2 0.49308685E+03</rscale>
<asrwt>0</asrwt>
<pdfrwt beam="1">  1       21 0.24201816E-01 0.49308685E+03</pdfrwt>
<pdfrwt beam="2">  1       21 0.40766713E+00 0.49308685E+03</pdfrwt>
<totfact> 0.91714814E+01</totfact>
</mgrwt>
</event>
<event>
 4    1  0.4991790E-002  0.5286111E+03  0.7818608E-02  0.1006570E+00
         21   -1    0    0  501  502  0.00000000000E+00  0.00000000000E+00  0.83523487707E+03  0.83523487707E+03  0.00000000000E+00 0. -1.
         21   -1    0    0  502  503 -0.00000000000E+00 -0.00000000000E+00 -0.81871416103E+03  0.81871416103E+03  0.00000000000E+00 0. -1.
    9000005    1    1    2  501    0  0.32686546179E+03  0.11219903937E+03  0.64420793311E+03  0.83332677602E+03  0.40000000000E+03 0. -1.
   -9000005    1    1    2    0  503 -0.32686546179E+03 -0.11219903937E+03 -0.62768721707E+03  0.82062226208E+03  0.40000000000E+03 0. -1.
<mgrwt>
<rscale>  2 0.52861106E+03</rscale>
<asrwt>0</asrwt>
<pdfrwt beam="1">  1       21 0.12849767E+00 0.52861106E+03</pdfrwt>
<pdfrwt beam="2">  1       21 0.12595602E+00 0.52861106E+03</pdfrwt>
<totfact> 0.16334184E+02</totfact>
</mgrwt>
</event>
<event>
 4    1  0.4991790E-002  0.6544584E+03  0.7818608E-02  0.9798449E-01
         21   -1    0    0  501  502  0.00000000000E+00  0.00000000000E+00  0.24129111457E+04  0.24129111457E+04  0.00000000000E+00 0.  1.
         21   -1    0    0  502  503 -0.00000000000E+00 -0.00000000000E+00 -0.19522552362E+03  0.19522552362E+03  0.00000000000E+00 0. -1.
    9000005    1    1    2  501    0  0.51534181272E+03  0.52331313153E+02  0.15016772845E+04  0.16380935312E+04  0.40000000000E+03 0.  1.
   -9000005    1    1    2    0  503 -0.51534181272E+03 -0.52331313153E+02  0.71600833761E+03  0.97004313811E+03  0.40000000000E+03 0. -1.
<mgrwt>
<rscale>  2 0.65445836E+03</rscale>
<asrwt>0</asrwt>
<pdfrwt beam="1">  1       21 0.37121708E+00 0.65445836E+03</pdfrwt>
<pdfrwt beam="2">  1       21 0.30034698E-01 0.65445836E+03</pdfrwt>
<totfact> 0.94036000E+01</totfact>
</mgrwt>
</event>
<event>
 4    1  0.4991790E-002  0.4347298E+03  0.7818608E-02  0.1032376E+00
         21   -1    0    0  503  502  0.00000000000E+00  0.00000000000E+00  0.95237919001E+02  0.95237919001E+02  0.00000000000E+00 0. -1.
         21   -1    0    0  501  503 -0.00000000000E+00 -0.00000000000E+00 -0.19860923467E+04  0.19860923467E+04  0.00000000000E+00 0. -1.
    9000005    1    1    2  501    0  0.45817521754E+02  0.16398388915E+03 -0.97582055885E+03  0.10682769886E+04  0.40000000000E+03 0. -1.
   -9000005    1    1    2    0  502 -0.45817521754E+02 -0.16398388915E+03 -0.91503386887E+03  0.10130532772E+04  0.40000000000E+03 0. -1.
<mgrwt>
<rscale>  2 0.43472976E+03</rscale>
<asrwt>0</asrwt>
<pdfrwt beam="1">  1       21 0.14651987E-01 0.43472976E+03</pdfrwt>
<pdfrwt beam="2">  1       21 0.30555267E+00 0.43472976E+03</pdfrwt>
<totfact> 0.10562230E+03</totfact>
</mgrwt>
</event>
<event>
 4    1  0.4991790E-002  0.4082797E+03  0.7818608E-02  0.1040950E+00
         21   -1    0    0  503  502  0.00000000000E+00  0.00000000000E+00  0.22017260138E+04  0.22017260138E+04  0.00000000000E+00 0.  1.
         21   -1    0    0  501  503 -0.00000000000E+00 -0.00000000000E+00 -0.15307047410E+03  0.15307047410E+03  0.00000000000E+00 0.  1.
    9000005    1    1    2  501    0  0.21091055651E+02 -0.79040838923E+02  0.18730412165E+03  0.44919385663E+03  0.40000000000E+03 0.  1.
   -9000005    1    1    2    0  502 -0.21091055651E+02  0.79040838923E+02  0.18613514181E+04  0.19056026313E+04  0.40000000000E+03 0.  1.
<mgrwt>
<rscale>  2 0.40827967E+03</rscale>
<asrwt>0</asrwt>
<pdfrwt beam="1">  1       21 0.33872706E+00 0.40827967E+03</pdfrwt>
<pdfrwt beam="2">  1       21 0.23549305E-01 0.40827967E+03</pdfrwt>
<totfact> 0.27651564E+02</totfact>
</mgrwt>
</event>
<event>
 4    1  0.4991790E-002  0.4815437E+03  0.7818608E-02  0.1018712E+00
         21   -1    0    0  501  502  0.00000000000E+00  0.00000000000E+00  0.97051745575E+03  0.97051745575E+03  0.00000000000E+00 0.  1.
         21   -1    0    0  502  503 -0.00000000000E+00 -0.00000000000E+00 -0.40376130624E+03  0.40376130624E+03  0.00000000000E+00 0.  1.
    9000005    1    1    2  501    0  0.23553762385E+02  0.26707598041E+03  0.72241819617E+03  0.86820067335E+03  0.40000000000E+03 0.  1.
   -9000005    1    1    2    0  503 -0.23553762385E+02 -0.26707598041E+03 -0.15566204667E+03  0.50607808865E+03  0.40000000000E+03 0.  1.
<mgrwt>
<rscale>  2 0.48154372E+03</rscale>
<asrwt>0</asrwt>
<pdfrwt beam="1">  1       21 0.14931038E+00 0.48154372E+03</pdfrwt>
<pdfrwt beam="2">  1       21 0.62117124E-01 0.48154372E+03</pdfrwt>
<totfact> 0.60012794E+02</totfact>
</mgrwt>
</event>
<event>
 4    1  0.4991790E-002  0.4520972E+03  0.7818608E-02  0.1027098E+00
         21   -1    0    0  501  502  0.00000000000E+00  0.00000000000E+00  0.60985631770E+03  0.60985631770E+03  0.00000000000E+00 0.  1.
         21   -1    0    0  502  503 -0.00000000000E+00 -0.00000000000E+00 -0.62443114171E+03  0.62443114171E+03  0.00000000000E+00 0.  1.
    9000005    1    1    2  501    0  0.20814527792E+03 -0.32671935408E+02  0.41276730768E+03  0.61218360185E+03  0.40000000000E+03 0.  1.
   -9000005    1    1    2    0  503 -0.20814527792E+03  0.32671935408E+02 -0.42734213169E+03  0.62210385757E+03  0.40000000000E+03 0.  1.
<mgrwt>
<rscale>  2 0.45209724E+03</rscale>
<asrwt>0</asrwt>
<pdfrwt beam="1">  1       21 0.93824049E-01 0.45209724E+03</pdfrwt>
<pdfrwt beam="2">  1       21 0.96066330E-01 0.45209724E+03</pdfrwt>
<totfact> 0.72591528E+02</totfact>
</mgrwt>
</event>
<event>
 4    1  0.4991790E-002  0.4092209E+03  0.7818608E-02  0.1040633E+00
         21   -1    0    0  503  502  0.00000000000E+00  0.00000000000E+00  0.11573012616E+03  0.11573012616E+03  0.00000000000E+00 0. -1.
         21   -1    0    0  501  503 -0.00000000000E+00 -0.00000000000E+00 -0.18152016538E+04  0.18152016538E+04  0.00000000000E+00 0. -1.
    9000005    1    1    2  501    0  0.63260390844E+02  0.58820728173E+02 -0.12845622850E+04  0.13481698777E+04  0.40000000000E+03 0. -1.
   -9000005    1    1    2    0  502 -0.63260390844E+02 -0.58820728173E+02 -0.41490924268E+03  0.58276190230E+03  0.40000000000E+03 0. -1.
<mgrwt>
<rscale>  2 0.40922091E+03</rscale>
<asrwt>0</asrwt>
<pdfrwt beam="1">  1       21 0.17804637E-01 0.40922091E+03</pdfrwt>
<pdfrwt beam="2">  1       21 0.27926177E+00 0.40922091E+03</pdfrwt>
<totfact> 0.10712255E+03</totfact>
</mgrwt>
</event>
<event>
 4    1  0.4991790E-002  0.6773213E+03  0.7818608E-02  0.9756822E-01
         21   -1    0    0  501  502  0.00000000000E+00  0.00000000000E+00  0.66017221482E+03  0.66017221482E+03  0.00000000000E+00 0. -1.
         21   -1    0    0  502  503 -0.00000000000E+00 -0.00000000000E+00 -0.86592834128E+03  0.86592834128E+03  0.00000000000E+00 0.  1.
    9000005    1    1    2  501    0 -0.26189456711E+03  0.47976592494E+03  0.23622065656E+03  0.71733137781E+03  0.40000000000E+03 0. -1.
   -9000005    1    1    2    0  503  0.26189456711E+03 -0.47976592494E+03 -0.44197678303E+03  0.80876917829E+03  0.40000000000E+03 0.  1.
<mgrwt>
<rscale>  2 0.67732127E+03</rscale>
<asrwt>0</asrwt>
<pdfrwt beam="1">  1       21 0.10156496E+00 0.67732127E+03</pdfrwt>
<pdfrwt beam="2">  1       21 0.13321974E+00 0.67732127E+03</pdfrwt>
<totfact> 0.24197490E+02</totfact>
</mgrwt>
</event>
<event>
 4    1  0.4991790E-002  0.4794273E+03  0.7818608E-02  0.1019293E+00
         21   -1    0    0  501  502  0.00000000000E+00  0.00000000000E+00  0.17716132232E+03  0.17716132232E+03  0.00000000000E+00 0.  1.
         21   -1    0    0  502  503 -0.00000000000E+00 -0.00000000000E+00 -0.13501548868E+04  0.13501548868E+04  0.00000000000E+00 0.  1.
    9000005    1    1    2  501    0  0.21948680248E+03  0.14722798457E+03 -0.73743705919E+03  0.87958169159E+03  0.40000000000E+03 0.  1.
   -9000005    1    1    2    0  503 -0.21948680248E+03 -0.14722798457E+03 -0.43555650529E+03  0.64773451754E+03  0.40000000000E+03 0.  1.
<mgrwt>
<rscale>  2 0.47942730E+03</rscale>
<asrwt>0</asrwt>
<pdfrwt beam="1">  1       21 0.27255589E-01 0.47942730E+03</pdfrwt>
<pdfrwt beam="2">  1       21 0.20771613E+00 0.47942730E+03</pdfrwt>
<totfact> 0.12712178E+03</totfact>
</mgrwt>
</event>
<event>
 4    1  0.4991790E-002  0.4619967E+03  0.7818608E-02  0.1024204E+00
         21   -1    0    0  503  502  0.00000000000E+00  0.00000000000E+00  0.41902267534E+03  0.41902267534E+03  0.00000000000E+00 0.  1.
         21   -1    0    0  501  503 -0.00000000000E+00 -0.00000000000E+00 -0.83972986693E+03  0.83972986693E+03  0.00000000000E+00 0.  1.
    9000005    1    1    2  501    0 -0.10079701462E+03  0.20804056375E+03 -0.60510981054E+03  0.76131386243E+03  0.40000000000E+03 0.  1.
   -9000005    1    1    2    0  502  0.10079701462E+03 -0.20804056375E+03  0.18440261895E+03  0.49743867984E+03  0.40000000000E+03 0.  1.
<mgrwt>
<rscale>  2 0.46199666E+03</rscale>
<asrwt>0</asrwt>
<pdfrwt beam="1">  1       21 0.64465028E-01 0.46199666E+03</pdfrwt>
<pdfrwt beam="2">  1       21 0.12918921E+00 0.46199666E+03</pdfrwt>
<totfact> 0.81852095E+02</totfact>
</mgrwt>
</event>
<event>
 4    1  0.4991790E-002  0.4989577E+03  0.7818608E-02  0.1014051E+00
         21   -1    0    0  503  502  0.00000000000E+00  0.00000000000E+00  0.42178585664E+03  0.42178585664E+03  0.00000000000E+00 0.  1.
         21   -1    0    0  501  503 -0.00000000000E+00 -0.00000000000E+00 -0.62551339816E+03  0.62551339816E+03  0.00000000000E+00 0.  1.
    9000005    1    1    2  501    0  0.26411487929E+03  0.13857154576E+03 -0.22619774449E+03  0.54783589000E+03  0.40000000000E+03 0.  1.
   -9000005    1    1    2    0  502 -0.26411487929E+03 -0.13857154576E+03  0.22470202970E+02  0.49946336480E+03  0.40000000000E+03 0.  1.
<mgrwt>
<rscale>  2 0.49895766E+03</rscale>
<asrwt>0</asrwt>
<pdfrwt beam="1">  1       21 0.64890132E-01 0.49895766E+03</pdfrwt>
<pdfrwt beam="2">  1       21 0.96232830E-01 0.49895766E+03</pdfrwt>
<totfact> 0.16603398E+03</totfact>
</mgrwt>
</event>
<event>
 4    1  0.4991790E-002  0.4207404E+03  0.7818608E-02  0.1036826E+00
         21   -1    0    0  503  502  0.00000000000E+00  0.00000000000E+00  0.85387820244E+02  0.85387820244E+02  0.00000000000E+00 0.  1.
         21   -1    0    0  501  503 -0.00000000000E+00 -0.00000000000E+00 -0.21302975593E+04  0.21302975593E+04  0.00000000000E+00 0.  1.
    9000005    1    1    2  501    0 -0.11626708859E+03  0.59198137810E+02 -0.12038918612E+04  0.12752952870E+04  0.40000000000E+03 0.  1.
   -9000005    1    1    2    0  502  0.11626708859E+03 -0.59198137810E+02 -0.84101787784E+03  0.94039009260E+03  0.40000000000E+03 0.  1.
<mgrwt>
<rscale>  2 0.42074037E+03</rscale>
<asrwt>0</asrwt>
<pdfrwt beam="1">  1       21 0.13136588E-01 0.42074037E+03</pdfrwt>
<pdfrwt beam="2">  1       21 0.32773809E+00 0.42074037E+03</pdfrwt>
<totfact> 0.95729312E+02</totfact>
</mgrwt>
</event>
<event>
 4    1  0.4991790E-002  0.4764461E+03  0.7818608E-02  0.1020116E+00
         21   -1    0    0  501  502  0.00000000000E+00  0.00000000000E+00  0.41624641032E+03  0.41624641032E+03  0.00000000000E+00 0.  1.
         21   -1    0    0  502  503 -0.00000000000E+00 -0.00000000000E+00 -0.93524603829E+03  0.93524603829E+03  0.00000000000E+00 0.  1.
    9000005    1    1    2  501    0  0.19471372823E+03 -0.17055050783E+03 -0.69580849459E+03  0.84329732172E+03  0.40000000000E+03 0.  1.
   -9000005    1    1    2    0  503 -0.19471372823E+03  0.17055050783E+03  0.17680886662E+03  0.50819512689E+03  0.40000000000E+03 0.  1.
<mgrwt>
<rscale>  2 0.47644613E+03</rscale>
<asrwt>0</asrwt>
<pdfrwt beam="1">  1       21 0.64037909E-01 0.47644613E+03</pdfrwt>
<pdfrwt beam="2">  1       21 0.14388401E+00 0.47644613E+03</pdfrwt>
<totfact> 0.62138931E+02</totfact>
</mgrwt>
</event>
<event>
 4    1  0.4991790E-002  0.5175568E+03  0.7818608E-02  0.1009295E+00
         21   -1    0    0  503  502  0.00000000000E+00  0.00000000000E+00  0.77019841359E+03  0.77019841359E+03  0.00000000000E+00 0. -1.
         21   -1    0    0  501  503 -0.00000000000E+00 -0.00000000000E+00 -0.35097074869E+03  0.35097074869E+03  0.00000000000E+00 0. -1.
    9000005    1    1    2  501    0 -0.54674992587E+02 -0.32384515023E+03  0.15622240986E+03  0.54062045604E+03  0.40000000000E+03 0. -1.
   -9000005    1    1    2    0  502  0.54674992587E+02  0.32384515023E+03  0.26300525504E+03  0.58054870624E+03  0.40000000000E+03 0. -1.
<mgrwt>
<rscale>  2 0.51755680E+03</rscale>
<asrwt>0</asrwt>
<pdfrwt beam="1">  1       21 0.11849206E+00 0.51755680E+03</pdfrwt>
<pdfrwt beam="2">  1       21 0.53995500E-01 0.51755680E+03</pdfrwt>
<totfact> 0.14755154E+03</totfact>
</mgrwt>
</event>
<event>
 4    1  0.4991790E-002  0.4267504E+03  0.7818608E-02  0.1034891E+00
         21   -1    0    0  501  502  0.00000000000E+00  0.00000000000E+00  0.73435084168E+02  0.73435084168E+02  0.00000000000E+00 0. -1.
         21   -1    0    0  502  503 -0.00000000000E+00 -0.00000000000E+00 -0.25302709962E+04  0.25302709962E+04  0.00000000000E+00 0. -1.
    9000005    1    1    2  501    0 -0.11708883928E+03  0.91685006351E+02 -0.14119947647E+04  0.14750746260E+04  0.40000000000E+03 0.  1.
   -9000005    1    1    2    0  503  0.11708883928E+03 -0.91685006351E+02 -0.10448411473E+04  0.11286314544E+04  0.40000000000E+03 0.  1.
<mgrwt>
<rscale>  2 0.42675044E+03</rscale>
<asrwt>0</asrwt>
<pdfrwt beam="1">  1       21 0.11297705E-01 0.42675044E+03</pdfrwt>
<pdfrwt beam="2">  1       21 0.38927247E+00 0.42675044E+03</pdfrwt>
<totfact> 0.52372603E+02</totfact>
</mgrwt>
</event>
<event>
 4    1  0.4991790E-002  0.5119566E+03  0.7818608E-02  0.1010704E+00
         21   -1    0    0  501  502  0.00000000000E+00  0.00000000000E+00  0.47604595360E+03  0.47604595360E+03  0.00000000000E+00 0. -1.
         21   -1    0    0  502  503 -0.00000000000E+00 -0.00000000000E+00 -0.59053568810E+03  0.59053568810E+03  0.00000000000E+00 0. -1.
    9000005    1    1    2  501    0 -0.24748217217E+03 -0.20211911636E+03  0.81478972041E+02  0.51839983181E+03  0.40000000000E+03 0. -1.
   -9000005    1    1    2    0  503  0.24748217217E+03  0.20211911636E+03 -0.19596870654E+03  0.54818180988E+03  0.40000000000E+03 0. -1.
<mgrwt>
<rscale>  2 0.51195660E+03</rscale>
<asrwt>0</asrwt>
<pdfrwt beam="1">  1       21 0.73237839E-01 0.51195660E+03</pdfrwt>
<pdfrwt beam="2">  1       21 0.90851644E-01 0.51195660E+03</pdfrwt>
<totfact> 0.14447603E+03</totfact>
</mgrwt>
</event>
<event>
 4    1  0.4991790E-002  0.5101800E+03  0.7818608E-02  0.1011155E+00
         21   -1    0    0  503  502  0.00000000000E+00  0.00000000000E+00  0.21187986766E+04  0.21187986766E+04  0.00000000000E+00 0.  1.
         21   -1    0    0  501  503 -0.00000000000E+00 -0.00000000000E+00 -0.12367974411E+03  0.12367974411E+03  0.00000000000E+00 0.  1.
    9000005    1    1    2  501    0 -0.30609760335E+03 -0.81165507082E+02  0.90543918210E+03  0.10392803735E+04  0.40000000000E+03 0.  1.
   -9000005    1    1    2    0  502  0.30609760335E+03  0.81165507082E+02  0.10896797504E+04  0.12031980472E+04  0.40000000000E+03 0.  1.
<mgrwt>
<rscale>  2 0.51017995E+03</rscale>
<asrwt>0</asrwt>
<pdfrwt beam="1">  1       21 0.32596900E+00 0.51017995E+03</pdfrwt>
<pdfrwt beam="2">  1       21 0.19027654E-01 0.51017995E+03</pdfrwt>
<totfact> 0.46781851E+02</totfact>
</mgrwt>
</event>
<event>
 4    1  0.4991790E-002  0.4115396E+03  0.7818608E-02  0.1039856E+00
         21   -1    0    0  501  502  0.00000000000E+00  0.00000000000E+00  0.35734692896E+03  0.35734692896E+03  0.00000000000E+00 0. -1.
         21   -1    0    0  502  503 -0.00000000000E+00 -0.00000000000E+00 -0.47639221390E+03  0.47639221390E+03  0.00000000000E+00 0. -1.
    9000005    1    1    2  501    0 -0.16813902227E+02 -0.95300086793E+02 -0.89366212344E+02  0.42113077988E+03  0.40000000000E+03 0. -1.
   -9000005    1    1    2    0  503  0.16813902227E+02  0.95300086793E+02 -0.29679072598E+02  0.41260836298E+03  0.40000000000E+03 0. -1.
<mgrwt>
<rscale>  2 0.41153957E+03</rscale>
<asrwt>0</asrwt>
<pdfrwt beam="1">  1       21 0.54976451E-01 0.41153957E+03</pdfrwt>
<pdfrwt beam="2">  1       21 0.73291109E-01 0.41153957E+03</pdfrwt>
<totfact> 0.46517772E+03</totfact>
</mgrwt>
</event>
<event>
 4    1  0.4991790E-002  0.4869296E+03  0.7818608E-02  0.1017248E+00
         21   -1    0    0  503  502  0.00000000000E+00  0.00000000000E+00  0.29537770911E+03  0.29537770911E+03  0.00000000000E+00 0. -1.
         21   -1    0    0  501  503 -0.00000000000E+00 -0.00000000000E+00 -0.93128686202E+03  0.93128686202E+03  0.00000000000E+00 0. -1.
    9000005    1    1    2  501    0  0.22277967059E+03  0.16573982203E+03 -0.54585645761E+03  0.73147777995E+03  0.40000000000E+03 0. -1.
   -9000005    1    1    2    0  502 -0.22277967059E+03 -0.16573982203E+03 -0.90052695299E+02  0.49518679119E+03  0.40000000000E+03 0. -1.
<mgrwt>
<rscale>  2 0.48692964E+03</rscale>
<asrwt>0</asrwt>
<pdfrwt beam="1">  1       21 0.45442724E-01 0.48692964E+03</pdfrwt>
<pdfrwt beam="2">  1       21 0.14327490E+00 0.48692964E+03</pdfrwt>
<totfact> 0.13117779E+03</totfact>
</mgrwt>
</event>
<event>
 4    1  0.4991790E-002  0.4189735E+03  0.7818608E-02  0.1037401E+00
         21   -1    0    0  503  502  0.00000000000E+00  0.00000000000E+00  0.25552736213E+03  0.25552736213E+03  0.00000000000E+00 0. -1.
         21   -1    0    0  501  503 -0.00000000000E+00 -0.00000000000E+00 -0.10367316863E+04  0.10367316863E+04  0.00000000000E+00 0. -1.
    9000005    1    1    2  501    0 -0.12437530631E+03 -0.83413270159E+01 -0.76589869434E+03  0.87300607360E+03  0.40000000000E+03 0. -1.
   -9000005    1    1    2    0  502  0.12437530631E+03  0.83413270159E+01 -0.15305629790E+02  0.41925297478E+03  0.40000000000E+03 0. -1.
<mgrwt>
<rscale>  2 0.41897350E+03</rscale>
<asrwt>0</asrwt>
<pdfrwt beam="1">  1       21 0.39311902E-01 0.41897350E+03</pdfrwt>
<pdfrwt beam="2">  1       21 0.15949718E+00 0.41897350E+03</pdfrwt>
<totfact> 0.13608347E+03</totfact>
</mgrwt>
</event>
<event>
 4    1  0.4991790E-002  0.4257226E+03  0.7818608E-02  0.1035220E+00
         21   -1    0    0  503  502  0.00000000000E+00  0.00000000000E+00  0.41307933394E+03  0.41307933394E+03  0.00000000000E+00 0.  1.
         21   -1    0    0  501  503 -0.00000000000E+00 -0.00000000000E+00 -0.66992624600E+03  0.66992624600E+03  0.00000000000E+00 0.  1.
    9000005    1    1    2  501    0 -0.13718744464E+03  0.49186503966E+02 -0.44651797957E+03  0.61694247156E+03  0.40000000000E+03 0.  1.
   -9000005    1    1    2    0  502  0.13718744464E+03 -0.49186503966E+02  0.18967106750E+03  0.46606310837E+03  0.40000000000E+03 0.  1.
<mgrwt>
<rscale>  2 0.42572257E+03</rscale>
<asrwt>0</asrwt>
<pdfrwt beam="1">  1       21 0.63550667E-01 0.42572257E+03</pdfrwt>
<pdfrwt beam="2">  1       21 0.10306558E+00 0.42572257E+03</pdfrwt>
<totfact> 0.15135804E+03</totfact>
</mgrwt>
</event>
<event>
 4    1  0.4991790E-002  0.4093659E+03  0.7818608E-02  0.1040584E+00
         21   -1    0    0  503  502  0.00000000000E+00  0.00000000000E+00  0.50012543811E+03  0.50012543811E+03  0.00000000000E+00 0.  1.
         21   -1    0    0  501  503 -0.00000000000E+00 -0.00000000000E+00 -0.37169809901E+03  0.37169809901E+03  0.00000000000E+00 0.  1.
    9000005    1    1    2  501    0 -0.85988692816E+02  0.13651013707E+02 -0.72612952150E+02  0.41575599369E+03  0.40000000000E+03 0.  1.
   -9000005    1    1    2    0  502  0.85988692816E+02 -0.13651013707E+02  0.20104029124E+03  0.45606754343E+03  0.40000000000E+03 0.  1.
<mgrwt>
<rscale>  2 0.40936586E+03</rscale>
<asrwt>0</asrwt>
<pdfrwt beam="1">  1       21 0.76942375E-01 0.40936586E+03</pdfrwt>
<pdfrwt beam="2">  1       21 0.57184323E-01 0.40936586E+03</pdfrwt>
<totfact> 0.38277124E+03</totfact>
</mgrwt>
</event>
<event>
 4    1  0.4991790E-002  0.4883223E+03  0.7818608E-02  0.1016873E+00
         21   -1    0    0  501  502  0.00000000000E+00  0.00000000000E+00  0.35119554298E+03  0.35119554298E+03  0.00000000000E+00 0. -1.
         21   -1    0    0  502  503 -0.00000000000E+00 -0.00000000000E+00 -0.88894502381E+03  0.88894502381E+03  0.00000000000E+00 0.  1.
    9000005    1    1    2  501    0  0.21122315080E+02 -0.27930721213E+03 -0.57022071690E+03  0.75073985969E+03  0.40000000000E+03 0.  1.
   -9000005    1    1    2    0  503 -0.21122315080E+02  0.27930721213E+03  0.32471236059E+02  0.48940070710E+03  0.40000000000E+03 0. -1.
<mgrwt>
<rscale>  2 0.48832230E+03</rscale>
<asrwt>0</asrwt>
<pdfrwt beam="1">  1       21 0.54030084E-01 0.48832230E+03</pdfrwt>
<pdfrwt beam="2">  1       21 0.13676077E+00 0.48832230E+03</pdfrwt>
<totfact> 0.10270010E+03</totfact>
</mgrwt>
</event>
<event>
 4    1  0.4991790E-002  0.4480525E+03  0.7818608E-02  0.1028304E+00
         21   -1    0    0  503  502  0.00000000000E+00  0.00000000000E+00  0.36803324244E+03  0.36803324244E+03  0.00000000000E+00 0.  1.
         21   -1    0    0  501  503 -0.00000000000E+00 -0.00000000000E+00 -0.11646942360E+04  0.11646942360E+04  0.00000000000E+00 0.  1.
    9000005    1    1    2  501    0  0.20046664990E+03  0.23751741072E+02 -0.95712615652E+03  0.10568072210E+04  0.40000000000E+03 0.  1.
   -9000005    1    1    2    0  502 -0.20046664990E+03 -0.23751741072E+02  0.16046516293E+03  0.47592025744E+03  0.40000000000E+03 0.  1.
<mgrwt>
<rscale>  2 0.44805248E+03</rscale>
<asrwt>0</asrwt>
<pdfrwt beam="1">  1       21 0.56620500E-01 0.44805248E+03</pdfrwt>
<pdfrwt beam="2">  1       21 0.17918373E+00 0.44805248E+03</pdfrwt>
<totfact> 0.44688818E+02</totfact>
</mgrwt>
</event>
<event>
 4    1  0.4991790E-002  0.4221785E+03  0.7818608E-02  0.1036360E+00
         21   -1    0    0  501  502  0.00000000000E+00  0.00000000000E+00  0.32448029164E+03  0.32448029164E+03  0.00000000000E+00 0.  1.
         21   -1    0    0  502  503 -0.00000000000E+00 -0.00000000000E+00 -0.60634998357E+03  0.60634998357E+03  0.00000000000E+00 0.  1.
    9000005    1    1    2  501    0 -0.80972625298E+02 -0.10806542731E+03  0.18341194903E+01  0.42218250393E+03  0.40000000000E+03 0.  1.
   -9000005    1    1    2    0  503  0.80972625298E+02  0.10806542731E+03 -0.28370381142E+03  0.50864777129E+03  0.40000000000E+03 0.  1.
<mgrwt>
<rscale>  2 0.42217852E+03</rscale>
<asrwt>0</asrwt>
<pdfrwt beam="1">  1       21 0.49920045E-01 0.42217852E+03</pdfrwt>
<pdfrwt beam="2">  1       21 0.93284612E-01 0.42217852E+03</pdfrwt>
<totfact> 0.32524266E+03</totfact>
</mgrwt>
</event>
<event>
 4    1  0.4991790E-002  0.5050457E+03  0.7818608E-02  0.1012470E+00
         21   -1    0    0  501  502  0.00000000000E+00  0.00000000000E+00  0.90373558791E+03  0.90373558791E+03  0.00000000000E+00 0. -1.
         21   -1    0    0  502  503 -0.00000000000E+00 -0.00000000000E+00 -0.52399889117E+03  0.52399889117E+03  0.00000000000E+00 0. -1.
    9000005    1    1    2  501    0  0.28062427764E+03 -0.12775440707E+03  0.67475771380E+03  0.84283399674E+03  0.40000000000E+03 0. -1.
   -9000005    1    1    2    0  503 -0.28062427764E+03  0.12775440707E+03 -0.29502101707E+03  0.58490048234E+03  0.40000000000E+03 0. -1.
<mgrwt>
<rscale>  2 0.50504571E+03</rscale>
<asrwt>0</asrwt>
<pdfrwt beam="1">  1       21 0.13903624E+00 0.50504571E+03</pdfrwt>
<pdfrwt beam="2">  1       21 0.80615214E-01 0.50504571E+03</pdfrwt>
<totfact> 0.39923368E+02</totfact>
</mgrwt>
</event>
<event>
 4    1  0.4991790E-002  0.4452662E+03  0.7818608E-02  0.1029143E+00
         21   -1    0    0  501  502  0.00000000000E+00  0.00000000000E+00  0.66867644755E+03  0.66867644755E+03  0.00000000000E+00 0. -1.
         21   -1    0    0  502  503 -0.00000000000E+00 -0.00000000000E+00 -0.54296393843E+03  0.54296393843E+03  0.00000000000E+00 0. -1.
    9000005    1    1    2  501    0 -0.51085244913E+02  0.18881817806E+03  0.47102117979E+03  0.64816892738E+03  0.40000000000E+03 0. -1.
   -9000005    1    1    2    0  503  0.51085244913E+02 -0.18881817806E+03 -0.34530867066E+03  0.56347145859E+03  0.40000000000E+03 0. -1.
<mgrwt>
<rscale>  2 0.44526622E+03</rscale>
<asrwt>0</asrwt>
<pdfrwt beam="1">  1       21 0.10287330E+00 0.44526622E+03</pdfrwt>
<pdfrwt beam="2">  1       21 0.83532914E-01 0.44526622E+03</pdfrwt>
<totfact> 0.81116465E+02</totfact>
</mgrwt>
</event>
<event>
 4    1  0.4991790E-002  0.5666222E+03  0.7818608E-02  0.9977181E-01
         21   -1    0    0  501  502  0.00000000000E+00  0.00000000000E+00  0.83724042196E+03  0.83724042196E+03  0.00000000000E+00 0.  1.
         21   -1    0    0  502  503 -0.00000000000E+00 -0.00000000000E+00 -0.38366699535E+03  0.38366699535E+03  0.00000000000E+00 0. -1.
    9000005    1    1    2  501    0 -0.18437049347E+03 -0.35646630389E+03  0.24044543972E+03  0.61552799623E+03  0.40000000000E+03 0. -1.
   -9000005    1    1    2    0  503  0.18437049347E+03  0.35646630389E+03  0.21312798688E+03  0.60537942107E+03  0.40000000000E+03 0.  1.
<mgrwt>
<rscale>  2 0.56662219E+03</rscale>
<asrwt>0</asrwt>
<pdfrwt beam="1">  1       21 0.12880622E+00 0.56662219E+03</pdfrwt>
<pdfrwt beam="2">  1       21 0.59025692E-01 0.56662219E+03</pdfrwt>
<totfact> 0.96406273E+02</totfact>
</mgrwt>
</event>
<event>
 4    1  0.4991790E-002  0.4455827E+03  0.7818608E-02  0.1029048E+00
         21   -1    0    0  503  502  0.00000000000E+00  0.00000000000E+00  0.49985052738E+03  0.49985052738E+03  0.00000000000E+00 0. -1.
         21   -1    0    0  501  503 -0.00000000000E+00 -0.00000000000E+00 -0.53134805016E+03  0.53134805016E+03  0.00000000000E+00 0. -1.
    9000005    1    1    2  501    0 -0.17612478914E+03  0.86740997909E+02 -0.27481106234E+03  0.52351223677E+03  0.40000000000E+03 0. -1.
   -9000005    1    1    2    0  502  0.17612478914E+03 -0.86740997909E+02  0.24331353956E+03  0.50768634077E+03  0.40000000000E+03 0. -1.
<mgrwt>
<rscale>  2 0.44558270E+03</rscale>
<asrwt>0</asrwt>
<pdfrwt beam="1">  1       21 0.76900081E-01 0.44558270E+03</pdfrwt>
<pdfrwt beam="2">  1       21 0.81745854E-01 0.44558270E+03</pdfrwt>
<totfact> 0.16969821E+03</totfact>
</mgrwt>
</event>
<event>
 4    1  0.4991790E-002  0.4476450E+03  0.7818608E-02  0.1028427E+00
         21   -1    0    0  503  502  0.00000000000E+00  0.00000000000E+00  0.25774513931E+04  0.25774513931E+04  0.00000000000E+00 0.  1.
         21   -1    0    0  501  503 -0.00000000000E+00 -0.00000000000E+00 -0.88199181926E+02  0.88199181926E+02  0.00000000000E+00 0.  1.
    9000005    1    1    2  501    0 -0.15168838625E+03 -0.13182072660E+03  0.78577799067E+03  0.90434126363E+03  0.40000000000E+03 0.  1.
   -9000005    1    1    2    0  502  0.15168838625E+03  0.13182072660E+03  0.17034742205E+04  0.17613093114E+04  0.40000000000E+03 0.  1.
<mgrwt>
<rscale>  2 0.44764503E+03</rscale>
<asrwt>0</asrwt>
<pdfrwt beam="1">  1       21 0.39653092E+00 0.44764503E+03</pdfrwt>
<pdfrwt beam="2">  1       21 0.13569107E-01 0.44764503E+03</pdfrwt>
<totfact> 0.33246863E+02</totfact>
</mgrwt>
</event>
<event>
 4    1  0.4991790E-002  0.4515611E+03  0.7818608E-02  0.1027258E+00
         21   -1    0    0  501  502  0.00000000000E+00  0.00000000000E+00  0.65896515765E+03  0.65896515765E+03  0.00000000000E+00 0.  1.
         21   -1    0    0  502  503 -0.00000000000E+00 -0.00000000000E+00 -0.32247245022E+03  0.32247245022E+03  0.00000000000E+00 0. -1.
    9000005    1    1    2  501    0 -0.90902256792E+02 -0.18879680103E+03  0.26691254084E+03  0.52454719218E+03  0.40000000000E+03 0. -1.
   -9000005    1    1    2    0  503  0.90902256792E+02  0.18879680103E+03  0.69580166590E+02  0.45689041569E+03  0.40000000000E+03 0. -1.
<mgrwt>
<rscale>  2 0.45156113E+03</rscale>
<asrwt>0</asrwt>
<pdfrwt beam="1">  1       21 0.10137925E+00 0.45156113E+03</pdfrwt>
<pdfrwt beam="2">  1       21 0.49611146E-01 0.45156113E+03</pdfrwt>
<totfact> 0.26677559E+03</totfact>
</mgrwt>
</event>
<event>
 4    1  0.4991790E-002  0.4404429E+03  0.7818608E-02  0.1030611E+00
         21   -1    0    0  503  502  0.00000000000E+00  0.00000000000E+00  0.12562481613E+03  0.12562481613E+03  0.00000000000E+00 0.  1.
         21   -1    0    0  501  503 -0.00000000000E+00 -0.00000000000E+00 -0.15442773171E+04  0.15442773171E+04  0.00000000000E+00 0. -1.
    9000005    1    1    2  501    0  0.11050421935E+03 -0.14757621836E+03 -0.71520930783E+03  0.83994897269E+03  0.40000000000E+03 0. -1.
   -9000005    1    1    2    0  502 -0.11050421935E+03  0.14757621836E+03 -0.70344319318E+03  0.82995316057E+03  0.40000000000E+03 0. -1.
<mgrwt>
<rscale>  2 0.44044287E+03</rscale>
<asrwt>0</asrwt>
<pdfrwt beam="1">  1       21 0.19326894E-01 0.44044287E+03</pdfrwt>
<pdfrwt beam="2">  1       21 0.23758113E+00 0.44044287E+03</pdfrwt>
<totfact> 0.16199982E+03</totfact>
</mgrwt>
</event>
<event>
 4    1  0.4991790E-002  0.4014937E+03  0.7818608E-02  0.1043264E+00
         21   -1    0    0  501  502  0.00000000000E+00  0.00000000000E+00  0.30668645130E+03  0.30668645130E+03  0.00000000000E+00 0. -1.
         21   -1    0    0  502  503 -0.00000000000E+00 -0.00000000000E+00 -0.52613254943E+03  0.52613254943E+03  0.00000000000E+00 0. -1.
    9000005    1    1    2  501    0 -0.15807299378E+02 -0.30778877863E+02 -0.12285662035E+03  0.41987016946E+03  0.40000000000E+03 0. -1.
   -9000005    1    1    2    0  503  0.15807299378E+02  0.30778877863E+02 -0.96589477776E+02  0.41294883128E+03  0.40000000000E+03 0. -1.
<mgrwt>
<rscale>  2 0.40149372E+03</rscale>
<asrwt>0</asrwt>
<pdfrwt beam="1">  1       21 0.47182531E-01 0.40149372E+03</pdfrwt>
<pdfrwt beam="2">  1       21 0.80943469E-01 0.40149372E+03</pdfrwt>
<totfact> 0.51511210E+03</totfact>
</mgrwt>
</event>
<event>
 4    1  0.4991790E-002  0.5513467E+03  0.7818608E-02  0.1001183E+00
         21   -1    0    0  503  502  0.00000000000E+00  0.00000000000E+00  0.61917377686E+03  0.61917377686E+03  0.00000000000E+00 0. -1.
         21   -1    0    0  501  503 -0.00000000000E+00 -0.00000000000E+00 -0.49787363673E+03  0.49787363673E+03  0.00000000000E+00 0.  1.
    9000005    1    1    2  501    0  0.21103681795E+03 -0.31535153775E+03  0.12651603811E+03  0.56567609000E+03  0.40000000000E+03 0. -1.
   -9000005    1    1    2    0  502 -0.21103681795E+03  0.31535153775E+03 -0.52158979753E+01  0.55137132360E+03  0.40000000000E+03 0. -1.
<mgrwt>
<rscale>  2 0.55134665E+03</rscale>
<asrwt>0</asrwt>
<pdfrwt beam="1">  1       21 0.95257504E-01 0.55134665E+03</pdfrwt>
<pdfrwt beam="2">  1       21 0.76595944E-01 0.55134665E+03</pdfrwt>
<totfact> 0.11488701E+03</totfact>
</mgrwt>
</event>
<event>
 4    1  0.4991790E-002  0.4452401E+03  0.7818608E-02  0.1029151E+00
         21   -1    0    0  501  502  0.00000000000E+00  0.00000000000E+00  0.15770875746E+04  0.15770875746E+04  0.00000000000E+00 0.  1.
         21   -1    0    0  502  503 -0.00000000000E+00 -0.00000000000E+00 -0.14327959136E+03  0.14327959136E+03  0.00000000000E+00 0.  1.
    9000005    1    1    2  501    0  0.16636805462E+03 -0.10276382637E+03  0.10182133144E+04  0.11113042280E+04  0.40000000000E+03 0.  1.
   -9000005    1    1    2    0  503 -0.16636805462E+03  0.10276382637E+03  0.41559466883E+03  0.60906293794E+03  0.40000000000E+03 0.  1.
<mgrwt>
<rscale>  2 0.44524009E+03</rscale>
<asrwt>0</asrwt>
<pdfrwt beam="1">  1       21 0.24262885E+00 0.44524009E+03</pdfrwt>
<pdfrwt beam="2">  1       21 0.22043015E-01 0.44524009E+03</pdfrwt>
<totfact> 0.11700452E+03</totfact>
</mgrwt>
</event>
<event>
 4    1  0.4991790E-002  0.4914005E+03  0.7818608E-02  0.1016048E+00
         21   -1    0    0  503  502  0.00000000000E+00  0.00000000000E+00  0.13368892983E+03  0.13368892983E+03  0.00000000000E+00 0. -1.
         21   -1    0    0  501  503 -0.00000000000E+00 -0.00000000000E+00 -0.18177711274E+04  0.18177711274E+04  0.00000000000E+00 0. -1.
    9000005    1    1    2  501    0  0.16381632697E+03  0.23374919747E+03 -0.91974987670E+03  0.10427915957E+04  0.40000000000E+03 0. -1.
   -9000005    1    1    2    0  502 -0.16381632697E+03 -0.23374919747E+03 -0.76433232084E+03  0.90866846154E+03  0.40000000000E+03 0. -1.
<mgrwt>
<rscale>  2 0.49140053E+03</rscale>
<asrwt>0</asrwt>
<pdfrwt beam="1">  1       21 0.20567527E-01 0.49140053E+03</pdfrwt>
<pdfrwt beam="2">  1       21 0.27965710E+00 0.49140053E+03</pdfrwt>
<totfact> 0.77615288E+02</totfact>
</mgrwt>
</event>
<event>
 4    1  0.4991790E-002  0.4067312E+03  0.7818608E-02  0.1041474E+00
         21   -1    0    0  503  502  0.00000000000E+00  0.00000000000E+00  0.34422388562E+03  0.34422388562E+03  0.00000000000E+00 0.  1.
         21   -1    0    0  501  503 -0.00000000000E+00 -0.00000000000E+00 -0.51794807216E+03  0.51794807216E+03  0.00000000000E+00 0.  1.
    9000005    1    1    2  501    0  0.73359721277E+02  0.69716042338E+01 -0.20263799424E+03  0.45441435792E+03  0.40000000000E+03 0. -1.
   -9000005    1    1    2    0  502 -0.73359721277E+02 -0.69716042338E+01  0.28913807707E+02  0.40775759986E+03  0.40000000000E+03 0. -1.
<mgrwt>
<rscale>  2 0.40673118E+03</rscale>
<asrwt>0</asrwt>
<pdfrwt beam="1">  1       21 0.52957521E-01 0.40673118E+03</pdfrwt>
<pdfrwt beam="2">  1       21 0.79684319E-01 0.40673118E+03</pdfrwt>
<totfact> 0.41717684E+03</totfact>
</mgrwt>
</event>
<event>
 4    1  0.4991790E-002  0.4843784E+03  0.7818608E-02  0.1017939E+00
         21   -1    0    0  503  502  0.00000000000E+00  0.00000000000E+00  0.15699328241E+03  0.15699328241E+03  0.00000000000E+00 0.  1.
         21   -1    0    0  501  503 -0.00000000000E+00 -0.00000000000E+00 -0.17332588864E+04  0.17332588864E+04  0.00000000000E+00 0.  1.
    9000005    1    1    2  501    0 -0.17175838227E+03 -0.21241810298E+03 -0.11389342443E+04  0.12376564972E+04  0.40000000000E+03 0.  1.
   -9000005    1    1    2    0  502  0.17175838227E+03  0.21241810298E+03 -0.43733135968E+03  0.65259567154E+03  0.40000000000E+03 0.  1.
<mgrwt>
<rscale>  2 0.48437836E+03</rscale>
<asrwt>0</asrwt>
<pdfrwt beam="1">  1       21 0.24152814E-01 0.48437836E+03</pdfrwt>
<pdfrwt beam="2">  1       21 0.26665520E+00 0.48437836E+03</pdfrwt>
<totfact> 0.68533624E+02</totfact>
</mgrwt>
</event>
<event>
 4    1  0.4991790E-002  0.4374116E+03  0.7818608E-02  0.1031544E+00
         21   -1    0    0  501  502  0.00000000000E+00  0.00000000000E+00  0.28322723746E+03  0.28322723746E+03  0.00000000000E+00 0. -1.
         21   -1    0    0  502  503 -0.00000000000E+00 -0.00000000000E+00 -0.70229878420E+03  0.70229878420E+03  0.00000000000E+00 0. -1.
    9000005    1    1    2  501    0 -0.88344362427E+02  0.15337580805E+03 -0.11333448416E+03  0.45185569617E+03  0.40000000000E+03 0. -1.
   -9000005    1    1    2    0  503  0.88344362427E+02 -0.15337580805E+03 -0.30573706258E+03  0.53367032549E+03  0.40000000000E+03 0. -1.
<mgrwt>
<rscale>  2 0.43741155E+03</rscale>
<asrwt>0</asrwt>
<pdfrwt beam="1">  1       21 0.43573421E-01 0.43741155E+03</pdfrwt>
<pdfrwt beam="2">  1       21 0.10804597E+00 0.43741155E+03</pdfrwt>
<totfact> 0.30128845E+03</totfact>
</mgrwt>
</event>
<event>
 4    1  0.4991790E-002  0.4608369E+03  0.7818608E-02  0.1024539E+00
         21   -1    0    0  503  502  0.00000000000E+00  0.00000000000E+00  0.70389788497E+03  0.70389788497E+03  0.00000000000E+00 0. -1.
         21   -1    0    0  501  503 -0.00000000000E+00 -0.00000000000E+00 -0.55281305291E+03  0.55281305291E+03  0.00000000000E+00 0. -1.
    9000005    1    1    2  501    0  0.22639477171E+03  0.33407291576E+02 -0.34794956269E+03  0.57744223777E+03  0.40000000000E+03 0. -1.
   -9000005    1    1    2    0  502 -0.22639477171E+03 -0.33407291576E+02  0.49903439475E+03  0.67926870010E+03  0.40000000000E+03 0. -1.
<mgrwt>
<rscale>  2 0.46083689E+03</rscale>
<asrwt>0</asrwt>
<pdfrwt beam="1">  1       21 0.10829198E+00 0.46083689E+03</pdfrwt>
<pdfrwt beam="2">  1       21 0.85048162E-01 0.46083689E+03</pdfrwt>
<totfact> 0.68084981E+02</totfact>
</mgrwt>
</event>
<event>
 4    1  0.4991790E-002  0.4520839E+03  0.7818608E-02  0.1027102E+00
         21   -1    0    0  503  502  0.00000000000E+00  0.00000000000E+00  0.16754113709E+04  0.16754113709E+04  0.00000000000E+00 0. -1.
         21   -1    0    0  501  503 -0.00000000000E+00 -0.00000000000E+00 -0.12347716328E+03  0.12347716328E+03  0.00000000000E+00 0. -1.
    9000005    1    1    2  501    0 -0.21055314997E+03  0.68722903887E+01  0.67718650024E+03  0.81422442449E+03  0.40000000000E+03 0.  1.
   -9000005    1    1    2    0  502  0.21055314997E+03 -0.68722903887E+01  0.87474770734E+03  0.98466410965E+03  0.40000000000E+03 0.  1.
<mgrwt>
<rscale>  2 0.45208391E+03</rscale>
<asrwt>0</asrwt>
<pdfrwt beam="1">  1       21 0.25775558E+00 0.45208391E+03</pdfrwt>
<pdfrwt beam="2">  1       21 0.18996488E-01 0.45208391E+03</pdfrwt>
<totfact> 0.12504649E+03</totfact>
</mgrwt>
</event>
<event>
 4    1  0.4991790E-002  0.4109312E+03  0.7818608E-02  0.1040059E+00
         21   -1    0    0  501  502  0.00000000000E+00  0.00000000000E+00  0.53116275879E+03  0.53116275879E+03  0.00000000000E+00 0. -1.
         21   -1    0    0  502  503 -0.00000000000E+00 -0.00000000000E+00 -0.57917767147E+03  0.57917767147E+03  0.00000000000E+00 0. -1.
    9000005    1    1    2  501    0  0.92883549086E+02  0.15396684520E+02  0.34886408898E+03  0.53904597593E+03  0.40000000000E+03 0. -1.
   -9000005    1    1    2    0  503 -0.92883549086E+02 -0.15396684520E+02 -0.39687900167E+03  0.57129445433E+03  0.40000000000E+03 0. -1.
<mgrwt>
<rscale>  2 0.41093115E+03</rscale>
<asrwt>0</asrwt>
<pdfrwt beam="1">  1       21 0.81717348E-01 0.41093115E+03</pdfrwt>
<pdfrwt beam="2">  1       21 0.89104257E-01 0.41093115E+03</pdfrwt>
<totfact> 0.12233095E+03</totfact>
</mgrwt>
</event>
<event>
 4    1  0.4991790E-002  0.4609599E+03  0.7818608E-02  0.1024503E+00
         21   -1    0    0  503  502  0.00000000000E+00  0.00000000000E+00  0.36964823884E+03  0.36964823884E+03  0.00000000000E+00 0.  1.
         21   -1    0    0  501  503 -0.00000000000E+00 -0.00000000000E+00 -0.13842888896E+04  0.13842888896E+04  0.00000000000E+00 0. -1.
    9000005    1    1    2  501    0 -0.15625243347E+03 -0.16753858951E+03 -0.11779282905E+04  0.12649106923E+04  0.40000000000E+03 0. -1.
   -9000005    1    1    2    0  502  0.15625243347E+03  0.16753858951E+03  0.16328763974E+03  0.48902643613E+03  0.40000000000E+03 0.  1.
<mgrwt>
<rscale>  2 0.46095987E+03</rscale>
<asrwt>0</asrwt>
<pdfrwt beam="1">  1       21 0.56868960E-01 0.46095987E+03</pdfrwt>
<pdfrwt beam="2">  1       21 0.21296752E+00 0.46095987E+03</pdfrwt>
<totfact> 0.26014717E+02</totfact>
</mgrwt>
</event>
<event>
 4    1  0.4991790E-002  0.4577503E+03  0.7818608E-02  0.1025436E+00
         21   -1    0    0  503  502  0.00000000000E+00  0.00000000000E+00  0.90085376581E+02  0.90085376581E+02  0.00000000000E+00 0. -1.
         21   -1    0    0  501  503 -0.00000000000E+00 -0.00000000000E+00 -0.23346779875E+04  0.23346779875E+04  0.00000000000E+00 0.  1.
    9000005    1    1    2  501    0 -0.16139307744E+03  0.15325658779E+03 -0.11963666248E+04  0.12809482456E+04  0.40000000000E+03 0. -1.
   -9000005    1    1    2    0  502  0.16139307744E+03 -0.15325658779E+03 -0.10482259862E+04  0.11438151185E+04  0.40000000000E+03 0. -1.
<mgrwt>
<rscale>  2 0.45775027E+03</rscale>
<asrwt>0</asrwt>
<pdfrwt beam="1">  1       21 0.13859289E-01 0.45775027E+03</pdfrwt>
<pdfrwt beam="2">  1       21 0.35918121E+00 0.45775027E+03</pdfrwt>
<totfact> 0.54542082E+02</totfact>
</mgrwt>
</event>
<event>
 4    1  0.4991790E-002  0.4660842E+03  0.7818608E-02  0.1023031E+00
         21   -1    0    0  503  502  0.00000000000E+00  0.00000000000E+00  0.60639880477E+03  0.60639880477E+03  0.00000000000E+00 0. -1.
         21   -1    0    0  501  503 -0.00000000000E+00 -0.00000000000E+00 -0.36296780673E+03  0.36296780673E+03  0.00000000000E+00 0. -1.
    9000005    1    1    2  501    0 -0.74170924194E+02  0.22744918331E+03  0.17704974617E+03  0.49857905051E+03  0.40000000000E+03 0. -1.
   -9000005    1    1    2    0  502  0.74170924194E+02 -0.22744918331E+03  0.66381251869E+02  0.47078756099E+03  0.40000000000E+03 0. -1.
<mgrwt>
<rscale>  2 0.46608417E+03</rscale>
<asrwt>0</asrwt>
<pdfrwt beam="1">  1       21 0.93292124E-01 0.46608417E+03</pdfrwt>
<pdfrwt beam="2">  1       21 0.55841201E-01 0.46608417E+03</pdfrwt>
<totfact> 0.25165488E+03</totfact>
</mgrwt>
</event>
<event>
 4    1  0.4991790E-002  0.4074944E+03  0.7818608E-02  0.1041215E+00
         21   -1    0    0  503  502  0.00000000000E+00  0.00000000000E+00  0.13048892174E+04  0.13048892174E+04  0.00000000000E+00 0. -1.
         21   -1    0    0  501  503 -0.00000000000E+00 -0.00000000000E+00 -0.30573451791E+03  0.30573451791E+03  0.00000000000E+00 0. -1.
    9000005    1    1    2  501    0  0.77561062264E+02 -0.59961196711E+01 -0.11572407996E+03  0.42360799628E+03  0.40000000000E+03 0. -1.
   -9000005    1    1    2    0  502 -0.77561062264E+02  0.59961196711E+01  0.11148787794E+04  0.11870157390E+04  0.40000000000E+03 0. -1.
<mgrwt>
<rscale>  2 0.40749438E+03</rscale>
<asrwt>0</asrwt>
<pdfrwt beam="1">  1       21 0.20075218E+00 0.40749438E+03</pdfrwt>
<pdfrwt beam="2">  1       21 0.47036080E-01 0.40749438E+03</pdfrwt>
<totfact> 0.48282929E+02</totfact>
</mgrwt>
</event>
<event>
 4    1  0.4991790E-002  0.4028136E+03  0.7818608E-02  0.1042810E+00
         21   -1    0    0  501  502  0.00000000000E+00  0.00000000000E+00  0.35056975098E+03  0.35056975098E+03  0.00000000000E+00 0.  1.
         21   -1    0    0  502  503 -0.00000000000E+00 -0.00000000000E+00 -0.46710226475E+03  0.46710226475E+03  0.00000000000E+00 0.  1.
    9000005    1    1    2  501    0  0.18336025677E+02  0.43847594738E+02 -0.19227062176E+02  0.40327224219E+03  0.40000000000E+03 0.  1.
   -9000005    1    1    2    0  503 -0.18336025677E+02 -0.43847594738E+02 -0.97305451591E+02  0.41439977354E+03  0.40000000000E+03 0.  1.
<mgrwt>
<rscale>  2 0.40281363E+03</rscale>
<asrwt>0</asrwt>
<pdfrwt beam="1">  1       21 0.53933808E-01 0.40281363E+03</pdfrwt>
<pdfrwt beam="2">  1       21 0.71861887E-01 0.40281363E+03</pdfrwt>
<totfact> 0.50844569E+03</totfact>
</mgrwt>
</event>
<event>
 4    1  0.4991790E-002  0.4108714E+03  0.7818608E-02  0.1040079E+00
         21   -1    0    0  503  502  0.00000000000E+00  0.00000000000E+00  0.11365969895E+04  0.11365969895E+04  0.00000000000E+00 0. -1.
         21   -1    0    0  501  503 -0.00000000000E+00 -0.00000000000E+00 -0.15907352547E+03  0.15907352547E+03  0.00000000000E+00 0. -1.
    9000005    1    1    2  501    0 -0.45394267125E+02 -0.82186639378E+02  0.65557146169E+03  0.77368548168E+03  0.40000000000E+03 0. -1.
   -9000005    1    1    2    0  502  0.45394267125E+02  0.82186639378E+02  0.32195200237E+03  0.52198503332E+03  0.40000000000E+03 0. -1.
<mgrwt>
<rscale>  2 0.41087137E+03</rscale>
<asrwt>0</asrwt>
<pdfrwt beam="1">  1       21 0.17486107E+00 0.41087137E+03</pdfrwt>
<pdfrwt beam="2">  1       21 0.24472851E-01 0.41087137E+03</pdfrwt>
<totfact> 0.27083734E+03</totfact>
</mgrwt>
</event>
<event>
 4    1  0.4991790E-002  0.4169911E+03  0.7818608E-02  0.1038050E+00
         21   -1    0    0  503  502  0.00000000000E+00  0.00000000000E+00  0.16600497242E+03  0.16600497242E+03  0.00000000000E+00 0. -1.
         21   -1    0    0  501  503 -0.00000000000E+00 -0.00000000000E+00 -0.15214581966E+04  0.15214581966E+04  0.00000000000E+00 0. -1.
    9000005    1    1    2  501    0  0.90627314522E+02 -0.75288106791E+02 -0.11486692871E+04  0.12220158510E+04  0.40000000000E+03 0. -1.
   -9000005    1    1    2    0  502 -0.90627314522E+02  0.75288106791E+02 -0.20678393712E+03  0.46544731798E+03  0.40000000000E+03 0. -1.
<mgrwt>
<rscale>  2 0.41699114E+03</rscale>
<asrwt>0</asrwt>
<pdfrwt beam="1">  1       21 0.25539226E-01 0.41699114E+03</pdfrwt>
<pdfrwt beam="2">  1       21 0.23407050E+00 0.41699114E+03</pdfrwt>
<totfact> 0.10089644E+03</totfact>
</mgrwt>
</event>
<event>
 4    1  0.4991790E-002  0.5514166E+03  0.7818608E-02  0.1001167E+00
         21   -1    0    0  501  502  0.00000000000E+00  0.00000000000E+00  0.53882983458E+03  0.53882983458E+03  0.00000000000E+00 0. -1.
         21   -1    0    0  502  503 -0.00000000000E+00 -0.00000000000E+00 -0.62745264933E+03  0.62745264933E+03  0.00000000000E+00 0.  1.
    9000005    1    1    2  501    0 -0.33453082777E+03 -0.17930264162E+03  0.14069542512E+03  0.56908304725E+03  0.40000000000E+03 0. -1.
   -9000005    1    1    2    0  503  0.33453082777E+03  0.17930264162E+03 -0.22931823987E+03  0.59719943667E+03  0.40000000000E+03 0.  1.
<mgrwt>
<rscale>  2 0.55141664E+03</rscale>
<asrwt>0</asrwt>
<pdfrwt beam="1">  1       21 0.82896897E-01 0.55141664E+03</pdfrwt>
<pdfrwt beam="2">  1       21 0.96531177E-01 0.55141664E+03</pdfrwt>
<totfact> 0.92618187E+02</totfact>
</mgrwt>
</event>
<event>
 4    1  0.4991790E-002  0.5183673E+03  0.7818608E-02  0.1009093E+00
         21   -1    0    0  501  502  0.00000000000E+00  0.00000000000E+00  0.58325882770E+03  0.58325882770E+03  0.00000000000E+00 0.  1.
         21   -1    0    0  502  503 -0.00000000000E+00 -0.00000000000E+00 -0.97233387960E+03  0.97233387960E+03  0.00000000000E+00 0.  1.
    9000005    1    1    2  501    0 -0.46547960884E+02  0.32640152323E+03  0.36967118570E+03  0.63668002369E+03  0.40000000000E+03 0.  1.
   -9000005    1    1    2    0  503  0.46547960884E+02 -0.32640152323E+03 -0.75874623760E+03  0.91891268361E+03  0.40000000000E+03 0.  1.
<mgrwt>
<rscale>  2 0.51836731E+03</rscale>
<asrwt>0</asrwt>
<pdfrwt beam="1">  1       21 0.89732127E-01 0.51836731E+03</pdfrwt>
<pdfrwt beam="2">  1       21 0.14958983E+00 0.51836731E+03</pdfrwt>
<totfact> 0.25346062E+02</totfact>
</mgrwt>
</event>
<event>
 4    1  0.4991790E-002  0.4377428E+03  0.7818608E-02  0.1031442E+00
         21   -1    0    0  503  502  0.00000000000E+00  0.00000000000E+00  0.54277422535E+03  0.54277422535E+03  0.00000000000E+00 0. -1.
         21   -1    0    0  501  503 -0.00000000000E+00 -0.00000000000E+00 -0.43000819100E+03  0.43000819100E+03  0.00000000000E+00 0. -1.
    9000005    1    1    2  501    0  0.71592380500E+02  0.16276769591E+03 -0.14940237105E+03  0.46253633398E+03  0.40000000000E+03 0. -1.
   -9000005    1    1    2    0  502 -0.71592380500E+02 -0.16276769591E+03  0.26216840539E+03  0.51024608236E+03  0.40000000000E+03 0. -1.
<mgrwt>
<rscale>  2 0.43774284E+03</rscale>
<asrwt>0</asrwt>
<pdfrwt beam="1">  1       21 0.83503727E-01 0.43774284E+03</pdfrwt>
<pdfrwt beam="2">  1       21 0.66155106E-01 0.43774284E+03</pdfrwt>
<totfact> 0.22759397E+03</totfact>
</mgrwt>
</event>
<event>
 4    1  0.4991790E-002  0.4146711E+03  0.7818608E-02  0.1038815E+00
         21   -1    0    0  501  502  0.00000000000E+00  0.00000000000E+00  0.19123643297E+03  0.19123643297E+03  0.00000000000E+00 0.  1.
         21   -1    0    0  502  503 -0.00000000000E+00 -0.00000000000E+00 -0.90984996307E+03  0.90984996307E+03  0.00000000000E+00 0. -1.
    9000005    1    1    2  501    0 -0.69988399746E+02 -0.83986817421E+02 -0.41898191161E+03  0.58948961302E+03  0.40000000000E+03 0. -1.
   -9000005    1    1    2    0  503  0.69988399746E+02  0.83986817421E+02 -0.29963161849E+03  0.51159678302E+03  0.40000000000E+03 0.  1.
<mgrwt>
<rscale>  2 0.41467115E+03</rscale>
<asrwt>0</asrwt>
<pdfrwt beam="1">  1       21 0.29420990E-01 0.41467115E+03</pdfrwt>
<pdfrwt beam="2">  1       21 0.13997692E+00 0.41467115E+03</pdfrwt>
<totfact> 0.34808201E+03</totfact>
</mgrwt>
</event>
<event>
 4    1  0.4991790E-002  0.5816554E+03  0.7818608E-02  0.9944214E-01
         21   -1    0    0  501  502  0.00000000000E+00  0.00000000000E+00  0.11913174843E+04  0.11913174843E+04  0.00000000000E+00 0.  1.
         21   -1    0    0  502  503 -0.00000000000E+00 -0.00000000000E+00 -0.59120602870E+03  0.59120602870E+03  0.00000000000E+00 0.  1.
    9000005    1    1    2  501    0 -0.41468702998E+03  0.79734898177E+02  0.94253237162E+03  0.11075604987E+04  0.40000000000E+03 0.  1.
   -9000005    1    1    2    0  503  0.41468702998E+03 -0.79734898177E+02 -0.34242091605E+03  0.67496301422E+03  0.40000000000E+03 0.  1.
<mgrwt>
<rscale>  2 0.58165538E+03</rscale>
<asrwt>0</asrwt>
<pdfrwt beam="1">  1       21 0.18327961E+00 0.58165538E+03</pdfrwt>
<pdfrwt beam="2">  1       21 0.90954774E-01 0.58165538E+03</pdfrwt>
<totfact> 0.13410567E+02</totfact>
</mgrwt>
</event>
<event>
 4    1  0.4991790E-002  0.5349941E+03  0.7818608E-02  0.1005028E+00
         21   -1    0    0  501  502  0.00000000000E+00  0.00000000000E+00  0.43724384807E+03  0.43724384807E+03  0.00000000000E+00 0. -1.
         21   -1    0    0  502  503 -0.00000000000E+00 -0.00000000000E+00 -0.94913977431E+03  0.94913977431E+03  0.00000000000E+00 0.  1.
    9000005    1    1    2  501    0 -0.34817404424E+03  0.70664518909E+02  0.13020761050E+03  0.55061117056E+03  0.40000000000E+03 0. -1.
   -9000005    1    1    2    0  503  0.34817404424E+03 -0.70664518909E+02 -0.64210353674E+03  0.83577245182E+03  0.40000000000E+03 0.  1.
<mgrwt>
<rscale>  2 0.53499406E+03</rscale>
<asrwt>0</asrwt>
<pdfrwt beam="1">  1       21 0.67268285E-01 0.53499406E+03</pdfrwt>
<pdfrwt beam="2">  1       21 0.14602150E+00 0.53499406E+03</pdfrwt>
<totfact> 0.52264108E+02</totfact>
</mgrwt>
</event>
<event>
 4    1  0.4991790E-002  0.4312510E+03  0.7818608E-02  0.1033466E+00
         21   -1    0    0  503  502  0.00000000000E+00  0.00000000000E+00  0.10490330688E+04  0.10490330688E+04  0.00000000000E+00 0. -1.
         21   -1    0    0  501  503 -0.00000000000E+00 -0.00000000000E+00 -0.17738478643E+03  0.17738478643E+03  0.00000000000E+00 0. -1.
    9000005    1    1    2  501    0  0.48104140741E+02  0.15382908118E+03  0.42125001726E+03  0.60285070425E+03  0.40000000000E+03 0. -1.
   -9000005    1    1    2    0  502 -0.48104140741E+02 -0.15382908118E+03  0.45039826513E+03  0.62356715100E+03  0.40000000000E+03 0. -1.
<mgrwt>
<rscale>  2 0.43125096E+03</rscale>
<asrwt>0</asrwt>
<pdfrwt beam="1">  1       21 0.16138970E+00 0.43125096E+03</pdfrwt>
<pdfrwt beam="2">  1       21 0.27289968E-01 0.43125096E+03</pdfrwt>
<totfact> 0.27242791E+03</totfact>
</mgrwt>
</event>
<event>
 4    1  0.4991790E-002  0.4549379E+03  0.7818608E-02  0.1026260E+00
         21   -1    0    0  501  502  0.00000000000E+00  0.00000000000E+00  0.11190453724E+04  0.11190453724E+04  0.00000000000E+00 0.  1.
         21   -1    0    0  502  503 -0.00000000000E+00 -0.00000000000E+00 -0.21971829966E+03  0.21971829966E+03  0.00000000000E+00 0. -1.
    9000005    1    1    2  501    0  0.20885151229E+03 -0.57875345223E+02  0.71593619417E+03  0.84825299522E+03  0.40000000000E+03 0.  1.
   -9000005    1    1    2    0  503 -0.20885151229E+03  0.57875345223E+02  0.18339087860E+03  0.49051067687E+03  0.40000000000E+03 0.  1.
<mgrwt>
<rscale>  2 0.45493792E+03</rscale>
<asrwt>0</asrwt>
<pdfrwt beam="1">  1       21 0.17216082E+00 0.45493792E+03</pdfrwt>
<pdfrwt beam="2">  1       21 0.33802816E-01 0.45493792E+03</pdfrwt>
<totfact> 0.14683637E+03</totfact>
</mgrwt>
</event>
<event>
 4    1  0.4991790E-002  0.4068247E+03  0.7818608E-02  0.1041442E+00
         21   -1    0    0  501  502  0.00000000000E+00  0.00000000000E+00  0.10203665322E+03  0.10203665322E+03  0.00000000000E+00 0. -1.
         21   -1    0    0  502  503 -0.00000000000E+00 -0.00000000000E+00 -0.25654828644E+04  0.25654828644E+04  0.00000000000E+00 0. -1.
    9000005    1    1    2  501    0  0.15299123175E+02  0.72610240493E+02 -0.42289988447E+03  0.58681395900E+03  0.40000000000E+03 0. -1.
   -9000005    1    1    2    0  503 -0.15299123175E+02 -0.72610240493E+02 -0.20405463267E+04  0.20807055586E+04  0.40000000000E+03 0. -1.
<mgrwt>
<rscale>  2 0.40682467E+03</rscale>
<asrwt>0</asrwt>
<pdfrwt beam="1">  1       21 0.15697948E-01 0.40682467E+03</pdfrwt>
<pdfrwt beam="2">  1       21 0.39468963E+00 0.40682467E+03</pdfrwt>
<totfact> 0.26826442E+02</totfact>
</mgrwt>
</event>
<event>
 4    1  0.4991790E-002  0.4323389E+03  0.7818608E-02  0.1033124E+00
         21   -1    0    0  501  502  0.00000000000E+00  0.00000000000E+00  0.54230883594E+03  0.54230883594E+03  0.00000000000E+00 0. -1.
         21   -1    0    0  502  503 -0.00000000000E+00 -0.00000000000E+00 -0.10128061839E+04  0.10128061839E+04  0.00000000000E+00 0. -1.
    9000005    1    1    2  501    0 -0.86265349783E+02  0.13955353371E+03  0.39629335208E+03  0.58648556695E+03  0.40000000000E+03 0. -1.
   -9000005    1    1    2    0  503  0.86265349783E+02 -0.13955353371E+03 -0.86679070005E+03  0.96862945291E+03  0.40000000000E+03 0. -1.
<mgrwt>
<rscale>  2 0.43233887E+03</rscale>
<asrwt>0</asrwt>
<pdfrwt beam="1">  1       21 0.83432130E-01 0.43233887E+03</pdfrwt>
<pdfrwt beam="2">  1       21 0.15581633E+00 0.43233887E+03</pdfrwt>
<totfact> 0.28015960E+02</totfact>
</mgrwt>
</event>
<event>
 4    1  0.4991790E-002  0.5261737E+03  0.7818608E-02  0.1007164E+00
         21   -1    0    0  501  502  0.00000000000E+00  0.00000000000E+00  0.13460678644E+04  0.13460678644E+04  0.00000000000E+00 0. -1.
         21   -1    0    0  502  503 -0.00000000000E+00 -0.00000000000E+00 -0.21229707989E+03  0.21229707989E+03  0.00000000000E+00 0.  1.
    9000005    1    1    2  501    0  0.76055286185E+02 -0.33327818763E+03  0.70445170287E+03  0.87926728506E+03  0.40000000000E+03 0. -1.
   -9000005    1    1    2    0  503 -0.76055286185E+02  0.33327818763E+03  0.42931908162E+03  0.67909765921E+03  0.40000000000E+03 0.  1.
<mgrwt>
<rscale>  2 0.52617369E+03</rscale>
<asrwt>0</asrwt>
<pdfrwt beam="1">  1       21 0.20708736E+00 0.52617369E+03</pdfrwt>
<pdfrwt beam="2">  1       21 0.32661090E-01 0.52617369E+03</pdfrwt>
<totfact> 0.87835070E+02</totfact>
</mgrwt>
</event>
<event>
 4    1  0.4991790E-002  0.4533613E+03  0.7818608E-02  0.1026724E+00
         21   -1    0    0  501  502  0.00000000000E+00  0.00000000000E+00  0.25605151996E+03  0.25605151996E+03  0.00000000000E+00 0.  1.
         21   -1    0    0  502  503 -0.00000000000E+00 -0.00000000000E+00 -0.80368024563E+03  0.80368024563E+03  0.00000000000E+00 0. -1.
    9000005    1    1    2  501    0  0.82895355465E+01 -0.21323159830E+03 -0.25545268271E+03  0.52037727085E+03  0.40000000000E+03 0. -1.
   -9000005    1    1    2    0  503 -0.82895355465E+01  0.21323159830E+03 -0.29217604296E+03  0.53935449474E+03  0.40000000000E+03 0. -1.
<mgrwt>
<rscale>  2 0.45336126E+03</rscale>
<asrwt>0</asrwt>
<pdfrwt beam="1">  1       21 0.39392542E-01 0.45336126E+03</pdfrwt>
<pdfrwt beam="2">  1       21 0.12364311E+00 0.45336126E+03</pdfrwt>
<totfact> 0.26303699E+03</totfact>
</mgrwt>
</event>
<event>
 4    1  0.4991790E-002  0.4054543E+03  0.7818608E-02  0.1041907E+00
         21   -1    0    0  503  502  0.00000000000E+00  0.00000000000E+00  0.75410339362E+03  0.75410339362E+03  0.00000000000E+00 0. -1.
         21   -1    0    0  501  503 -0.00000000000E+00 -0.00000000000E+00 -0.46007573834E+03  0.46007573834E+03  0.00000000000E+00 0. -1.
    9000005    1    1    2  501    0 -0.49497971898E+01  0.66096314286E+02 -0.29335371475E+03  0.50044942323E+03  0.40000000000E+03 0. -1.
   -9000005    1    1    2    0  502  0.49497971898E+01 -0.66096314286E+02  0.58738137003E+03  0.71372970872E+03  0.40000000000E+03 0. -1.
<mgrwt>
<rscale>  2 0.40545434E+03</rscale>
<asrwt>0</asrwt>
<pdfrwt beam="1">  1       21 0.11601591E+00 0.40545434E+03</pdfrwt>
<pdfrwt beam="2">  1       21 0.70780883E-01 0.40545434E+03</pdfrwt>
<totfact> 0.89611970E+02</totfact>
</mgrwt>
</event>
<event>
 4    1  0.4991790E-002  0.5411743E+03  0.7818608E-02  0.1003558E+00
         21   -1    0    0  503  502  0.00000000000E+00  0.00000000000E+00  0.37194254358E+03  0.37194254358E+03  0.00000000000E+00 0. -1.
         21   -1    0    0  501  503 -0.00000000000E+00 -0.00000000000E+00 -0.78826435130E+03  0.78826435130E+03  0.00000000000E+00 0. -1.
    9000005    1    1    2  501    0 -0.35846288921E+03 -0.66136321163E+02 -0.22730758643E+03  0.58697393023E+03  0.40000000000E+03 0. -1.
   -9000005    1    1    2    0  502  0.35846288921E+03  0.66136321163E+02 -0.18901422129E+03  0.57323296466E+03  0.40000000000E+03 0. -1.
<mgrwt>
<rscale>  2 0.54117433E+03</rscale>
<asrwt>0</asrwt>
<pdfrwt beam="1">  1       21 0.57221930E-01 0.54117433E+03</pdfrwt>
<pdfrwt beam="2">  1       21 0.12127144E+00 0.54117433E+03</pdfrwt>
<totfact> 0.12162804E+03</totfact>
</mgrwt>
</event>
<event>
 4    1  0.4991790E-002  0.4732771E+03  0.7818608E-02  0.1020999E+00
         21   -1    0    0  501  502  0.00000000000E+00  0.00000000000E+00  0.23136920863E+03  0.23136920863E+03  0.00000000000E+00 0. -1.
         21   -1    0    0  502  503 -0.00000000000E+00 -0.00000000000E+00 -0.14044586550E+04  0.14044586550E+04  0.00000000000E+00 0.  1.
    9000005    1    1    2  501    0 -0.32116697256E+02  0.25091784807E+03 -0.13064526309E+03  0.49097803769E+03  0.40000000000E+03 0. -1.
   -9000005    1    1    2    0  503  0.32116697256E+02 -0.25091784807E+03 -0.10424441833E+04  0.11448498260E+04  0.40000000000E+03 0. -1.
<mgrwt>
<rscale>  2 0.47327714E+03</rscale>
<asrwt>0</asrwt>
<pdfrwt beam="1">  1       21 0.35595263E-01 0.47327714E+03</pdfrwt>
<pdfrwt beam="2">  1       21 0.21607056E+00 0.47327714E+03</pdfrwt>
<totfact> 0.65965926E+02</totfact>
</mgrwt>
</event>
<event>
 4    1  0.4991790E-002  0.6363733E+03  0.7818608E-02  0.9832690E-01
         21   -1    0    0  503  502  0.00000000000E+00  0.00000000000E+00  0.20844212082E+03  0.20844212082E+03  0.00000000000E+00 0. -1.
         21   -1    0    0  501  503 -0.00000000000E+00 -0.00000000000E+00 -0.26424781142E+04  0.26424781142E+04  0.00000000000E+00 0.  1.
    9000005    1    1    2  501    0 -0.31954885800E+02 -0.49391276996E+03 -0.19504911827E+04  0.20516790180E+04  0.40000000000E+03 0.  1.
   -9000005    1    1    2    0  502  0.31954885800E+02  0.49391276996E+03 -0.48354481067E+03  0.79924121702E+03  0.40000000000E+03 0. -1.
<mgrwt>
<rscale>  2 0.63637327E+03</rscale>
<asrwt>0</asrwt>
<pdfrwt beam="1">  1       21 0.32068017E-01 0.63637327E+03</pdfrwt>
<pdfrwt beam="2">  1       21 0.40653512E+00 0.63637327E+03</pdfrwt>
<totfact> 0.49329378E+01</totfact>
</mgrwt>
</event>
<event>
 4    1  0.4991790E-002  0.4506288E+03  0.7818608E-02  0.1027535E+00
         21   -1    0    0  503  502  0.00000000000E+00  0.00000000000E+00  0.80328122732E+03  0.80328122732E+03  0.00000000000E+00 0. -1.
         21   -1    0    0  501  503 -0.00000000000E+00 -0.00000000000E+00 -0.28190052550E+03  0.28190052550E+03  0.00000000000E+00 0. -1.
    9000005    1    1    2  501    0 -0.20618696784E+03 -0.23520733068E+02  0.86347269320E+02  0.45882691890E+03  0.40000000000E+03 0. -1.
   -9000005    1    1    2    0  502  0.20618696784E+03  0.23520733068E+02  0.43503343250E+03  0.62635483393E+03  0.40000000000E+03 0. -1.
<mgrwt>
<rscale>  2 0.45062877E+03</rscale>
<asrwt>0</asrwt>
<pdfrwt beam="1">  1       21 0.12358173E+00 0.45062877E+03</pdfrwt>
<pdfrwt beam="2">  1       21 0.43369312E-01 0.45062877E+03</pdfrwt>
<totfact> 0.21604365E+03</totfact>
</mgrwt>
</event>
<event>
 4    1  0.4991790E-002  0.5373916E+03  0.7818608E-02  0.1004455E+00
         21   -1    0    0  503  502  0.00000000000E+00  0.00000000000E+00  0.21784067325E+03  0.21784067325E+03  0.00000000000E+00 0. -1.
         21   -1    0    0  501  503 -0.00000000000E+00 -0.00000000000E+00 -0.14623346486E+04  0.14623346486E+04  0.00000000000E+00 0. -1.
    9000005    1    1    2  501    0  0.86942361465E+02 -0.34818202821E+03 -0.87904633182E+03  0.10302971185E+04  0.40000000000E+03 0. -1.
   -9000005    1    1    2    0  502 -0.86942361465E+02  0.34818202821E+03 -0.36544764354E+03  0.64987820332E+03  0.40000000000E+03 0. -1.
<mgrwt>
<rscale>  2 0.53739157E+03</rscale>
<asrwt>0</asrwt>
<pdfrwt beam="1">  1       21 0.33513950E-01 0.53739157E+03</pdfrwt>
<pdfrwt beam="2">  1       21 0.22497456E+00 0.53739157E+03</pdfrwt>
<totfact> 0.63534638E+02</totfact>
</mgrwt>
</event>
<event>
 4    1  0.4991790E-002  0.4283634E+03  0.7818608E-02  0.1034378E+00
         21   -1    0    0  501  502  0.00000000000E+00  0.00000000000E+00  0.18282554823E+04  0.18282554823E+04  0.00000000000E+00 0. -1.
         21   -1    0    0  502  503 -0.00000000000E+00 -0.00000000000E+00 -0.11299924681E+03  0.11299924681E+03  0.00000000000E+00 0. -1.
    9000005    1    1    2  501    0 -0.58569373422E+02  0.14165039314E+03  0.53308873994E+03  0.68387046290E+03  0.40000000000E+03 0. -1.
   -9000005    1    1    2    0  503  0.58569373422E+02 -0.14165039314E+03  0.11821674955E+04  0.12573842662E+04  0.40000000000E+03 0. -1.
<mgrwt>
<rscale>  2 0.42836340E+03</rscale>
<asrwt>0</asrwt>
<pdfrwt beam="1">  1       21 0.28127005E+00 0.42836340E+03</pdfrwt>
<pdfrwt beam="2">  1       21 0.17384501E-01 0.42836340E+03</pdfrwt>
<totfact> 0.10782110E+03</totfact>
</mgrwt>
</event>
<event>
 4    1  0.4991790E-002  0.4037722E+03  0.7818608E-02  0.1042481E+00
         21   -1    0    0  501  502  0.00000000000E+00  0.00000000000E+00  0.27369783385E+03  0.27369783385E+03  0.00000000000E+00 0.  1.
         21   -1    0    0  502  503 -0.00000000000E+00 -0.00000000000E+00 -0.59567110171E+03  0.59567110171E+03  0.00000000000E+00 0.  1.
    9000005    1    1    2  501    0  0.33894709090E+02  0.43395515721E+02 -0.15951520336E+03  0.43413951927E+03  0.40000000000E+03 0.  1.
   -9000005    1    1    2    0  503 -0.33894709090E+02 -0.43395515721E+02 -0.16245806449E+03  0.43522941629E+03  0.40000000000E+03 0.  1.
<mgrwt>
<rscale>  2 0.40377224E+03</rscale>
<asrwt>0</asrwt>
<pdfrwt beam="1">  1       21 0.42107360E-01 0.40377224E+03</pdfrwt>
<pdfrwt beam="2">  1       21 0.91641707E-01 0.40377224E+03</pdfrwt>
<totfact> 0.48811818E+03</totfact>
</mgrwt>
</event>
<event>
 4    1  0.4991790E-002  0.4307499E+03  0.7818608E-02  0.1033623E+00
         21   -1    0    0  501  502  0.00000000000E+00  0.00000000000E+00  0.10635254514E+04  0.10635254514E+04  0.00000000000E+00 0.  1.
         21   -1    0    0  502  503 -0.00000000000E+00 -0.00000000000E+00 -0.18193033690E+03  0.18193033690E+03  0.00000000000E+00 0.  1.
    9000005    1    1    2  501    0 -0.13335659975E+03 -0.88099423638E+02  0.56696235380E+03  0.71203356786E+03  0.40000000000E+03 0.  1.
   -9000005    1    1    2    0  503  0.13335659975E+03  0.88099423638E+02  0.31463276067E+03  0.53342222041E+03  0.40000000000E+03 0.  1.
<mgrwt>
<rscale>  2 0.43074992E+03</rscale>
<asrwt>0</asrwt>
<pdfrwt beam="1">  1       21 0.16361930E+00 0.43074992E+03</pdfrwt>
<pdfrwt beam="2">  1       21 0.27989283E-01 0.43074992E+03</pdfrwt>
<totfact> 0.24949321E+03</totfact>
</mgrwt>
</event>
<event>
 4    1  0.4991790E-002  0.5330105E+03  0.7818608E-02  0.1005505E+00
         21   -1    0    0  503  502  0.00000000000E+00  0.00000000000E+00  0.69919535370E+03  0.69919535370E+03  0.00000000000E+00 0.  1.
         21   -1    0    0  501  503 -0.00000000000E+00 -0.00000000000E+00 -0.54875683063E+03  0.54875683063E+03  0.00000000000E+00 0. -1.
    9000005    1    1    2  501    0 -0.34909695678E+03 -0.47238904689E+02 -0.24267469931E+03  0.58565451337E+03  0.40000000000E+03 0. -1.
   -9000005    1    1    2    0  502  0.34909695678E+03  0.47238904689E+02  0.39311322238E+03  0.66229767096E+03  0.40000000000E+03 0.  1.
<mgrwt>
<rscale>  2 0.53301051E+03</rscale>
<asrwt>0</asrwt>
<pdfrwt beam="1">  1       21 0.10756852E+00 0.53301051E+03</pdfrwt>
<pdfrwt beam="2">  1       21 0.84424128E-01 0.53301051E+03</pdfrwt>
<totfact> 0.68471579E+02</totfact>
</mgrwt>
</event>
<event>
 4    1  0.4991790E-002  0.4396852E+03  0.7818608E-02  0.1030843E+00
         21   -1    0    0  501  502  0.00000000000E+00  0.00000000000E+00  0.64191528426E+03  0.64191528426E+03  0.00000000000E+00 0. -1.
         21   -1    0    0  502  503 -0.00000000000E+00 -0.00000000000E+00 -0.87839273525E+03  0.87839273525E+03  0.00000000000E+00 0. -1.
    9000005    1    1    2  501    0 -0.80453207380E+02  0.16386090014E+03  0.49797364141E+03  0.66430479504E+03  0.40000000000E+03 0. -1.
   -9000005    1    1    2    0  503  0.80453207380E+02 -0.16386090014E+03 -0.73445109240E+03  0.85600322447E+03  0.40000000000E+03 0. -1.
<mgrwt>
<rscale>  2 0.43968524E+03</rscale>
<asrwt>0</asrwt>
<pdfrwt beam="1">  1       21 0.98756198E-01 0.43968524E+03</pdfrwt>
<pdfrwt beam="2">  1       21 0.13513734E+00 0.43968524E+03</pdfrwt>
<totfact> 0.27429093E+02</totfact>
</mgrwt>
</event>
<event>
 4    1  0.4991790E-002  0.5550252E+03  0.7818608E-02  0.1000337E+00
         21   -1    0    0  501  502  0.00000000000E+00  0.00000000000E+00  0.56703619868E+03  0.56703619868E+03  0.00000000000E+00 0. -1.
         21   -1    0    0  502  503 -0.00000000000E+00 -0.00000000000E+00 -0.54528688201E+03  0.54528688201E+03  0.00000000000E+00 0. -1.
    9000005    1    1    2  501    0  0.29893907500E+03 -0.24225683369E+03  0.44710947379E+02  0.55682314324E+03  0.40000000000E+03 0. -1.
   -9000005    1    1    2    0  503 -0.29893907500E+03  0.24225683369E+03 -0.22961630709E+02  0.55549993746E+03  0.40000000000E+03 0. -1.
<mgrwt>
<rscale>  2 0.55502517E+03</rscale>
<asrwt>0</asrwt>
<pdfrwt beam="1">  1       21 0.87236339E-01 0.55502517E+03</pdfrwt>
<pdfrwt beam="2">  1       21 0.83890289E-01 0.55502517E+03</pdfrwt>
<totfact> 0.11460477E+03</totfact>
</mgrwt>
</event>
<event>
 4    1  0.4991790E-002  0.4446491E+03  0.7818608E-02  0.1029330E+00
         21   -1    0    0  501  502  0.00000000000E+00  0.00000000000E+00  0.86648707624E+03  0.86648707624E+03  0.00000000000E+00 0.  1.
         21   -1    0    0  502  503 -0.00000000000E+00 -0.00000000000E+00 -0.23594158882E+03  0.23594158882E+03  0.00000000000E+00 0.  1.
    9000005    1    1    2  501    0 -0.15884035127E+03  0.11172539400E+03  0.21528089545E+03  0.49402295979E+03  0.40000000000E+03 0.  1.
   -9000005    1    1    2    0  503  0.15884035127E+03 -0.11172539400E+03  0.41526459198E+03  0.60840570527E+03  0.40000000000E+03 0.  1.
<mgrwt>
<rscale>  2 0.44464910E+03</rscale>
<asrwt>0</asrwt>
<pdfrwt beam="1">  1       21 0.13330570E+00 0.44464910E+03</pdfrwt>
<pdfrwt beam="2">  1       21 0.36298706E-01 0.44464910E+03</pdfrwt>
<totfact> 0.25673503E+03</totfact>
</mgrwt>
</event>
<event>
 4    1  0.4991790E-002  0.4888490E+03  0.7818608E-02  0.1016731E+00
         21   -1    0    0  501  502  0.00000000000E+00  0.00000000000E+00  0.54713643182E+03  0.54713643182E+03  0.00000000000E+00 0.  1.
         21   -1    0    0  502  503 -0.00000000000E+00 -0.00000000000E+00 -0.44295274331E+03  0.44295274331E+03  0.00000000000E+00 0.  1.
    9000005    1    1    2  501    0 -0.10917283527E+03  0.25894909882E+03  0.11057354491E+03  0.50119841637E+03  0.40000000000E+03 0.  1.
   -9000005    1    1    2    0  503  0.10917283527E+03 -0.25894909882E+03 -0.63898564021E+01  0.48889075876E+03  0.40000000000E+03 0.  1.
<mgrwt>
<rscale>  2 0.48884900E+03</rscale>
<asrwt>0</asrwt>
<pdfrwt beam="1">  1       21 0.84174836E-01 0.48884900E+03</pdfrwt>
<pdfrwt beam="2">  1       21 0.68146576E-01 0.48884900E+03</pdfrwt>
<totfact> 0.20521656E+03</totfact>
</mgrwt>
</event>
<event>
 4    1  0.4991790E-002  0.4619611E+03  0.7818608E-02  0.1024214E+00
         21   -1    0    0  503  502  0.00000000000E+00  0.00000000000E+00  0.10220438084E+04  0.10220438084E+04  0.00000000000E+00 0.  1.
         21   -1    0    0  501  503 -0.00000000000E+00 -0.00000000000E+00 -0.22097021538E+03  0.22097021538E+03  0.00000000000E+00 0. -1.
    9000005    1    1    2  501    0 -0.19587078309E+03 -0.12264879752E+03  0.54636280249E+03  0.71548613064E+03  0.40000000000E+03 0.  1.
   -9000005    1    1    2    0  502  0.19587078309E+03  0.12264879752E+03  0.25471079050E+03  0.52752789310E+03  0.40000000000E+03 0. -1.
<mgrwt>
<rscale>  2 0.46196114E+03</rscale>
<asrwt>0</asrwt>
<pdfrwt beam="1">  1       21 0.15723751E+00 0.46196114E+03</pdfrwt>
<pdfrwt beam="2">  1       21 0.33995418E-01 0.46196114E+03</pdfrwt>
<totfact> 0.18685586E+03</totfact>
</mgrwt>
</event>
<event>
 4    1  0.4991790E-002  0.4372518E+03  0.7818608E-02  0.1031593E+00
         21   -1    0    0  503  502  0.00000000000E+00  0.00000000000E+00  0.11196882951E+03  0.11196882951E+03  0.00000000000E+00 0.  1.
         21   -1    0    0  501  503 -0.00000000000E+00 -0.00000000000E+00 -0.19036538820E+04  0.19036538820E+04  0.00000000000E+00 0.  1.
    9000005    1    1    2  501    0  0.30374528472E+02  0.17397282670E+03 -0.57235303669E+03  0.72026186558E+03  0.40000000000E+03 0.  1.
   -9000005    1    1    2    0  502 -0.30374528472E+02 -0.17397282670E+03 -0.12193320158E+04  0.12953608459E+04  0.40000000000E+03 0.  1.
<mgrwt>
<rscale>  2 0.43725182E+03</rscale>
<asrwt>0</asrwt>
<pdfrwt beam="1">  1       21 0.17225975E-01 0.43725182E+03</pdfrwt>
<pdfrwt beam="2">  1       21 0.29286980E+00 0.43725182E+03</pdfrwt>
<totfact> 0.92975503E+02</totfact>
</mgrwt>
</event>
<event>
 4    1  0.4991790E-002  0.4042183E+03  0.7818608E-02  0.1042329E+00
         21   -1    0    0  501  502  0.00000000000E+00  0.00000000000E+00  0.53904297702E+03  0.53904297702E+03  0.00000000000E+00 0. -1.
         21   -1    0    0  502  503 -0.00000000000E+00 -0.00000000000E+00 -0.51270896485E+03  0.51270896485E+03  0.00000000000E+00 0. -1.
    9000005    1    1    2  501    0 -0.58225302319E+02  0.15009417842E+01  0.34939698841E+03  0.53429457621E+03  0.40000000000E+03 0. -1.
   -9000005    1    1    2    0  503  0.58225302319E+02 -0.15009417842E+01 -0.32306297624E+03  0.51745736566E+03  0.40000000000E+03 0. -1.
<mgrwt>
<rscale>  2 0.40421831E+03</rscale>
<asrwt>0</asrwt>
<pdfrwt beam="1">  1       21 0.82929690E-01 0.40421831E+03</pdfrwt>
<pdfrwt beam="2">  1       21 0.78878301E-01 0.40421831E+03</pdfrwt>
<totfact> 0.15747777E+03</totfact>
</mgrwt>
</event>
<event>
 4    1  0.4991790E-002  0.4123993E+03  0.7818608E-02  0.1039569E+00
         21   -1    0    0  503  502  0.00000000000E+00  0.00000000000E+00  0.14052752180E+04  0.14052752180E+04  0.00000000000E+00 0. -1.
         21   -1    0    0  501  503 -0.00000000000E+00 -0.00000000000E+00 -0.21291272411E+03  0.21291272411E+03  0.00000000000E+00 0. -1.
    9000005    1    1    2  501    0 -0.77429624084E+02  0.63857995009E+02  0.64651820353E+02  0.41743628027E+03  0.40000000000E+03 0. -1.
   -9000005    1    1    2    0  502  0.77429624084E+02 -0.63857995009E+02  0.11277106736E+04  0.12007516619E+04  0.40000000000E+03 0. -1.
<mgrwt>
<rscale>  2 0.41239931E+03</rscale>
<asrwt>0</asrwt>
<pdfrwt beam="1">  1       21 0.21619618E+00 0.41239931E+03</pdfrwt>
<pdfrwt beam="2">  1       21 0.32755805E-01 0.41239931E+03</pdfrwt>
<totfact> 0.80239194E+02</totfact>
</mgrwt>
</event>
<event>
 4    1  0.4991790E-002  0.4012909E+03  0.7818608E-02  0.1043334E+00
         21   -1    0    0  501  502  0.00000000000E+00  0.00000000000E+00  0.23872719824E+04  0.23872719824E+04  0.00000000000E+00 0.  1.
         21   -1    0    0  502  503 -0.00000000000E+00 -0.00000000000E+00 -0.11263733995E+03  0.11263733995E+03  0.00000000000E+00 0.  1.
    9000005    1    1    2  501    0 -0.28742685297E+01  0.32033775925E+02  0.19289713543E+04  0.19702702632E+04  0.40000000000E+03 0.  1.
   -9000005    1    1    2    0  503  0.28742685297E+01 -0.32033775925E+02  0.34566328812E+03  0.52963905915E+03  0.40000000000E+03 0.  1.
<mgrwt>
<rscale>  2 0.40129095E+03</rscale>
<asrwt>0</asrwt>
<pdfrwt beam="1">  1       21 0.36727258E+00 0.40129095E+03</pdfrwt>
<pdfrwt beam="2">  1       21 0.17328823E-01 0.40129095E+03</pdfrwt>
<totfact> 0.33290210E+02</totfact>
</mgrwt>
</event>
<event>
 4    1  0.4991790E-002  0.4452599E+03  0.7818608E-02  0.1029145E+00
         21   -1    0    0  503  502  0.00000000000E+00  0.00000000000E+00  0.53846092303E+03  0.53846092303E+03  0.00000000000E+00 0. -1.
         21   -1    0    0  501  503 -0.00000000000E+00 -0.00000000000E+00 -0.63919879152E+03  0.63919879152E+03  0.00000000000E+00 0. -1.
    9000005    1    1    2  501    0 -0.17920730976E+03 -0.78365292831E+02 -0.43377843315E+03  0.62162698466E+03  0.40000000000E+03 0. -1.
   -9000005    1    1    2    0  502  0.17920730976E+03  0.78365292831E+02  0.33304056466E+03  0.55603272988E+03  0.40000000000E+03 0. -1.
<mgrwt>
<rscale>  2 0.44525990E+03</rscale>
<asrwt>0</asrwt>
<pdfrwt beam="1">  1       21 0.82840142E-01 0.44525990E+03</pdfrwt>
<pdfrwt beam="2">  1       21 0.98338276E-01 0.44525990E+03</pdfrwt>
<totfact> 0.92300471E+02</totfact>
</mgrwt>
</event>
<event>
 4    1  0.4991790E-002  0.5824756E+03  0.7818608E-02  0.9942446E-01
         21   -1    0    0  501  502  0.00000000000E+00  0.00000000000E+00  0.17556700308E+04  0.17556700308E+04  0.00000000000E+00 0.  1.
         21   -1    0    0  502  503 -0.00000000000E+00 -0.00000000000E+00 -0.20206556028E+03  0.20206556028E+03  0.00000000000E+00 0.  1.
    9000005    1    1    2  501    0  0.24264899590E+03  0.34698602842E+03  0.57230920035E+03  0.81658781520E+03  0.40000000000E+03 0.  1.
   -9000005    1    1    2    0  503 -0.24264899590E+03 -0.34698602842E+03  0.98129527012E+03  0.11411477758E+04  0.40000000000E+03 0.  1.
<mgrwt>
<rscale>  2 0.58247561E+03</rscale>
<asrwt>0</asrwt>
<pdfrwt beam="1">  1       21 0.27010307E+00 0.58247561E+03</pdfrwt>
<pdfrwt beam="2">  1       21 0.31087010E-01 0.58247561E+03</pdfrwt>
<totfact> 0.37960529E+02</totfact>
</mgrwt>
</event>
<event>
 4    1  0.4991790E-002  0.4651834E+03  0.7818608E-02  0.1023289E+00
         21   -1    0    0  503  502  0.00000000000E+00  0.00000000000E+00  0.56759119818E+03  0.56759119818E+03  0.00000000000E+00 0.  1.
         21   -1    0    0  501  503 -0.00000000000E+00 -0.00000000000E+00 -0.66423221312E+03  0.66423221312E+03  0.00000000000E+00 0. -1.
    9000005    1    1    2  501    0 -0.67995260554E+02  0.22753514773E+03 -0.45032980194E+03  0.64745079305E+03  0.40000000000E+03 0. -1.
   -9000005    1    1    2    0  502  0.67995260554E+02 -0.22753514773E+03  0.35368878700E+03  0.58437261825E+03  0.40000000000E+03 0.  1.
<mgrwt>
<rscale>  2 0.46518340E+03</rscale>
<asrwt>0</asrwt>
<pdfrwt beam="1">  1       21 0.87321722E-01 0.46518340E+03</pdfrwt>
<pdfrwt beam="2">  1       21 0.10218957E+00 0.46518340E+03</pdfrwt>
<totfact> 0.73689995E+02</totfact>
</mgrwt>
</event>
<event>
 4    1  0.4991790E-002  0.6638348E+03  0.7818608E-02  0.9781160E-01
         21   -1    0    0  503  502  0.00000000000E+00  0.00000000000E+00  0.13964394470E+04  0.13964394470E+04  0.00000000000E+00 0.  1.
         21   -1    0    0  501  503 -0.00000000000E+00 -0.00000000000E+00 -0.50004992833E+03  0.50004992833E+03  0.00000000000E+00 0. -1.
    9000005    1    1    2  501    0 -0.51556125658E+03 -0.12195611572E+03 -0.12775731867E+03  0.67601674234E+03  0.40000000000E+03 0. -1.
   -9000005    1    1    2    0  502  0.51556125658E+03  0.12195611572E+03  0.10241468373E+04  0.12204726330E+04  0.40000000000E+03 0.  1.
<mgrwt>
<rscale>  2 0.66383485E+03</rscale>
<asrwt>0</asrwt>
<pdfrwt beam="1">  1       21 0.21483684E+00 0.66383485E+03</pdfrwt>
<pdfrwt beam="2">  1       21 0.76930759E-01 0.66383485E+03</pdfrwt>
<totfact> 0.11759343E+02</totfact>
</mgrwt>
</event>
<event>
 4    1  0.4991790E-002  0.4100835E+03  0.7818608E-02  0.1040343E+00
         21   -1    0    0  503  502  0.00000000000E+00  0.00000000000E+00  0.30374987752E+03  0.30374987752E+03  0.00000000000E+00 0.  1.
         21   -1    0    0  501  503 -0.00000000000E+00 -0.00000000000E+00 -0.93149238081E+03  0.93149238081E+03  0.00000000000E+00 0.  1.
    9000005    1    1    2  501    0  0.83538131814E+02 -0.34494664545E+02 -0.70723359279E+03  0.81752544677E+03  0.40000000000E+03 0.  1.
   -9000005    1    1    2    0  502 -0.83538131814E+02  0.34494664545E+02  0.79491089506E+02  0.41771681156E+03  0.40000000000E+03 0.  1.
<mgrwt>
<rscale>  2 0.41008353E+03</rscale>
<asrwt>0</asrwt>
<pdfrwt beam="1">  1       21 0.46730751E-01 0.41008353E+03</pdfrwt>
<pdfrwt beam="2">  1       21 0.14330652E+00 0.41008353E+03</pdfrwt>
<totfact> 0.12763945E+03</totfact>
</mgrwt>
</event>
<event>
 4    1  0.4991790E-002  0.4684971E+03  0.7818608E-02  0.1022345E+00
         21   -1    0    0  501  502  0.00000000000E+00  0.00000000000E+00  0.29814845972E+03  0.29814845972E+03  0.00000000000E+00 0. -1.
         21   -1    0    0  502  503 -0.00000000000E+00 -0.00000000000E+00 -0.10874844547E+04  0.10874844547E+04  0.00000000000E+00 0. -1.
    9000005    1    1    2  501    0 -0.14477359125E+03 -0.19629101972E+03 -0.89008930894E+00  0.46849797161E+03  0.40000000000E+03 0. -1.
   -9000005    1    1    2    0  503  0.14477359125E+03  0.19629101972E+03 -0.78844590564E+03  0.91713494278E+03  0.40000000000E+03 0. -1.
<mgrwt>
<rscale>  2 0.46849713E+03</rscale>
<asrwt>0</asrwt>
<pdfrwt beam="1">  1       21 0.45868994E-01 0.46849713E+03</pdfrwt>
<pdfrwt beam="2">  1       21 0.16730530E+00 0.46849713E+03</pdfrwt>
<totfact> 0.84520942E+02</totfact>
</mgrwt>
</event>
<event>
 4    1  0.4991790E-002  0.4058217E+03  0.7818608E-02  0.1041782E+00
         21   -1    0    0  503  502  0.00000000000E+00  0.00000000000E+00  0.24882784304E+03  0.24882784304E+03  0.00000000000E+00 0. -1.
         21   -1    0    0  501  503 -0.00000000000E+00 -0.00000000000E+00 -0.67772864072E+03  0.67772864072E+03  0.00000000000E+00 0. -1.
    9000005    1    1    2  501    0  0.50242603545E+02 -0.46550730765E+02 -0.14357937867E+03  0.43047221481E+03  0.40000000000E+03 0.  1.
   -9000005    1    1    2    0  502 -0.50242603545E+02  0.46550730765E+02 -0.28532141901E+03  0.49608426894E+03  0.40000000000E+03 0.  1.
<mgrwt>
<rscale>  2 0.40582175E+03</rscale>
<asrwt>0</asrwt>
<pdfrwt beam="1">  1       21 0.38281208E-01 0.40582175E+03</pdfrwt>
<pdfrwt beam="2">  1       21 0.10426594E+00 0.40582175E+03</pdfrwt>
<totfact> 0.43473443E+03</totfact>
</mgrwt>
</event>
<event>
 4    1  0.4991790E-002  0.4443954E+03  0.7818608E-02  0.1029407E+00
         21   -1    0    0  503  502  0.00000000000E+00  0.00000000000E+00  0.37266938641E+03  0.37266938641E+03  0.00000000000E+00 0.  1.
         21   -1    0    0  501  503 -0.00000000000E+00 -0.00000000000E+00 -0.53361521887E+03  0.53361521887E+03  0.00000000000E+00 0.  1.
    9000005    1    1    2  501    0  0.15969993336E+03  0.10946790632E+03 -0.11814961759E+03  0.45983325604E+03  0.40000000000E+03 0.  1.
   -9000005    1    1    2    0  502 -0.15969993336E+03 -0.10946790632E+03 -0.42796214865E+02  0.44645134924E+03  0.40000000000E+03 0.  1.
<mgrwt>
<rscale>  2 0.44439542E+03</rscale>
<asrwt>0</asrwt>
<pdfrwt beam="1">  1       21 0.57333752E-01 0.44439542E+03</pdfrwt>
<pdfrwt beam="2">  1       21 0.82094649E-01 0.44439542E+03</pdfrwt>
<totfact> 0.32365037E+03</totfact>
</mgrwt>
</event>
<event>
 4    1  0.4991790E-002  0.4815325E+03  0.7818608E-02  0.1018715E+00
         21   -1    0    0  503  502  0.00000000000E+00  0.00000000000E+00  0.16748346231E+04  0.16748346231E+04  0.00000000000E+00 0.  1.
         21   -1    0    0  501  503 -0.00000000000E+00 -0.00000000000E+00 -0.14641006401E+03  0.14641006401E+03  0.00000000000E+00 0.  1.
    9000005    1    1    2  501    0 -0.12465494770E+03  0.23734920599E+03  0.55182386015E+03  0.73238178173E+03  0.40000000000E+03 0.  1.
   -9000005    1    1    2    0  502  0.12465494770E+03 -0.23734920599E+03  0.97660069895E+03  0.10888629054E+04  0.40000000000E+03 0.  1.
<mgrwt>
<rscale>  2 0.48153245E+03</rscale>
<asrwt>0</asrwt>
<pdfrwt beam="1">  1       21 0.25766685E+00 0.48153245E+03</pdfrwt>
<pdfrwt beam="2">  1       21 0.22524626E-01 0.48153245E+03</pdfrwt>
<totfact> 0.89122960E+02</totfact>
</mgrwt>
</event>
<event>
 4    1  0.4991790E-002  0.4359044E+03  0.7818608E-02  0.1032011E+00
         21   -1    0    0  503  502  0.00000000000E+00  0.00000000000E+00  0.10149436809E+04  0.10149436809E+04  0.00000000000E+00 0. -1.
         21   -1    0    0  501  503 -0.00000000000E+00 -0.00000000000E+00 -0.19807282629E+03  0.19807282629E+03  0.00000000000E+00 0. -1.
    9000005    1    1    2  501    0  0.17249963272E+03  0.16015473460E+02  0.55043823883E+03  0.70213593659E+03  0.40000000000E+03 0. -1.
   -9000005    1    1    2    0  502 -0.17249963272E+03 -0.16015473460E+02  0.26643261580E+03  0.51088057062E+03  0.40000000000E+03 0. -1.
<mgrwt>
<rscale>  2 0.43590437E+03</rscale>
<asrwt>0</asrwt>
<pdfrwt beam="1">  1       21 0.15614518E+00 0.43590437E+03</pdfrwt>
<pdfrwt beam="2">  1       21 0.30472743E-01 0.43590437E+03</pdfrwt>
<totfact> 0.23964320E+03</totfact>
</mgrwt>
</event>
<event>
 4    1  0.4991790E-002  0.4051519E+03  0.7818608E-02  0.1042010E+00
         21   -1    0    0  503  502  0.00000000000E+00  0.00000000000E+00  0.26680491613E+04  0.26680491613E+04  0.00000000000E+00 0. -1.
         21   -1    0    0  501  503 -0.00000000000E+00 -0.00000000000E+00 -0.61528336353E+02  0.61528336353E+02  0.00000000000E+00 0. -1.
    9000005    1    1    2  501    0 -0.47125600197E+02  0.43899943718E+02  0.12913040758E+04  0.13533714358E+04  0.40000000000E+03 0.  1.
   -9000005    1    1    2    0  502  0.47125600197E+02 -0.43899943718E+02  0.13152167492E+04  0.13762060618E+04  0.40000000000E+03 0.  1.
<mgrwt>
<rscale>  2 0.40515186E+03</rscale>
<asrwt>0</asrwt>
<pdfrwt beam="1">  1       21 0.41046901E+00 0.40515186E+03</pdfrwt>
<pdfrwt beam="2">  1       21 0.94659000E-02 0.40515186E+03</pdfrwt>
<totfact> 0.53475033E+02</totfact>
</mgrwt>
</event>
<event>
 4    1  0.4991790E-002  0.4464619E+03  0.7818608E-02  0.1028782E+00
         21   -1    0    0  501  502  0.00000000000E+00  0.00000000000E+00  0.22187653394E+03  0.22187653394E+03  0.00000000000E+00 0.  1.
         21   -1    0    0  502  503 -0.00000000000E+00 -0.00000000000E+00 -0.11513954518E+04  0.11513954518E+04  0.00000000000E+00 0. -1.
    9000005    1    1    2  501    0  0.83067515987E+02 -0.18007769731E+03 -0.14288043733E+03  0.46876754223E+03  0.40000000000E+03 0.  1.
   -9000005    1    1    2    0  503 -0.83067515987E+02  0.18007769731E+03 -0.78663848056E+03  0.90450444354E+03  0.40000000000E+03 0. -1.
<mgrwt>
<rscale>  2 0.44646186E+03</rscale>
<asrwt>0</asrwt>
<pdfrwt beam="1">  1       21 0.34134852E-01 0.44646186E+03</pdfrwt>
<pdfrwt beam="2">  1       21 0.17713776E+00 0.44646186E+03</pdfrwt>
<totfact> 0.13309057E+03</totfact>
</mgrwt>
</event>
<event>
 4    1  0.4991790E-002  0.4430229E+03  0.7818608E-02  0.1029823E+00
         21   -1    0    0  501  502  0.00000000000E+00  0.00000000000E+00  0.12376085104E+03  0.12376085104E+03  0.00000000000E+00 0. -1.
         21   -1    0    0  502  503 -0.00000000000E+00 -0.00000000000E+00 -0.15930379831E+04  0.15930379831E+04  0.00000000000E+00 0. -1.
    9000005    1    1    2  501    0 -0.18001438613E+03 -0.62161690501E+02 -0.67707872877E+03  0.80913834413E+03  0.40000000000E+03 0. -1.
   -9000005    1    1    2    0  503  0.18001438613E+03  0.62161690501E+02 -0.79219840329E+03  0.90766049003E+03  0.40000000000E+03 0. -1.
<mgrwt>
<rscale>  2 0.44302286E+03</rscale>
<asrwt>0</asrwt>
<pdfrwt beam="1">  1       21 0.19040132E-01 0.44302286E+03</pdfrwt>
<pdfrwt beam="2">  1       21 0.24508276E+00 0.44302286E+03</pdfrwt>
<totfact> 0.14956797E+03</totfact>
</mgrwt>
</event>
<event>
 4    1  0.4991790E-002  0.4263667E+03  0.7818608E-02  0.1035014E+00
         21   -1    0    0  503  502  0.00000000000E+00  0.00000000000E+00  0.87281636188E+03  0.87281636188E+03  0.00000000000E+00 0. -1.
         21   -1    0    0  501  503 -0.00000000000E+00 -0.00000000000E+00 -0.32322427625E+03  0.32322427625E+03  0.00000000000E+00 0. -1.
    9000005    1    1    2  501    0  0.70968976007E+02  0.12942955541E+03 -0.81828364889E+02  0.43414800088E+03  0.40000000000E+03 0. -1.
   -9000005    1    1    2    0  502 -0.70968976007E+02 -0.12942955541E+03  0.63142045051E+03  0.76189263725E+03  0.40000000000E+03 0. -1.
<mgrwt>
<rscale>  2 0.42636675E+03</rscale>
<asrwt>0</asrwt>
<pdfrwt beam="1">  1       21 0.13427944E+00 0.42636675E+03</pdfrwt>
<pdfrwt beam="2">  1       21 0.49726812E-01 0.42636675E+03</pdfrwt>
<totfact> 0.13200061E+03</totfact>
</mgrwt>
</event>
<event>
 4    1  0.4991790E-002  0.4184785E+03  0.7818608E-02  0.1037563E+00
         21   -1    0    0  501  502  0.00000000000E+00  0.00000000000E+00  0.12251034903E+04  0.12251034903E+04  0.00000000000E+00 0. -1.
         21   -1    0    0  502  503 -0.00000000000E+00 -0.00000000000E+00 -0.14353028952E+03  0.14353028952E+03  0.00000000000E+00 0. -1.
    9000005    1    1    2  501    0 -0.12183326090E+03  0.16761204984E+02  0.49714447240E+03  0.64982836803E+03  0.40000000000E+03 0. -1.
   -9000005    1    1    2    0  503  0.12183326090E+03 -0.16761204984E+02  0.58442872835E+03  0.71880541176E+03  0.40000000000E+03 0. -1.
<mgrwt>
<rscale>  2 0.41847853E+03</rscale>
<asrwt>0</asrwt>
<pdfrwt beam="1">  1       21 0.18847745E+00 0.41847853E+03</pdfrwt>
<pdfrwt beam="2">  1       21 0.22081584E-01 0.41847853E+03</pdfrwt>
<totfact> 0.26434039E+03</totfact>
</mgrwt>
</event>
<event>
 4    1  0.4991790E-002  0.4123874E+03  0.7818608E-02  0.1039573E+00
         21   -1    0    0  501  502  0.00000000000E+00  0.00000000000E+00  0.75360160257E+03  0.75360160257E+03  0.00000000000E+00 0. -1.
         21   -1    0    0  502  503 -0.00000000000E+00 -0.00000000000E+00 -0.22998720868E+03  0.22998720868E+03  0.00000000000E+00 0. -1.
    9000005    1    1    2  501    0 -0.41838064324E+01 -0.10022898246E+03  0.32920743128E+03  0.52767498138E+03  0.40000000000E+03 0. -1.
   -9000005    1    1    2    0  503  0.41838064324E+01  0.10022898246E+03  0.19440696261E+03  0.45591382988E+03  0.40000000000E+03 0. -1.
<mgrwt>
<rscale>  2 0.41238738E+03</rscale>
<asrwt>0</asrwt>
<pdfrwt beam="1">  1       21 0.11593871E+00 0.41238738E+03</pdfrwt>
<pdfrwt beam="2">  1       21 0.35382648E-01 0.41238738E+03</pdfrwt>
<totfact> 0.39136192E+03</totfact>
</mgrwt>
</event>
<event>
 4    1  0.4991790E-002  0.5883920E+03  0.7818608E-02  0.9929786E-01
         21   -1    0    0  503  502  0.00000000000E+00  0.00000000000E+00  0.89253993849E+03  0.89253993849E+03  0.00000000000E+00 0.  1.
         21   -1    0    0  501  503 -0.00000000000E+00 -0.00000000000E+00 -0.39309814643E+03  0.39309814643E+03  0.00000000000E+00 0. -1.
    9000005    1    1    2  501    0  0.25301894784E+03  0.34955201805E+03  0.17571290301E+03  0.61406858377E+03  0.40000000000E+03 0. -1.
   -9000005    1    1    2    0  502 -0.25301894784E+03 -0.34955201805E+03  0.32372888905E+03  0.67156950116E+03  0.40000000000E+03 0.  1.
<mgrwt>
<rscale>  2 0.58839205E+03</rscale>
<asrwt>0</asrwt>
<pdfrwt beam="1">  1       21 0.13731384E+00 0.58839205E+03</pdfrwt>
<pdfrwt beam="2">  1       21 0.60476638E-01 0.58839205E+03</pdfrwt>
<totfact> 0.76684557E+02</totfact>
</mgrwt>
</event>
<event>
 4    1  0.4991790E-002  0.5391439E+03  0.7818608E-02  0.1004038E+00
         21   -1    0    0  501  502  0.00000000000E+00  0.00000000000E+00  0.24781463428E+04  0.24781463428E+04  0.00000000000E+00 0.  1.
         21   -1    0    0  502  503 -0.00000000000E+00 -0.00000000000E+00 -0.21599568624E+03  0.21599568624E+03  0.00000000000E+00 0. -1.
    9000005    1    1    2  501    0  0.27180537799E+03  0.23832327192E+03  0.20416724841E+04  0.21116587503E+04  0.40000000000E+03 0.  1.
   -9000005    1    1    2    0  503 -0.27180537799E+03 -0.23832327192E+03  0.22047817243E+03  0.58248327870E+03  0.40000000000E+03 0. -1.
<mgrwt>
<rscale>  2 0.53914390E+03</rscale>
<asrwt>0</asrwt>
<pdfrwt beam="1">  1       21 0.38125326E+00 0.53914390E+03</pdfrwt>
<pdfrwt beam="2">  1       21 0.33230107E-01 0.53914390E+03</pdfrwt>
<totfact> 0.70331400E+01</totfact>
</mgrwt>
</event>
<event>
 4    1  0.4991790E-002  0.4046053E+03  0.7818608E-02  0.1042197E+00
         21   -1    0    0  503  502  0.00000000000E+00  0.00000000000E+00  0.17285104006E+04  0.17285104006E+04  0.00000000000E+00 0. -1.
         21   -1    0    0  501  503 -0.00000000000E+00 -0.00000000000E+00 -0.15146897477E+03  0.15146897477E+03  0.00000000000E+00 0. -1.
    9000005    1    1    2  501    0 -0.49920248968E+02  0.34834051446E+02  0.21310402643E+03  0.45729505626E+03  0.40000000000E+03 0. -1.
   -9000005    1    1    2    0  502  0.49920248968E+02 -0.34834051446E+02  0.13639373994E+04  0.14226843191E+04  0.40000000000E+03 0. -1.
<mgrwt>
<rscale>  2 0.40460529E+03</rscale>
<asrwt>0</asrwt>
<pdfrwt beam="1">  1       21 0.26592466E+00 0.40460529E+03</pdfrwt>
<pdfrwt beam="2">  1       21 0.23302920E-01 0.40460529E+03</pdfrwt>
<totfact> 0.77436881E+02</totfact>
</mgrwt>
</event>
<event>
 4    1  0.4991790E-002  0.4809236E+03  0.7818608E-02  0.1018882E+00
         21   -1    0    0  501  502  0.00000000000E+00  0.00000000000E+00  0.90373477205E+03  0.90373477205E+03  0.00000000000E+00 0. -1.
         21   -1    0    0  502  503 -0.00000000000E+00 -0.00000000000E+00 -0.25604683587E+03  0.25604683587E+03  0.00000000000E+00 0. -1.
    9000005    1    1    2  501    0 -0.20918558138E+03 -0.16591826086E+03  0.31114601255E+03  0.57279954423E+03  0.40000000000E+03 0. -1.
   -9000005    1    1    2    0  503  0.20918558138E+03  0.16591826086E+03  0.33654192362E+03  0.58698206369E+03  0.40000000000E+03 0. -1.
<mgrwt>
<rscale>  2 0.48092357E+03</rscale>
<asrwt>0</asrwt>
<pdfrwt beam="1">  1       21 0.13903612E+00 0.48092357E+03</pdfrwt>
<pdfrwt beam="2">  1       21 0.39391821E-01 0.48092357E+03</pdfrwt>
<totfact> 0.19178737E+03</totfact>
</mgrwt>
</event>
<event>
 4    1  0.4991790E-002  0.4620290E+03  0.7818608E-02  0.1024194E+00
         21   -1    0    0  503  502  0.00000000000E+00  0.00000000000E+00  0.60674262900E+03  0.60674262900E+03  0.00000000000E+00 0. -1.
         21   -1    0    0  501  503 -0.00000000000E+00 -0.00000000000E+00 -0.37549299226E+03  0.37549299226E+03  0.00000000000E+00 0.  1.
    9000005    1    1    2  501    0 -0.17053396801E+03 -0.15616957142E+03 -0.76606477808E+01  0.46209247430E+03  0.40000000000E+03 0.  1.
   -9000005    1    1    2    0  502  0.17053396801E+03  0.15616957142E+03  0.23891028451E+03  0.52014314696E+03  0.40000000000E+03 0.  1.
<mgrwt>
<rscale>  2 0.46202897E+03</rscale>
<asrwt>0</asrwt>
<pdfrwt beam="1">  1       21 0.93345020E-01 0.46202897E+03</pdfrwt>
<pdfrwt beam="2">  1       21 0.57768152E-01 0.46202897E+03</pdfrwt>
<totfact> 0.23379989E+03</totfact>
</mgrwt>
</event>
<event>
 4    1  0.4991790E-002  0.4138342E+03  0.7818608E-02  0.1039092E+00
         21   -1    0    0  503  502  0.00000000000E+00  0.00000000000E+00  0.19357915585E+04  0.19357915585E+04  0.00000000000E+00 0.  1.
         21   -1    0    0  501  503 -0.00000000000E+00 -0.00000000000E+00 -0.10823054743E+03  0.10823054743E+03  0.00000000000E+00 0.  1.
    9000005    1    1    2  501    0  0.87895325132E+02 -0.59440343601E+02  0.47707935899E+03  0.63155637706E+03  0.40000000000E+03 0.  1.
   -9000005    1    1    2    0  502 -0.87895325132E+02  0.59440343601E+02  0.13504816520E+04  0.14124657288E+04  0.40000000000E+03 0.  1.
<mgrwt>
<rscale>  2 0.41383420E+03</rscale>
<asrwt>0</asrwt>
<pdfrwt beam="1">  1       21 0.29781406E+00 0.41383420E+03</pdfrwt>
<pdfrwt beam="2">  1       21 0.16650855E-01 0.41383420E+03</pdfrwt>
<totfact> 0.93767188E+02</totfact>
</mgrwt>
</event>
<event>
 4    1  0.4991790E-002  0.5007715E+03  0.7818608E-02  0.1013578E+00
         21   -1    0    0  503  502  0.00000000000E+00  0.00000000000E+00  0.11161474896E+04  0.11161474896E+04  0.00000000000E+00 0. -1.
         21   -1    0    0  501  503 -0.00000000000E+00 -0.00000000000E+00 -0.22967443490E+03  0.22967443490E+03  0.00000000000E+00 0. -1.
    9000005    1    1    2  501    0  0.85831431216E+02 -0.28879925834E+03  0.54250220503E+03  0.73829580025E+03  0.40000000000E+03 0. -1.
   -9000005    1    1    2    0  502 -0.85831431216E+02  0.28879925834E+03  0.34397084964E+03  0.60752612421E+03  0.40000000000E+03 0. -1.
<mgrwt>
<rscale>  2 0.50077145E+03</rscale>
<asrwt>0</asrwt>
<pdfrwt beam="1">  1       21 0.17171499E+00 0.50077145E+03</pdfrwt>
<pdfrwt beam="2">  1       21 0.35334529E-01 0.50077145E+03</pdfrwt>
<totfact> 0.13277800E+03</totfact>
</mgrwt>
</event>
<event>
 4    1  0.4991790E-002  0.4417269E+03  0.7818608E-02  0.1030218E+00
         21   -1    0    0  503  502  0.00000000000E+00  0.00000000000E+00  0.44069959421E+03  0.44069959421E+03  0.00000000000E+00 0.  1.
         21   -1    0    0  501  503 -0.00000000000E+00 -0.00000000000E+00 -0.61874276073E+03  0.61874276073E+03  0.00000000000E+00 0.  1.
    9000005    1    1    2  501    0 -0.14992446234E+03  0.11245127868E+03 -0.37153012497E+03  0.57719777221E+03  0.40000000000E+03 0.  1.
   -9000005    1    1    2    0  502  0.14992446234E+03 -0.11245127868E+03  0.19348695845E+03  0.48224458273E+03  0.40000000000E+03 0.  1.
<mgrwt>
<rscale>  2 0.44172688E+03</rscale>
<asrwt>0</asrwt>
<pdfrwt beam="1">  1       21 0.67799938E-01 0.44172688E+03</pdfrwt>
<pdfrwt beam="2">  1       21 0.95191194E-01 0.44172688E+03</pdfrwt>
<totfact> 0.15785680E+03</totfact>
</mgrwt>
</event>
<event>
 4    1  0.4991790E-002  0.4829877E+03  0.7818608E-02  0.1018317E+00
         21   -1    0    0  503  502  0.00000000000E+00  0.00000000000E+00  0.76904872456E+03  0.76904872456E+03  0.00000000000E+00 0. -1.
         21   -1    0    0  501  503 -0.00000000000E+00 -0.00000000000E+00 -0.34243401493E+03  0.34243401493E+03  0.00000000000E+00 0. -1.
    9000005    1    1    2  501    0  0.86146190453E+02 -0.25662420731E+03  0.25512626073E+02  0.48366108381E+03  0.40000000000E+03 0. -1.
   -9000005    1    1    2    0  502 -0.86146190453E+02  0.25662420731E+03  0.40110208356E+03  0.62782165568E+03  0.40000000000E+03 0. -1.
<mgrwt>
<rscale>  2 0.48298773E+03</rscale>
<asrwt>0</asrwt>
<pdfrwt beam="1">  1       21 0.11831519E+00 0.48298773E+03</pdfrwt>
<pdfrwt beam="2">  1       21 0.52682156E-01 0.48298773E+03</pdfrwt>
<totfact> 0.15808974E+03</totfact>
</mgrwt>
</event>
<event>
 4    1  0.4991790E-002  0.4352394E+03  0.7818608E-02  0.1032218E+00
         21   -1    0    0  501  502  0.00000000000E+00  0.00000000000E+00  0.90095500121E+03  0.90095500121E+03  0.00000000000E+00 0.  1.
         21   -1    0    0  502  503 -0.00000000000E+00 -0.00000000000E+00 -0.27971222701E+03  0.27971222701E+03  0.00000000000E+00 0.  1.
    9000005    1    1    2  501    0 -0.16376968244E+03  0.51115546902E+02  0.60478574317E+03  0.74511683860E+03  0.40000000000E+03 0.  1.
   -9000005    1    1    2    0  503  0.16376968244E+03 -0.51115546902E+02  0.16457031030E+02  0.43555038961E+03  0.40000000000E+03 0.  1.
<mgrwt>
<rscale>  2 0.43523937E+03</rscale>
<asrwt>0</asrwt>
<pdfrwt beam="1">  1       21 0.13860846E+00 0.43523937E+03</pdfrwt>
<pdfrwt beam="2">  1       21 0.43032651E-01 0.43523937E+03</pdfrwt>
<totfact> 0.16393276E+03</totfact>
</mgrwt>
</event>
<event>
 4    1  0.4991790E-002  0.4806724E+03  0.7818608E-02  0.1018951E+00
         21   -1    0    0  503  502  0.00000000000E+00  0.00000000000E+00  0.12207579631E+04  0.12207579631E+04  0.00000000000E+00 0.  1.
         21   -1    0    0  501  503 -0.00000000000E+00 -0.00000000000E+00 -0.51026014392E+03  0.51026014392E+03  0.00000000000E+00 0.  1.
    9000005    1    1    2  501    0 -0.26573371692E+03 -0.20773761319E+02 -0.33122725910E+03  0.58374434013E+03  0.40000000000E+03 0.  1.
   -9000005    1    1    2    0  502  0.26573371692E+03  0.20773761319E+02  0.10417250783E+04  0.11472737669E+04  0.40000000000E+03 0.  1.
<mgrwt>
<rscale>  2 0.48067240E+03</rscale>
<asrwt>0</asrwt>
<pdfrwt beam="1">  1       21 0.18780892E+00 0.48067240E+03</pdfrwt>
<pdfrwt beam="2">  1       21 0.78501561E-01 0.48067240E+03</pdfrwt>
<totfact> 0.18441333E+02</totfact>
</mgrwt>
</event>
<event>
 4    1  0.4991790E-002  0.5117774E+03  0.7818608E-02  0.1010750E+00
         21   -1    0    0  501  502  0.00000000000E+00  0.00000000000E+00  0.58658317495E+03  0.58658317495E+03  0.00000000000E+00 0. -1.
         21   -1    0    0  502  503 -0.00000000000E+00 -0.00000000000E+00 -0.45225348914E+03  0.45225348914E+03  0.00000000000E+00 0. -1.
    9000005    1    1    2  501    0 -0.80925420866E+02 -0.30881571195E+03  0.12569257895E+03  0.52698642496E+03  0.40000000000E+03 0. -1.
   -9000005    1    1    2    0  503  0.80925420866E+02  0.30881571195E+03  0.86371068673E+01  0.51185023914E+03  0.40000000000E+03 0. -1.
<mgrwt>
<rscale>  2 0.51177736E+03</rscale>
<asrwt>0</asrwt>
<pdfrwt beam="1">  1       21 0.90243566E-01 0.51177736E+03</pdfrwt>
<pdfrwt beam="2">  1       21 0.69577460E-01 0.51177736E+03</pdfrwt>
<totfact> 0.16490634E+03</totfact>
</mgrwt>
</event>
<event>
 4    1  0.4991790E-002  0.4972899E+03  0.7818608E-02  0.1014489E+00
         21   -1    0    0  501  502  0.00000000000E+00  0.00000000000E+00  0.79710929554E+03  0.79710929554E+03  0.00000000000E+00 0. -1.
         21   -1    0    0  502  503 -0.00000000000E+00 -0.00000000000E+00 -0.31358248612E+03  0.31358248612E+03  0.00000000000E+00 0. -1.
    9000005    1    1    2  501    0 -0.25811625596E+03  0.14378181812E+03  0.29907696253E+03  0.58029668474E+03  0.40000000000E+03 0. -1.
   -9000005    1    1    2    0  503  0.25811625596E+03 -0.14378181812E+03  0.18444984689E+03  0.53039509691E+03  0.40000000000E+03 0. -1.
<mgrwt>
<rscale>  2 0.49728987E+03</rscale>
<asrwt>0</asrwt>
<pdfrwt beam="1">  1       21 0.12263220E+00 0.49728987E+03</pdfrwt>
<pdfrwt beam="2">  1       21 0.48243460E-01 0.49728987E+03</pdfrwt>
<totfact> 0.17316217E+03</totfact>
</mgrwt>
</event>
<event>
 4    1  0.4991790E-002  0.4419415E+03  0.7818608E-02  0.1030153E+00
         21   -1    0    0  503  502  0.00000000000E+00  0.00000000000E+00  0.51778179918E+03  0.51778179918E+03  0.00000000000E+00 0. -1.
         21   -1    0    0  501  503 -0.00000000000E+00 -0.00000000000E+00 -0.54871714894E+03  0.54871714894E+03  0.00000000000E+00 0. -1.
    9000005    1    1    2  501    0 -0.17624737865E+03 -0.65185591357E+02 -0.31359220032E+03  0.54189700857E+03  0.40000000000E+03 0. -1.
   -9000005    1    1    2    0  502  0.17624737865E+03  0.65185591357E+02  0.28265685056E+03  0.52460193954E+03  0.40000000000E+03 0. -1.
<mgrwt>
<rscale>  2 0.44194151E+03</rscale>
<asrwt>0</asrwt>
<pdfrwt beam="1">  1       21 0.79658738E-01 0.44194151E+03</pdfrwt>
<pdfrwt beam="2">  1       21 0.84418023E-01 0.44194151E+03</pdfrwt>
<totfact> 0.14540752E+03</totfact>
</mgrwt>
</event>
<event>
 4    1  0.4991790E-002  0.4156317E+03  0.7818608E-02  0.1038497E+00
         21   -1    0    0  503  502  0.00000000000E+00  0.00000000000E+00  0.80519921850E+03  0.80519921850E+03  0.00000000000E+00 0.  1.
         21   -1    0    0  501  503 -0.00000000000E+00 -0.00000000000E+00 -0.24393720924E+03  0.24393720924E+03  0.00000000000E+00 0.  1.
    9000005    1    1    2  501    0  0.10767184101E+03  0.34007097413E+02  0.98537190269E+02  0.42715253234E+03  0.40000000000E+03 0.  1.
   -9000005    1    1    2    0  502 -0.10767184101E+03 -0.34007097413E+02  0.46272481899E+03  0.62198389539E+03  0.40000000000E+03 0.  1.
<mgrwt>
<rscale>  2 0.41563170E+03</rscale>
<asrwt>0</asrwt>
<pdfrwt beam="1">  1       21 0.12387680E+00 0.41563170E+03</pdfrwt>
<pdfrwt beam="2">  1       21 0.37528802E-01 0.41563170E+03</pdfrwt>
<totfact> 0.29325449E+03</totfact>
</mgrwt>
</event>
<event>
 4    1  0.4991790E-002  0.4569012E+03  0.7818608E-02  0.1025684E+00
         21   -1    0    0  501  502  0.00000000000E+00  0.00000000000E+00  0.37593470386E+03  0.37593470386E+03  0.00000000000E+00 0.  1.
         21   -1    0    0  502  503 -0.00000000000E+00 -0.00000000000E+00 -0.59076084560E+03  0.59076084560E+03  0.00000000000E+00 0.  1.
    9000005    1    1    2  501    0  0.22044657083E+03  0.12727696891E+02  0.10998322718E+02  0.45703353046E+03  0.40000000000E+03 0.  1.
   -9000005    1    1    2    0  503 -0.22044657083E+03 -0.12727696891E+02 -0.22582446446E+03  0.50966201900E+03  0.40000000000E+03 0.  1.
<mgrwt>
<rscale>  2 0.45690118E+03</rscale>
<asrwt>0</asrwt>
<pdfrwt beam="1">  1       21 0.57836108E-01 0.45690118E+03</pdfrwt>
<pdfrwt beam="2">  1       21 0.90886284E-01 0.45690118E+03</pdfrwt>
<totfact> 0.24896830E+03</totfact>
</mgrwt>
</event>
<event>
 4    1  0.4991790E-002  0.4162355E+03  0.7818608E-02  0.1038299E+00
         21   -1    0    0  503  502  0.00000000000E+00  0.00000000000E+00  0.23984064870E+04  0.23984064870E+04  0.00000000000E+00 0.  1.
         21   -1    0    0  501  503 -0.00000000000E+00 -0.00000000000E+00 -0.86782717304E+02  0.86782717304E+02  0.00000000000E+00 0.  1.
    9000005    1    1    2  501    0 -0.80990119330E+02  0.81808286427E+02  0.64707765802E+03  0.76939033700E+03  0.40000000000E+03 0.  1.
   -9000005    1    1    2    0  502  0.80990119330E+02 -0.81808286427E+02  0.16645461117E+04  0.17157988673E+04  0.40000000000E+03 0.  1.
<mgrwt>
<rscale>  2 0.41623550E+03</rscale>
<asrwt>0</asrwt>
<pdfrwt beam="1">  1       21 0.36898556E+00 0.41623550E+03</pdfrwt>
<pdfrwt beam="2">  1       21 0.13351189E-01 0.41623550E+03</pdfrwt>
<totfact> 0.52130296E+02</totfact>
</mgrwt>
</event>
<event>
 4    1  0.4991790E-002  0.4847119E+03  0.7818608E-02  0.1017848E+00
         21   -1    0    0  503  502  0.00000000000E+00  0.00000000000E+00  0.18025111237E+04  0.18025111237E+04  0.00000000000E+00 0.  1.
         21   -1    0    0  501  503 -0.00000000000E+00 -0.00000000000E+00 -0.13490043132E+03  0.13490043132E+03  0.00000000000E+00 0.  1.
    9000005    1    1    2  501    0 -0.12567289756E+02 -0.27347335413E+03  0.65576379525E+03  0.81545801079E+03  0.40000000000E+03 0.  1.
   -9000005    1    1    2    0  502  0.12567289756E+02  0.27347335413E+03  0.10118468971E+04  0.11219535443E+04  0.40000000000E+03 0.  1.
<mgrwt>
<rscale>  2 0.48471189E+03</rscale>
<asrwt>0</asrwt>
<pdfrwt beam="1">  1       21 0.27730939E+00 0.48471189E+03</pdfrwt>
<pdfrwt beam="2">  1       21 0.20753914E-01 0.48471189E+03</pdfrwt>
<totfact> 0.79087867E+02</totfact>
</mgrwt>
</event>
<event>
 4    1  0.4991790E-002  0.5509847E+03  0.7818608E-02  0.1001266E+00
         21   -1    0    0  501  502  0.00000000000E+00  0.00000000000E+00  0.54756524423E+03  0.54756524423E+03  0.00000000000E+00 0.  1.
         21   -1    0    0  502  503 -0.00000000000E+00 -0.00000000000E+00 -0.76133917224E+03  0.76133917224E+03  0.00000000000E+00 0. -1.
    9000005    1    1    2  501    0  0.94679919824E+02 -0.36690573139E+03  0.23429298819E+03  0.59872974476E+03  0.40000000000E+03 0.  1.
   -9000005    1    1    2    0  503 -0.94679919824E+02  0.36690573139E+03 -0.44806691620E+03  0.71017467171E+03  0.40000000000E+03 0. -1.
<mgrwt>
<rscale>  2 0.55098467E+03</rscale>
<asrwt>0</asrwt>
<pdfrwt beam="1">  1       21 0.84240807E-01 0.55098467E+03</pdfrwt>
<pdfrwt beam="2">  1       21 0.11712910E+00 0.55098467E+03</pdfrwt>
<totfact> 0.55252938E+02</totfact>
</mgrwt>
</event>
<event>
 4    1  0.4991790E-002  0.4147305E+03  0.7818608E-02  0.1038795E+00
         21   -1    0    0  503  502  0.00000000000E+00  0.00000000000E+00  0.18302916118E+03  0.18302916118E+03  0.00000000000E+00 0. -1.
         21   -1    0    0  501  503 -0.00000000000E+00 -0.00000000000E+00 -0.12468312024E+04  0.12468312024E+04  0.00000000000E+00 0. -1.
    9000005    1    1    2  501    0  0.75966624847E+01 -0.10928709903E+03 -0.88670418056E+03  0.97890024166E+03  0.40000000000E+03 0. -1.
   -9000005    1    1    2    0  502 -0.75966624847E+01  0.10928709903E+03 -0.17709786064E+03  0.45096012189E+03  0.40000000000E+03 0. -1.
<mgrwt>
<rscale>  2 0.41473049E+03</rscale>
<asrwt>0</asrwt>
<pdfrwt beam="1">  1       21 0.28158334E-01 0.41473049E+03</pdfrwt>
<pdfrwt beam="2">  1       21 0.19182018E+00 0.41473049E+03</pdfrwt>
<totfact> 0.15668109E+03</totfact>
</mgrwt>
</event>
<event>
 4    1  0.4991790E-002  0.4343218E+03  0.7818608E-02  0.1032503E+00
         21   -1    0    0  501  502  0.00000000000E+00  0.00000000000E+00  0.37099386831E+03  0.37099386831E+03  0.00000000000E+00 0. -1.
         21   -1    0    0  502  503 -0.00000000000E+00 -0.00000000000E+00 -0.54892715458E+03  0.54892715458E+03  0.00000000000E+00 0. -1.
    9000005    1    1    2  501    0 -0.94455037850E+02 -0.14040542610E+03 -0.21385329862E+03  0.48411638186E+03  0.40000000000E+03 0. -1.
   -9000005    1    1    2    0  503  0.94455037850E+02  0.14040542610E+03  0.35920012342E+02  0.43580464103E+03  0.40000000000E+03 0. -1.
<mgrwt>
<rscale>  2 0.43432181E+03</rscale>
<asrwt>0</asrwt>
<pdfrwt beam="1">  1       21 0.57075980E-01 0.43432181E+03</pdfrwt>
<pdfrwt beam="2">  1       21 0.84450331E-01 0.43432181E+03</pdfrwt>
<totfact> 0.30711169E+03</totfact>
</mgrwt>
</event>
<event>
 4    1  0.4991790E-002  0.4946698E+03  0.7818608E-02  0.1015180E+00
         21   -1    0    0  501  502  0.00000000000E+00  0.00000000000E+00  0.42295821604E+03  0.42295821604E+03  0.00000000000E+00 0.  1.
         21   -1    0    0  502  503 -0.00000000000E+00 -0.00000000000E+00 -0.68361347747E+03  0.68361347747E+03  0.00000000000E+00 0. -1.
    9000005    1    1    2  501    0  0.23852379559E+03  0.16674718509E+03  0.86588031394E+02  0.50219091188E+03  0.40000000000E+03 0.  1.
   -9000005    1    1    2    0  503 -0.23852379559E+03 -0.16674718509E+03 -0.34724329282E+03  0.60438078163E+03  0.40000000000E+03 0. -1.
<mgrwt>
<rscale>  2 0.49466981E+03</rscale>
<asrwt>0</asrwt>
<pdfrwt beam="1">  1       21 0.65070495E-01 0.49466981E+03</pdfrwt>
<pdfrwt beam="2">  1       21 0.10517130E+00 0.49466981E+03</pdfrwt>
<totfact> 0.13304678E+03</totfact>
</mgrwt>
</event>
<event>
 4    1  0.4991790E-002  0.4651827E+03  0.7818608E-02  0.1023289E+00
         21   -1    0    0  503  502  0.00000000000E+00  0.00000000000E+00  0.34554931094E+03  0.34554931094E+03  0.00000000000E+00 0.  1.
         21   -1    0    0  501  503 -0.00000000000E+00 -0.00000000000E+00 -0.74843160314E+03  0.74843160314E+03  0.00000000000E+00 0.  1.
    9000005    1    1    2  501    0 -0.72482198783E+02  0.22614434844E+03 -0.42246236180E+03  0.62838633229E+03  0.40000000000E+03 0.  1.
   -9000005    1    1    2    0  502  0.72482198783E+02 -0.22614434844E+03  0.19580069603E+02  0.46559458179E+03  0.40000000000E+03 0.  1.
<mgrwt>
<rscale>  2 0.46518269E+03</rscale>
<asrwt>0</asrwt>
<pdfrwt beam="1">  1       21 0.53161432E-01 0.46518269E+03</pdfrwt>
<pdfrwt beam="2">  1       21 0.11514332E+00 0.46518269E+03</pdfrwt>
<totfact> 0.16710514E+03</totfact>
</mgrwt>
</event>
<event>
 4    1  0.4991790E-002  0.4678543E+03  0.7818608E-02  0.1022528E+00
         21   -1    0    0  501  502  0.00000000000E+00  0.00000000000E+00  0.88875424692E+03  0.88875424692E+03  0.00000000000E+00 0. -1.
         21   -1    0    0  502  503 -0.00000000000E+00 -0.00000000000E+00 -0.32796110198E+03  0.32796110198E+03  0.00000000000E+00 0.  1.
    9000005    1    1    2  501    0  0.43092913171E+02  0.23881082360E+03  0.58399046025E+03  0.74828635314E+03  0.40000000000E+03 0.  1.
   -9000005    1    1    2    0  503 -0.43092913171E+02 -0.23881082360E+03 -0.23197315312E+02  0.46842899576E+03  0.40000000000E+03 0.  1.
<mgrwt>
<rscale>  2 0.46785426E+03</rscale>
<asrwt>0</asrwt>
<pdfrwt beam="1">  1       21 0.13673142E+00 0.46785426E+03</pdfrwt>
<pdfrwt beam="2">  1       21 0.50455554E-01 0.46785426E+03</pdfrwt>
<totfact> 0.11997081E+03</totfact>
</mgrwt>
</event>
<event>
 4    1  0.4991790E-002  0.4432582E+03  0.7818608E-02  0.1029752E+00
         21   -1    0    0  503  502  0.00000000000E+00  0.00000000000E+00  0.30798569008E+03  0.30798569008E+03  0.00000000000E+00 0. -1.
         21   -1    0    0  501  503 -0.00000000000E+00 -0.00000000000E+00 -0.65490279913E+03  0.65490279913E+03  0.00000000000E+00 0.  1.
    9000005    1    1    2  501    0  0.17599092470E+03  0.74195719613E+02 -0.25093101275E+03  0.50935663689E+03  0.40000000000E+03 0. -1.
   -9000005    1    1    2    0  502 -0.17599092470E+03 -0.74195719613E+02 -0.95986096304E+02  0.45353185232E+03  0.40000000000E+03 0.  1.
<mgrwt>
<rscale>  2 0.44325818E+03</rscale>
<asrwt>0</asrwt>
<pdfrwt beam="1">  1       21 0.47382415E-01 0.44325818E+03</pdfrwt>
<pdfrwt beam="2">  1       21 0.10075427E+00 0.44325818E+03</pdfrwt>
<totfact> 0.29941873E+03</totfact>
</mgrwt>
</event>
<event>
 4    1  0.4991790E-002  0.4216608E+03  0.7818608E-02  0.1036527E+00
         21   -1    0    0  503  502  0.00000000000E+00  0.00000000000E+00  0.10231530863E+04  0.10231530863E+04  0.00000000000E+00 0.  1.
         21   -1    0    0  501  503 -0.00000000000E+00 -0.00000000000E+00 -0.29255465562E+03  0.29255465562E+03  0.00000000000E+00 0.  1.
    9000005    1    1    2  501    0  0.91510543180E+02  0.97075403650E+02 -0.53878374016E+02  0.42508904090E+03  0.40000000000E+03 0.  1.
   -9000005    1    1    2    0  502 -0.91510543180E+02 -0.97075403650E+02  0.78447680465E+03  0.89061870099E+03  0.40000000000E+03 0.  1.
<mgrwt>
<rscale>  2 0.42166078E+03</rscale>
<asrwt>0</asrwt>
<pdfrwt beam="1">  1       21 0.15740817E+00 0.42166078E+03</pdfrwt>
<pdfrwt beam="2">  1       21 0.45008409E-01 0.42166078E+03</pdfrwt>
<totfact> 0.10650392E+03</totfact>
</mgrwt>
</event>
<event>
 4    1  0.4991790E-002  0.4035428E+03  0.7818608E-02  0.1042560E+00
         21   -1    0    0  503  502  0.00000000000E+00  0.00000000000E+00  0.26554728618E+03  0.26554728618E+03  0.00000000000E+00 0. -1.
         21   -1    0    0  501  503 -0.00000000000E+00 -0.00000000000E+00 -0.81962487837E+03  0.81962487837E+03  0.00000000000E+00 0. -1.
    9000005    1    1    2  501    0  0.34880030628E+02 -0.40375674793E+02 -0.54930249644E+03  0.68160108880E+03  0.40000000000E+03 0. -1.
   -9000005    1    1    2    0  502 -0.34880030628E+02  0.40375674793E+02 -0.47750957518E+01  0.40357107576E+03  0.40000000000E+03 0. -1.
<mgrwt>
<rscale>  2 0.40354283E+03</rscale>
<asrwt>0</asrwt>
<pdfrwt beam="1">  1       21 0.40853429E-01 0.40354283E+03</pdfrwt>
<pdfrwt beam="2">  1       21 0.12609614E+00 0.40354283E+03</pdfrwt>
<totfact> 0.23663076E+03</totfact>
</mgrwt>
</event>
<event>
 4    1  0.4991790E-002  0.6409077E+03  0.7818608E-02  0.9823991E-01
         21   -1    0    0  503  502  0.00000000000E+00  0.00000000000E+00  0.95836227745E+03  0.95836227745E+03  0.00000000000E+00 0. -1.
         21   -1    0    0  501  503 -0.00000000000E+00 -0.00000000000E+00 -0.66590268248E+03  0.66590268248E+03  0.00000000000E+00 0.  1.
    9000005    1    1    2  501    0 -0.13247628144E+02  0.50058678616E+03 -0.33857247827E+03  0.72484063984E+03  0.40000000000E+03 0.  1.
   -9000005    1    1    2    0  502  0.13247628144E+02 -0.50058678616E+03  0.63103207324E+03  0.89942432010E+03  0.40000000000E+03 0. -1.
<mgrwt>
<rscale>  2 0.64090766E+03</rscale>
<asrwt>0</asrwt>
<pdfrwt beam="1">  1       21 0.14744035E+00 0.64090766E+03</pdfrwt>
<pdfrwt beam="2">  1       21 0.10244657E+00 0.64090766E+03</pdfrwt>
<totfact> 0.18249620E+02</totfact>
</mgrwt>
</event>
<event>
 4    1  0.4991790E-002  0.5726486E+03  0.7818608E-02  0.9963835E-01
         21   -1    0    0  503  502  0.00000000000E+00  0.00000000000E+00  0.10821598753E+04  0.10821598753E+04  0.00000000000E+00 0. -1.
         21   -1    0    0  501  503 -0.00000000000E+00 -0.00000000000E+00 -0.30405821704E+03  0.30405821704E+03  0.00000000000E+00 0.  1.
    9000005    1    1    2  501    0 -0.23838993661E+03  0.33331159862E+03  0.34873573258E+03  0.67047967518E+03  0.40000000000E+03 0. -1.
   -9000005    1    1    2    0  502  0.23838993661E+03 -0.33331159862E+03  0.42936592567E+03  0.71573841715E+03  0.40000000000E+03 0.  1.
<mgrwt>
<rscale>  2 0.57264857E+03</rscale>
<asrwt>0</asrwt>
<pdfrwt beam="1">  1       21 0.16648613E+00 0.57264857E+03</pdfrwt>
<pdfrwt beam="2">  1       21 0.46778188E-01 0.57264857E+03</pdfrwt>
<totfact> 0.79007597E+02</totfact>
</mgrwt>
</event>
<event>
 4    1  0.4991790E-002  0.4403936E+03  0.7818608E-02  0.1030626E+00
         21   -1    0    0  503  502  0.00000000000E+00  0.00000000000E+00  0.47439169262E+03  0.47439169262E+03  0.00000000000E+00 0. -1.
         21   -1    0    0  501  503 -0.00000000000E+00 -0.00000000000E+00 -0.70124182158E+03  0.70124182158E+03  0.00000000000E+00 0. -1.
    9000005    1    1    2  501    0  0.18368109103E+03 -0.14413290442E+02 -0.49300571390E+03  0.66106060243E+03  0.40000000000E+03 0. -1.
   -9000005    1    1    2    0  502 -0.18368109103E+03  0.14413290442E+02  0.26615558493E+03  0.51457291177E+03  0.40000000000E+03 0. -1.
<mgrwt>
<rscale>  2 0.44039356E+03</rscale>
<asrwt>0</asrwt>
<pdfrwt beam="1">  1       21 0.72983338E-01 0.44039356E+03</pdfrwt>
<pdfrwt beam="2">  1       21 0.10788336E+00 0.44039356E+03</pdfrwt>
<totfact> 0.98616826E+02</totfact>
</mgrwt>
</event>
<event>
 4    1  0.4991790E-002  0.4307277E+03  0.7818608E-02  0.1033630E+00
         21   -1    0    0  503  502  0.00000000000E+00  0.00000000000E+00  0.14009880556E+04  0.14009880556E+04  0.00000000000E+00 0. -1.
         21   -1    0    0  501  503 -0.00000000000E+00 -0.00000000000E+00 -0.19484723399E+03  0.19484723399E+03  0.00000000000E+00 0. -1.
    9000005    1    1    2  501    0  0.88318817886E+02 -0.13313965871E+03  0.15144407239E+03  0.45657604994E+03  0.40000000000E+03 0. -1.
   -9000005    1    1    2    0  502 -0.88318817886E+02  0.13313965871E+03  0.10546967492E+04  0.11392592397E+04  0.40000000000E+03 0. -1.
<mgrwt>
<rscale>  2 0.43072774E+03</rscale>
<asrwt>0</asrwt>
<pdfrwt beam="1">  1       21 0.21553662E+00 0.43072774E+03</pdfrwt>
<pdfrwt beam="2">  1       21 0.29976498E-01 0.43072774E+03</pdfrwt>
<totfact> 0.95807314E+02</totfact>
</mgrwt>
</event>
<event>
 4    1  0.4991790E-002  0.5690362E+03  0.7818608E-02  0.9971814E-01
         21   -1    0    0  501  502  0.00000000000E+00  0.00000000000E+00  0.32537921903E+03  0.32537921903E+03  0.00000000000E+00 0.  1.
         21   -1    0    0  502  503 -0.00000000000E+00 -0.00000000000E+00 -0.99625606716E+03  0.99625606716E+03  0.00000000000E+00 0.  1.
    9000005    1    1    2  501    0  0.22373217893E+03  0.33726266879E+03 -0.31345259505E+03  0.64965739047E+03  0.40000000000E+03 0.  1.
   -9000005    1    1    2    0  503 -0.22373217893E+03 -0.33726266879E+03 -0.35742425308E+03  0.67197789572E+03  0.40000000000E+03 0.  1.
<mgrwt>
<rscale>  2 0.56903620E+03</rscale>
<asrwt>0</asrwt>
<pdfrwt beam="1">  1       21 0.50058342E-01 0.56903620E+03</pdfrwt>
<pdfrwt beam="2">  1       21 0.15327016E+00 0.56903620E+03</pdfrwt>
<totfact> 0.86376688E+02</totfact>
</mgrwt>
</event>
<event>
 4    1  0.4991790E-002  0.4356185E+03  0.7818608E-02  0.1032100E+00
         21   -1    0    0  501  502  0.00000000000E+00  0.00000000000E+00  0.98067361331E+03  0.98067361331E+03  0.00000000000E+00 0.  1.
         21   -1    0    0  502  503 -0.00000000000E+00 -0.00000000000E+00 -0.26744865785E+03  0.26744865785E+03  0.00000000000E+00 0.  1.
    9000005    1    1    2  501    0 -0.56571311218E+01  0.17242818358E+03  0.68475512613E+03  0.81157443551E+03  0.40000000000E+03 0.  1.
   -9000005    1    1    2    0  503  0.56571311218E+01 -0.17242818358E+03  0.28469829338E+02  0.43654783565E+03  0.40000000000E+03 0.  1.
<mgrwt>
<rscale>  2 0.43561850E+03</rscale>
<asrwt>0</asrwt>
<pdfrwt beam="1">  1       21 0.15087286E+00 0.43561850E+03</pdfrwt>
<pdfrwt beam="2">  1       21 0.41145948E-01 0.43561850E+03</pdfrwt>
<totfact> 0.14326772E+03</totfact>
</mgrwt>
</event>
<event>
 4    1  0.4991790E-002  0.4254441E+03  0.7818608E-02  0.1035309E+00
         21   -1    0    0  501  502  0.00000000000E+00  0.00000000000E+00  0.10567438637E+04  0.10567438637E+04  0.00000000000E+00 0.  1.
         21   -1    0    0  502  503 -0.00000000000E+00 -0.00000000000E+00 -0.17624213202E+03  0.17624213202E+03  0.00000000000E+00 0.  1.
    9000005    1    1    2  501    0  0.10761488143E+03 -0.97065663008E+02  0.54365969352E+03  0.69033945852E+03  0.40000000000E+03 0.  1.
   -9000005    1    1    2    0  503 -0.10761488143E+03  0.97065663008E+02  0.33684203813E+03  0.54264653716E+03  0.40000000000E+03 0.  1.
<mgrwt>
<rscale>  2 0.42544413E+03</rscale>
<asrwt>0</asrwt>
<pdfrwt beam="1">  1       21 0.16257597E+00 0.42544413E+03</pdfrwt>
<pdfrwt beam="2">  1       21 0.27114175E-01 0.42544413E+03</pdfrwt>
<totfact> 0.27095632E+03</totfact>
</mgrwt>
</event>
<event>
 4    1  0.4991790E-002  0.4085966E+03  0.7818608E-02  0.1040843E+00
         21   -1    0    0  501  502  0.00000000000E+00  0.00000000000E+00  0.22941618888E+03  0.22941618888E+03  0.00000000000E+00 0. -1.
         21   -1    0    0  502  503 -0.00000000000E+00 -0.00000000000E+00 -0.75815847460E+03  0.75815847460E+03  0.00000000000E+00 0. -1.
    9000005    1    1    2  501    0  0.55413326658E+00 -0.83372014323E+02 -0.16543445471E+03  0.44081714876E+03  0.40000000000E+03 0.  1.
   -9000005    1    1    2    0  503 -0.55413326658E+00  0.83372014323E+02 -0.36330783100E+03  0.54675751472E+03  0.40000000000E+03 0.  1.
<mgrwt>
<rscale>  2 0.40859662E+03</rscale>
<asrwt>0</asrwt>
<pdfrwt beam="1">  1       21 0.35294798E-01 0.40859662E+03</pdfrwt>
<pdfrwt beam="2">  1       21 0.11663976E+00 0.40859662E+03</pdfrwt>
<totfact> 0.38801612E+03</totfact>
</mgrwt>
</event>
<event>
 4    1  0.4991790E-002  0.5068266E+03  0.7818608E-02  0.1012012E+00
         21   -1    0    0  503  502  0.00000000000E+00  0.00000000000E+00  0.38347179796E+03  0.38347179796E+03  0.00000000000E+00 0.  1.
         21   -1    0    0  501  503 -0.00000000000E+00 -0.00000000000E+00 -0.87416828593E+03  0.87416828593E+03  0.00000000000E+00 0. -1.
    9000005    1    1    2  501    0 -0.26712843748E+03 -0.15973609949E+03 -0.54934546312E+03  0.74743137574E+03  0.40000000000E+03 0. -1.
   -9000005    1    1    2    0  502  0.26712843748E+03  0.15973609949E+03  0.58648975153E+02  0.51020870815E+03  0.40000000000E+03 0.  1.
<mgrwt>
<rscale>  2 0.50682662E+03</rscale>
<asrwt>0</asrwt>
<pdfrwt beam="1">  1       21 0.58995662E-01 0.50682662E+03</pdfrwt>
<pdfrwt beam="2">  1       21 0.13448743E+00 0.50682662E+03</pdfrwt>
<totfact> 0.88037644E+02</totfact>
</mgrwt>
</event>
<event>
 4    1  0.4991790E-002  0.4605856E+03  0.7818608E-02  0.1024612E+00
         21   -1    0    0  503  502  0.00000000000E+00  0.00000000000E+00  0.95166281415E+03  0.95166281415E+03  0.00000000000E+00 0.  1.
         21   -1    0    0  501  503 -0.00000000000E+00 -0.00000000000E+00 -0.69074420302E+03  0.69074420302E+03  0.00000000000E+00 0. -1.
    9000005    1    1    2  501    0 -0.17935433763E+03  0.14131930154E+03 -0.54536875912E+03  0.71383906228E+03  0.40000000000E+03 0. -1.
   -9000005    1    1    2    0  502  0.17935433763E+03 -0.14131930154E+03  0.80628737026E+03  0.92856795489E+03  0.40000000000E+03 0.  1.
<mgrwt>
<rscale>  2 0.46058563E+03</rscale>
<asrwt>0</asrwt>
<pdfrwt beam="1">  1       21 0.14640966E+00 0.46058563E+03</pdfrwt>
<pdfrwt beam="2">  1       21 0.10626834E+00 0.46058563E+03</pdfrwt>
<totfact> 0.18325421E+02</totfact>
</mgrwt>
</event>
<event>
 4    1  0.4991790E-002  0.4379482E+03  0.7818608E-02  0.1031378E+00
         21   -1    0    0  503  502  0.00000000000E+00  0.00000000000E+00  0.70606909296E+03  0.70606909296E+03  0.00000000000E+00 0.  1.
         21   -1    0    0  501  503 -0.00000000000E+00 -0.00000000000E+00 -0.28576598587E+03  0.28576598587E+03  0.00000000000E+00 0.  1.
    9000005    1    1    2  501    0 -0.14759684261E+03  0.10006905138E+03  0.99903917817E+02  0.44919865960E+03  0.40000000000E+03 0.  1.
   -9000005    1    1    2    0  502  0.14759684261E+03 -0.10006905138E+03  0.32039918927E+03  0.54263641923E+03  0.40000000000E+03 0.  1.
<mgrwt>
<rscale>  2 0.43794822E+03</rscale>
<asrwt>0</asrwt>
<pdfrwt beam="1">  1       21 0.10862601E+00 0.43794822E+03</pdfrwt>
<pdfrwt beam="2">  1       21 0.43963998E-01 0.43794822E+03</pdfrwt>
<totfact> 0.29178556E+03</totfact>
</mgrwt>
</event>
<event>
 4    1  0.4991790E-002  0.4796838E+03  0.7818608E-02  0.1019222E+00
         21   -1    0    0  501  502  0.00000000000E+00  0.00000000000E+00  0.27344081151E+03  0.27344081151E+03  0.00000000000E+00 0. -1.
         21   -1    0    0  502  503 -0.00000000000E+00 -0.00000000000E+00 -0.13561987060E+04  0.13561987060E+04  0.00000000000E+00 0.  1.
    9000005    1    1    2  501    0  0.21553873408E+02 -0.26387865227E+03 -0.39403481770E+02  0.48129943586E+03  0.40000000000E+03 0. -1.
   -9000005    1    1    2    0  503 -0.21553873408E+02  0.26387865227E+03 -0.10433544127E+04  0.11483400816E+04  0.40000000000E+03 0.  1.
<mgrwt>
<rscale>  2 0.47968376E+03</rscale>
<asrwt>0</asrwt>
<pdfrwt beam="1">  1       21 0.42067816E-01 0.47968376E+03</pdfrwt>
<pdfrwt beam="2">  1       21 0.20864596E+00 0.47968376E+03</pdfrwt>
<totfact> 0.52161403E+02</totfact>
</mgrwt>
</event>
<event>
 4    1  0.4991790E-002  0.8483413E+03  0.7818608E-02  0.9492566E-01
         21   -1    0    0  503  502  0.00000000000E+00  0.00000000000E+00  0.10027604011E+04  0.10027604011E+04  0.00000000000E+00 0. -1.
         21   -1    0    0  501  503 -0.00000000000E+00 -0.00000000000E+00 -0.76550337964E+03  0.76550337964E+03  0.00000000000E+00 0.  1.
    9000005    1    1    2  501    0  0.26088524161E+03  0.70115752297E+03 -0.10230645736E+03  0.85448791246E+03  0.40000000000E+03 0. -1.
   -9000005    1    1    2    0  502 -0.26088524161E+03 -0.70115752297E+03  0.33956347881E+03  0.91377586828E+03  0.40000000000E+03 0.  1.
<mgrwt>
<rscale>  2 0.84834131E+03</rscale>
<asrwt>0</asrwt>
<pdfrwt beam="1">  1       21 0.15427083E+00 0.84834131E+03</pdfrwt>
<pdfrwt beam="2">  1       21 0.11776975E+00 0.84834131E+03</pdfrwt>
<totfact> 0.10637565E+02</totfact>
</mgrwt>
</event>
<event>
 4    1  0.4991790E-002  0.5761354E+03  0.7818608E-02  0.9956193E-01
         21   -1    0    0  501  502  0.00000000000E+00  0.00000000000E+00  0.87642915247E+03  0.87642915247E+03  0.00000000000E+00 0.  1.
         21   -1    0    0  502  503 -0.00000000000E+00 -0.00000000000E+00 -0.50664388721E+03  0.50664388721E+03  0.00000000000E+00 0. -1.
    9000005    1    1    2  501    0  0.15591106241E+03 -0.38421838456E+03 -0.16257844796E+03  0.59863492895E+03  0.40000000000E+03 0.  1.
   -9000005    1    1    2    0  503 -0.15591106241E+03  0.38421838456E+03  0.53236371322E+03  0.78443811073E+03  0.40000000000E+03 0.  1.
<mgrwt>
<rscale>  2 0.57613542E+03</rscale>
<asrwt>0</asrwt>
<pdfrwt beam="1">  1       21 0.13483525E+00 0.57613542E+03</pdfrwt>
<pdfrwt beam="2">  1       21 0.77945214E-01 0.57613542E+03</pdfrwt>
<totfact> 0.45566591E+02</totfact>
</mgrwt>
</event>
<event>
 4    1  0.4991790E-002  0.5029812E+03  0.7818608E-02  0.1013004E+00
         21   -1    0    0  501  502  0.00000000000E+00  0.00000000000E+00  0.87644864494E+03  0.87644864494E+03  0.00000000000E+00 0. -1.
         21   -1    0    0  502  503 -0.00000000000E+00 -0.00000000000E+00 -0.30589909133E+03  0.30589909133E+03  0.00000000000E+00 0. -1.
    9000005    1    1    2  501    0  0.26722203984E+03 -0.14690966113E+03  0.42564137338E+03  0.65890867792E+03  0.40000000000E+03 0. -1.
   -9000005    1    1    2    0  503 -0.26722203984E+03  0.14690966113E+03  0.14490818022E+03  0.52343905835E+03  0.40000000000E+03 0. -1.
<mgrwt>
<rscale>  2 0.50298118E+03</rscale>
<asrwt>0</asrwt>
<pdfrwt beam="1">  1       21 0.13483825E+00 0.50298118E+03</pdfrwt>
<pdfrwt beam="2">  1       21 0.47061399E-01 0.50298118E+03</pdfrwt>
<totfact> 0.14236037E+03</totfact>
</mgrwt>
</event>
<event>
 4    1  0.4991790E-002  0.6094113E+03  0.7818608E-02  0.9886071E-01
         21   -1    0    0  501  502  0.00000000000E+00  0.00000000000E+00  0.11045819502E+04  0.11045819502E+04  0.00000000000E+00 0. -1.
         21   -1    0    0  502  503 -0.00000000000E+00 -0.00000000000E+00 -0.33639455498E+03  0.33639455498E+03  0.00000000000E+00 0.  1.
    9000005    1    1    2  501    0 -0.13658652131E+02  0.45956016409E+03  0.40052468357E+03  0.72924764336E+03  0.40000000000E+03 0. -1.
   -9000005    1    1    2    0  503  0.13658652131E+02 -0.45956016409E+03  0.36766271165E+03  0.71172886181E+03  0.40000000000E+03 0. -1.
<mgrwt>
<rscale>  2 0.60941128E+03</rscale>
<asrwt>0</asrwt>
<pdfrwt beam="1">  1       21 0.16993568E+00 0.60941128E+03</pdfrwt>
<pdfrwt beam="2">  1       21 0.51753009E-01 0.60941128E+03</pdfrwt>
<totfact> 0.59296417E+02</totfact>
</mgrwt>
</event>
<event>
 4    1  0.4991790E-002  0.4438906E+03  0.7818608E-02  0.1029560E+00
         21   -1    0    0  501  502  0.00000000000E+00  0.00000000000E+00  0.78500293997E+03  0.78500293997E+03  0.00000000000E+00 0. -1.
         21   -1    0    0  502  503 -0.00000000000E+00 -0.00000000000E+00 -0.42034882776E+03  0.42034882776E+03  0.00000000000E+00 0. -1.
    9000005    1    1    2  501    0  0.14081598996E+02 -0.19193900051E+03  0.56485650280E+03  0.71840221332E+03  0.40000000000E+03 0. -1.
   -9000005    1    1    2    0  503 -0.14081598996E+02  0.19193900051E+03 -0.20020239059E+03  0.48694955442E+03  0.40000000000E+03 0. -1.
<mgrwt>
<rscale>  2 0.44389061E+03</rscale>
<asrwt>0</asrwt>
<pdfrwt beam="1">  1       21 0.12076968E+00 0.44389061E+03</pdfrwt>
<pdfrwt beam="2">  1       21 0.64669050E-01 0.44389061E+03</pdfrwt>
<totfact> 0.97404239E+02</totfact>
</mgrwt>
</event>
<event>
 4    1  0.4991790E-002  0.6438860E+03  0.7818608E-02  0.9818320E-01
         21   -1    0    0  503  502  0.00000000000E+00  0.00000000000E+00  0.10637319171E+04  0.10637319171E+04  0.00000000000E+00 0. -1.
         21   -1    0    0  501  503 -0.00000000000E+00 -0.00000000000E+00 -0.46506755683E+03  0.46506755683E+03  0.00000000000E+00 0.  1.
    9000005    1    1    2  501    0  0.50359531832E+03 -0.31320203725E+02 -0.82856272394E+01  0.64393932277E+03  0.40000000000E+03 0.  1.
   -9000005    1    1    2    0  502 -0.50359531832E+03  0.31320203725E+02  0.60694998754E+03  0.88486015119E+03  0.40000000000E+03 0. -1.
<mgrwt>
<rscale>  2 0.64388601E+03</rscale>
<asrwt>0</asrwt>
<pdfrwt beam="1">  1       21 0.16365106E+00 0.64388601E+03</pdfrwt>
<pdfrwt beam="2">  1       21 0.71548855E-01 0.64388601E+03</pdfrwt>
<totfact> 0.31879074E+02</totfact>
</mgrwt>
</event>
<event>
 4    1  0.4991790E-002  0.4016751E+03  0.7818608E-02  0.1043201E+00
         21   -1    0    0  501  502  0.00000000000E+00  0.00000000000E+00  0.34674022902E+03  0.34674022902E+03  0.00000000000E+00 0. -1.
         21   -1    0    0  502  503 -0.00000000000E+00 -0.00000000000E+00 -0.51638408921E+03  0.51638408921E+03  0.00000000000E+00 0. -1.
    9000005    1    1    2  501    0 -0.33154811438E+02 -0.15609747836E+02 -0.22054148039E+03  0.45823732969E+03  0.40000000000E+03 0. -1.
   -9000005    1    1    2    0  503  0.33154811438E+02  0.15609747836E+02  0.50897620189E+02  0.40488698854E+03  0.40000000000E+03 0. -1.
<mgrwt>
<rscale>  2 0.40167512E+03</rscale>
<asrwt>0</asrwt>
<pdfrwt beam="1">  1       21 0.53344651E-01 0.40167512E+03</pdfrwt>
<pdfrwt beam="2">  1       21 0.79443706E-01 0.40167512E+03</pdfrwt>
<totfact> 0.41439024E+03</totfact>
</mgrwt>
</event>
<event>
 4    1  0.4991790E-002  0.4191581E+03  0.7818608E-02  0.1037341E+00
         21   -1    0    0  503  502  0.00000000000E+00  0.00000000000E+00  0.62201265051E+03  0.62201265051E+03  0.00000000000E+00 0. -1.
         21   -1    0    0  501  503 -0.00000000000E+00 -0.00000000000E+00 -0.37765003856E+03  0.37765003856E+03  0.00000000000E+00 0.  1.
    9000005    1    1    2  501    0 -0.12257441703E+03  0.25865027390E+02 -0.12876177583E+03  0.43848954636E+03  0.40000000000E+03 0.  1.
   -9000005    1    1    2    0  502  0.12257441703E+03 -0.25865027390E+02  0.37312438777E+03  0.56117314271E+03  0.40000000000E+03 0. -1.
<mgrwt>
<rscale>  2 0.41915807E+03</rscale>
<asrwt>0</asrwt>
<pdfrwt beam="1">  1       21 0.95694254E-01 0.41915807E+03</pdfrwt>
<pdfrwt beam="2">  1       21 0.58100006E-01 0.41915807E+03</pdfrwt>
<totfact> 0.22112315E+03</totfact>
</mgrwt>
</event>
<event>
 4    1  0.4991790E-002  0.4064916E+03  0.7818608E-02  0.1041555E+00
         21   -1    0    0  501  502  0.00000000000E+00  0.00000000000E+00  0.14220943936E+04  0.14220943936E+04  0.00000000000E+00 0.  1.
         21   -1    0    0  502  503 -0.00000000000E+00 -0.00000000000E+00 -0.11643953261E+03  0.11643953261E+03  0.00000000000E+00 0.  1.
    9000005    1    1    2  501    0  0.91569203759E+01  0.71774338043E+02  0.68832550977E+03  0.79939190150E+03  0.40000000000E+03 0. -1.
   -9000005    1    1    2    0  503 -0.91569203759E+01 -0.71774338043E+02  0.61732935121E+03  0.73914202469E+03  0.40000000000E+03 0. -1.
<mgrwt>
<rscale>  2 0.40649158E+03</rscale>
<asrwt>0</asrwt>
<pdfrwt beam="1">  1       21 0.21878374E+00 0.40649158E+03</pdfrwt>
<pdfrwt beam="2">  1       21 0.17913775E-01 0.40649158E+03</pdfrwt>
<totfact> 0.24951022E+03</totfact>
</mgrwt>
</event>
<event>
 4    1  0.4991790E-002  0.4534853E+03  0.7818608E-02  0.1026688E+00
         21   -1    0    0  501  502  0.00000000000E+00  0.00000000000E+00  0.12100793576E+04  0.12100793576E+04  0.00000000000E+00 0.  1.
         21   -1    0    0  502  503 -0.00000000000E+00 -0.00000000000E+00 -0.29114663510E+03  0.29114663510E+03  0.00000000000E+00 0.  1.
    9000005    1    1    2  501    0 -0.91379914928E+02 -0.19312859450E+03  0.94376300667E+03  0.10470613906E+04  0.40000000000E+03 0.  1.
   -9000005    1    1    2    0  503  0.91379914928E+02  0.19312859450E+03 -0.24830284123E+02  0.45416460218E+03  0.40000000000E+03 0.  1.
<mgrwt>
<rscale>  2 0.45348533E+03</rscale>
<asrwt>0</asrwt>
<pdfrwt beam="1">  1       21 0.18616605E+00 0.45348533E+03</pdfrwt>
<pdfrwt beam="2">  1       21 0.44791791E-01 0.45348533E+03</pdfrwt>
<totfact> 0.65622073E+02</totfact>
</mgrwt>
</event>
<event>
 4    1  0.4991790E-002  0.4081057E+03  0.7818608E-02  0.1041009E+00
         21   -1    0    0  503  502  0.00000000000E+00  0.00000000000E+00  0.14104417347E+03  0.14104417347E+03  0.00000000000E+00 0. -1.
         21   -1    0    0  501  503 -0.00000000000E+00 -0.00000000000E+00 -0.16017502563E+04  0.16017502563E+04  0.00000000000E+00 0. -1.
    9000005    1    1    2  501    0  0.58511422473E+02  0.55916625645E+02 -0.11770518426E+04  0.12457934403E+04  0.40000000000E+03 0. -1.
   -9000005    1    1    2    0  502 -0.58511422473E+02 -0.55916625645E+02 -0.28365424019E+03  0.49700098950E+03  0.40000000000E+03 0. -1.
<mgrwt>
<rscale>  2 0.40810569E+03</rscale>
<asrwt>0</asrwt>
<pdfrwt beam="1">  1       21 0.21699102E-01 0.40810569E+03</pdfrwt>
<pdfrwt beam="2">  1       21 0.24642314E+00 0.40810569E+03</pdfrwt>
<totfact> 0.11645845E+03</totfact>
</mgrwt>
</event>
<event>
 4    1  0.4991790E-002  0.5880829E+03  0.7818608E-02  0.9930443E-01
         21   -1    0    0  503  502  0.00000000000E+00  0.00000000000E+00  0.17937632863E+03  0.17937632863E+03  0.00000000000E+00 0. -1.
         21   -1    0    0  501  503 -0.00000000000E+00 -0.00000000000E+00 -0.21549566032E+04  0.21549566032E+04  0.00000000000E+00 0.  1.
    9000005    1    1    2  501    0  0.36701018271E+03  0.22615271220E+03 -0.13665498820E+04  0.14877164056E+04  0.40000000000E+03 0.  1.
   -9000005    1    1    2    0  502 -0.36701018271E+03 -0.22615271220E+03 -0.60903039256E+03  0.84661652624E+03  0.40000000000E+03 0.  1.
<mgrwt>
<rscale>  2 0.58808292E+03</rscale>
<asrwt>0</asrwt>
<pdfrwt beam="1">  1       21 0.27596358E-01 0.58808292E+03</pdfrwt>
<pdfrwt beam="2">  1       21 0.33153178E+00 0.58808292E+03</pdfrwt>
<totfact> 0.20259612E+02</totfact>
</mgrwt>
</event>
<event>
 4    1  0.4991790E-002  0.4036559E+03  0.7818608E-02  0.1042521E+00
         21   -1    0    0  503  502  0.00000000000E+00  0.00000000000E+00  0.68004147926E+03  0.68004147926E+03  0.00000000000E+00 0.  1.
         21   -1    0    0  501  503 -0.00000000000E+00 -0.00000000000E+00 -0.31661073409E+03  0.31661073409E+03  0.00000000000E+00 0. -1.
    9000005    1    1    2  501    0 -0.35721727692E+02 -0.40767824694E+02 -0.64052981530E+02  0.40870630262E+03  0.40000000000E+03 0. -1.
   -9000005    1    1    2    0  502  0.35721727692E+02  0.40767824694E+02  0.42748372670E+03  0.58794591074E+03  0.40000000000E+03 0.  1.
<mgrwt>
<rscale>  2 0.40365587E+03</rscale>
<asrwt>0</asrwt>
<pdfrwt beam="1">  1       21 0.10462177E+00 0.40365587E+03</pdfrwt>
<pdfrwt beam="2">  1       21 0.48709344E-01 0.40365587E+03</pdfrwt>
<totfact> 0.26155121E+03</totfact>
</mgrwt>
</event>
<event>
 4    1  0.4991790E-002  0.4314535E+03  0.7818608E-02  0.1033402E+00
         21   -1    0    0  503  502  0.00000000000E+00  0.00000000000E+00  0.40536180119E+03  0.40536180119E+03  0.00000000000E+00 0. -1.
         21   -1    0    0  501  503 -0.00000000000E+00 -0.00000000000E+00 -0.68220022684E+03  0.68220022684E+03  0.00000000000E+00 0. -1.
    9000005    1    1    2  501    0 -0.70677375626E+02  0.14545397229E+03 -0.44930202715E+03  0.62291609474E+03  0.40000000000E+03 0. -1.
   -9000005    1    1    2    0  502  0.70677375626E+02 -0.14545397229E+03  0.17246360150E+03  0.46464593329E+03  0.40000000000E+03 0. -1.
<mgrwt>
<rscale>  2 0.43145353E+03</rscale>
<asrwt>0</asrwt>
<pdfrwt beam="1">  1       21 0.62363354E-01 0.43145353E+03</pdfrwt>
<pdfrwt beam="2">  1       21 0.10495388E+00 0.43145353E+03</pdfrwt>
<totfact> 0.15056299E+03</totfact>
</mgrwt>
</event>
<event>
 4    1  0.4991790E-002  0.4005323E+03  0.7818608E-02  0.1043596E+00
         21   -1    0    0  501  502  0.00000000000E+00  0.00000000000E+00  0.18539936966E+04  0.18539936966E+04  0.00000000000E+00 0. -1.
         21   -1    0    0  502  503 -0.00000000000E+00 -0.00000000000E+00 -0.43459008598E+03  0.43459008598E+03  0.00000000000E+00 0. -1.
    9000005    1    1    2  501    0  0.17953240251E+02  0.10190132840E+02  0.17337584895E+04  0.17794225630E+04  0.40000000000E+03 0. -1.
   -9000005    1    1    2    0  503 -0.17953240251E+02 -0.10190132840E+02 -0.31435487891E+03  0.50916121959E+03  0.40000000000E+03 0. -1.
<mgrwt>
<rscale>  2 0.40053234E+03</rscale>
<asrwt>0</asrwt>
<pdfrwt beam="1">  1       21 0.28522980E+00 0.40053234E+03</pdfrwt>
<pdfrwt beam="2">  1       21 0.66860014E-01 0.40053234E+03</pdfrwt>
<totfact> 0.67795677E+01</totfact>
</mgrwt>
</event>
<event>
 4    1  0.4991790E-002  0.5831188E+03  0.7818608E-02  0.9941062E-01
         21   -1    0    0  501  502  0.00000000000E+00  0.00000000000E+00  0.19322001364E+03  0.19322001364E+03  0.00000000000E+00 0. -1.
         21   -1    0    0  502  503 -0.00000000000E+00 -0.00000000000E+00 -0.21097673094E+04  0.21097673094E+04  0.00000000000E+00 0. -1.
    9000005    1    1    2  501    0  0.41354600693E+03  0.94906257423E+02 -0.48928591020E+03  0.76120181257E+03  0.40000000000E+03 0. -1.
   -9000005    1    1    2    0  503 -0.41354600693E+03 -0.94906257423E+02 -0.14272613855E+04  0.15417855104E+04  0.40000000000E+03 0. -1.
<mgrwt>
<rscale>  2 0.58311877E+03</rscale>
<asrwt>0</asrwt>
<pdfrwt beam="1">  1       21 0.29726158E-01 0.58311877E+03</pdfrwt>
<pdfrwt beam="2">  1       21 0.32457957E+00 0.58311877E+03</pdfrwt>
<totfact> 0.19323708E+02</totfact>
</mgrwt>
</event>
<event>
 4    1  0.4991790E-002  0.5342754E+03  0.7818608E-02  0.1005201E+00
         21   -1    0    0  501  502  0.00000000000E+00  0.00000000000E+00  0.19041558575E+03  0.19041558575E+03  0.00000000000E+00 0. -1.
         21   -1    0    0  502  503 -0.00000000000E+00 -0.00000000000E+00 -0.15995518393E+04  0.15995518393E+04  0.00000000000E+00 0.  1.
    9000005    1    1    2  501    0 -0.31994907718E+03  0.15193007625E+03 -0.48027505543E+03  0.71841094710E+03  0.40000000000E+03 0. -1.
   -9000005    1    1    2    0  503  0.31994907718E+03 -0.15193007625E+03 -0.92886119811E+03  0.10715564779E+04  0.40000000000E+03 0.  1.
<mgrwt>
<rscale>  2 0.53427536E+03</rscale>
<asrwt>0</asrwt>
<pdfrwt beam="1">  1       21 0.29294707E-01 0.53427536E+03</pdfrwt>
<pdfrwt beam="2">  1       21 0.24608489E+00 0.53427536E+03</pdfrwt>
<totfact> 0.61348976E+02</totfact>
</mgrwt>
</event>
<event>
 4    1  0.4991790E-002  0.4715115E+03  0.7818608E-02  0.1021494E+00
         21   -1    0    0  503  502  0.00000000000E+00  0.00000000000E+00  0.47239979276E+03  0.47239979276E+03  0.00000000000E+00 0.  1.
         21   -1    0    0  501  503 -0.00000000000E+00 -0.00000000000E+00 -0.87112738535E+03  0.87112738535E+03  0.00000000000E+00 0.  1.
    9000005    1    1    2  501    0  0.18221850156E+03  0.17064438309E+03 -0.65485317555E+03  0.80694223419E+03  0.40000000000E+03 0.  1.
   -9000005    1    1    2    0  502 -0.18221850156E+03 -0.17064438309E+03  0.25612558297E+03  0.53658494392E+03  0.40000000000E+03 0.  1.
<mgrwt>
<rscale>  2 0.47151149E+03</rscale>
<asrwt>0</asrwt>
<pdfrwt beam="1">  1       21 0.72676891E-01 0.47151149E+03</pdfrwt>
<pdfrwt beam="2">  1       21 0.13401960E+00 0.47151149E+03</pdfrwt>
<totfact> 0.56604359E+02</totfact>
</mgrwt>
</event>
<event>
 4    1  0.4991790E-002  0.4818977E+03  0.7818608E-02  0.1018615E+00
         21   -1    0    0  503  502  0.00000000000E+00  0.00000000000E+00  0.17253632459E+03  0.17253632459E+03  0.00000000000E+00 0.  1.
         21   -1    0    0  501  503 -0.00000000000E+00 -0.00000000000E+00 -0.13735793895E+04  0.13735793895E+04  0.00000000000E+00 0.  1.
    9000005    1    1    2  501    0 -0.16017037238E+03  0.21580282107E+03 -0.71016036352E+03  0.85822674608E+03  0.40000000000E+03 0.  1.
   -9000005    1    1    2    0  502  0.16017037238E+03 -0.21580282107E+03 -0.49088270137E+03  0.68788896799E+03  0.40000000000E+03 0.  1.
<mgrwt>
<rscale>  2 0.48189771E+03</rscale>
<asrwt>0</asrwt>
<pdfrwt beam="1">  1       21 0.26544049E-01 0.48189771E+03</pdfrwt>
<pdfrwt beam="2">  1       21 0.21131991E+00 0.48189771E+03</pdfrwt>
<totfact> 0.12668982E+03</totfact>
</mgrwt>
</event>
<event>
 4    1  0.4991790E-002  0.4008160E+03  0.7818608E-02  0.1043497E+00
         21   -1    0    0  503  502  0.00000000000E+00  0.00000000000E+00  0.11389920012E+03  0.11389920012E+03  0.00000000000E+00 0. -1.
         21   -1    0    0  501  503 -0.00000000000E+00 -0.00000000000E+00 -0.14607034371E+04  0.14607034371E+04  0.00000000000E+00 0. -1.
    9000005    1    1    2  501    0 -0.24416538589E+02  0.75696349293E+01 -0.81937699972E+03  0.91215795474E+03  0.40000000000E+03 0. -1.
   -9000005    1    1    2    0  502  0.24416538589E+02 -0.75696349293E+01 -0.52742723725E+03  0.66244468246E+03  0.40000000000E+03 0. -1.
<mgrwt>
<rscale>  2 0.40081600E+03</rscale>
<asrwt>0</asrwt>
<pdfrwt beam="1">  1       21 0.17522954E-01 0.40081600E+03</pdfrwt>
<pdfrwt beam="2">  1       21 0.22472360E+00 0.40081600E+03</pdfrwt>
<totfact> 0.23912193E+03</totfact>
</mgrwt>
</event>
<event>
 4    1  0.4991790E-002  0.7589307E+03  0.7818608E-02  0.9621443E-01
         21   -1    0    0  503  502  0.00000000000E+00  0.00000000000E+00  0.29677542605E+03  0.29677542605E+03  0.00000000000E+00 0.  1.
         21   -1    0    0  501  503 -0.00000000000E+00 -0.00000000000E+00 -0.24132471908E+04  0.24132471908E+04  0.00000000000E+00 0.  1.
    9000005    1    1    2  501    0 -0.61616136043E+03 -0.19058076289E+03 -0.16577891636E+04  0.18232500542E+04  0.40000000000E+03 0.  1.
   -9000005    1    1    2    0  502  0.61616136043E+03  0.19058076289E+03 -0.45868260118E+03  0.88677256266E+03  0.40000000000E+03 0.  1.
<mgrwt>
<rscale>  2 0.75893073E+03</rscale>
<asrwt>0</asrwt>
<pdfrwt beam="1">  1       21 0.45657759E-01 0.75893073E+03</pdfrwt>
<pdfrwt beam="2">  1       21 0.37126879E+00 0.75893073E+03</pdfrwt>
<totfact> 0.37923990E+01</totfact>
</mgrwt>
</event>
<event>
 4    1  0.4991790E-002  0.6561336E+03  0.7818608E-02  0.9795337E-01
         21   -1    0    0  503  502  0.00000000000E+00  0.00000000000E+00  0.99946278611E+03  0.99946278611E+03  0.00000000000E+00 0.  1.
         21   -1    0    0  501  503 -0.00000000000E+00 -0.00000000000E+00 -0.43077614228E+03  0.43077614228E+03  0.00000000000E+00 0. -1.
    9000005    1    1    2  501    0 -0.35880085228E+03 -0.37652796160E+03  0.29063868647E+03  0.71762260522E+03  0.40000000000E+03 0. -1.
   -9000005    1    1    2    0  502  0.35880085228E+03  0.37652796160E+03  0.27804795736E+03  0.71261632317E+03  0.40000000000E+03 0.  1.
<mgrwt>
<rscale>  2 0.65613364E+03</rscale>
<asrwt>0</asrwt>
<pdfrwt beam="1">  1       21 0.15376350E+00 0.65613364E+03</pdfrwt>
<pdfrwt beam="2">  1       21 0.66273253E-01 0.65613364E+03</pdfrwt>
<totfact> 0.44999660E+02</totfact>
</mgrwt>
</event>
<event>
 4    1  0.4991790E-002  0.7845525E+03  0.7818608E-02  0.9582650E-01
         21   -1    0    0  503  502  0.00000000000E+00  0.00000000000E+00  0.77927418657E+03  0.77927418657E+03  0.00000000000E+00 0.  1.
         21   -1    0    0  501  503 -0.00000000000E+00 -0.00000000000E+00 -0.80856346598E+03  0.80856346598E+03  0.00000000000E+00 0. -1.
    9000005    1    1    2  501    0  0.18776400296E+03 -0.64828032301E+03 -0.13537118369E+03  0.79614575009E+03  0.40000000000E+03 0. -1.
   -9000005    1    1    2    0  502 -0.18776400296E+03  0.64828032301E+03  0.10608190428E+03  0.79169190246E+03  0.40000000000E+03 0.  1.
<mgrwt>
<rscale>  2 0.78455255E+03</rscale>
<asrwt>0</asrwt>
<pdfrwt beam="1">  1       21 0.11988834E+00 0.78455255E+03</pdfrwt>
<pdfrwt beam="2">  1       21 0.12439438E+00 0.78455255E+03</pdfrwt>
<totfact> 0.18484421E+02</totfact>
</mgrwt>
</event>
<event>
 4    1  0.4991790E-002  0.4033462E+03  0.7818608E-02  0.1042627E+00
         21   -1    0    0  501  502  0.00000000000E+00  0.00000000000E+00  0.44366755241E+03  0.44366755241E+03  0.00000000000E+00 0. -1.
         21   -1    0    0  502  503 -0.00000000000E+00 -0.00000000000E+00 -0.42601782288E+03  0.42601782288E+03  0.00000000000E+00 0. -1.
    9000005    1    1    2  501    0  0.44487922280E+02  0.26626271103E+02 -0.15344958417E+03  0.43154942756E+03  0.40000000000E+03 0. -1.
   -9000005    1    1    2    0  503 -0.44487922280E+02 -0.26626271103E+02  0.17109931371E+03  0.43813594773E+03  0.40000000000E+03 0. -1.
<mgrwt>
<rscale>  2 0.40334617E+03</rscale>
<asrwt>0</asrwt>
<pdfrwt beam="1">  1       21 0.68256546E-01 0.40334617E+03</pdfrwt>
<pdfrwt beam="2">  1       21 0.65541204E-01 0.40334617E+03</pdfrwt>
<totfact> 0.37289583E+03</totfact>
</mgrwt>
</event>
<event>
 4    1  0.4991790E-002  0.4244224E+03  0.7818608E-02  0.1035637E+00
         21   -1    0    0  503  502  0.00000000000E+00  0.00000000000E+00  0.57831536124E+03  0.57831536124E+03  0.00000000000E+00 0.  1.
         21   -1    0    0  501  503 -0.00000000000E+00 -0.00000000000E+00 -0.33990914751E+03  0.33990914751E+03  0.00000000000E+00 0.  1.
    9000005    1    1    2  501    0  0.13864540081E+03 -0.30196050011E+02 -0.13570085474E+02  0.42463925375E+03  0.40000000000E+03 0.  1.
   -9000005    1    1    2    0  502 -0.13864540081E+03  0.30196050011E+02  0.25197629920E+03  0.49358525501E+03  0.40000000000E+03 0.  1.
<mgrwt>
<rscale>  2 0.42442237E+03</rscale>
<asrwt>0</asrwt>
<pdfrwt beam="1">  1       21 0.88971594E-01 0.42442237E+03</pdfrwt>
<pdfrwt beam="2">  1       21 0.52293715E-01 0.42442237E+03</pdfrwt>
<totfact> 0.32930054E+03</totfact>
</mgrwt>
</event>
<event>
 4    1  0.4991790E-002  0.4658362E+03  0.7818608E-02  0.1023102E+00
         21   -1    0    0  503  502  0.00000000000E+00  0.00000000000E+00  0.39393036551E+03  0.39393036551E+03  0.00000000000E+00 0.  1.
         21   -1    0    0  501  503 -0.00000000000E+00 -0.00000000000E+00 -0.69879441606E+03  0.69879441606E+03  0.00000000000E+00 0. -1.
    9000005    1    1    2  501    0 -0.22522208214E+03  0.79236473463E+02 -0.40381149136E+03  0.61649584392E+03  0.40000000000E+03 0. -1.
   -9000005    1    1    2    0  502  0.22522208214E+03 -0.79236473463E+02  0.98947440814E+02  0.47622893765E+03  0.40000000000E+03 0.  1.
<mgrwt>
<rscale>  2 0.46583624E+03</rscale>
<asrwt>0</asrwt>
<pdfrwt beam="1">  1       21 0.60604672E-01 0.46583624E+03</pdfrwt>
<pdfrwt beam="2">  1       21 0.10750683E+00 0.46583624E+03</pdfrwt>
<totfact> 0.14908023E+03</totfact>
</mgrwt>
</event>
<event>
 4    1  0.4991790E-002  0.4939010E+03  0.7818608E-02  0.1015383E+00
         21   -1    0    0  503  502  0.00000000000E+00  0.00000000000E+00  0.43009301105E+03  0.43009301105E+03  0.00000000000E+00 0.  1.
         21   -1    0    0  501  503 -0.00000000000E+00 -0.00000000000E+00 -0.82104907765E+03  0.82104907765E+03  0.00000000000E+00 0.  1.
    9000005    1    1    2  501    0  0.16005778379E+02  0.28927851859E+03  0.15237898997E+03  0.51687290783E+03  0.40000000000E+03 0.  1.
   -9000005    1    1    2    0  502 -0.16005778379E+02 -0.28927851859E+03 -0.54333505658E+03  0.73426918086E+03  0.40000000000E+03 0.  1.
<mgrwt>
<rscale>  2 0.49390105E+03</rscale>
<asrwt>0</asrwt>
<pdfrwt beam="1">  1       21 0.66168156E-01 0.49390105E+03</pdfrwt>
<pdfrwt beam="2">  1       21 0.12631524E+00 0.49390105E+03</pdfrwt>
<totfact> 0.80808295E+02</totfact>
</mgrwt>
</event>
<event>
 4    1  0.4991790E-002  0.4509016E+03  0.7818608E-02  0.1027454E+00
         21   -1    0    0  503  502  0.00000000000E+00  0.00000000000E+00  0.90538228572E+03  0.90538228572E+03  0.00000000000E+00 0.  1.
         21   -1    0    0  501  503 -0.00000000000E+00 -0.00000000000E+00 -0.26153577013E+03  0.26153577013E+03  0.00000000000E+00 0. -1.
    9000005    1    1    2  501    0  0.22896959720E+02 -0.20685252634E+03  0.54130782563E+03  0.70450436514E+03  0.40000000000E+03 0.  1.
   -9000005    1    1    2    0  502 -0.22896959720E+02  0.20685252634E+03  0.10253868996E+03  0.46241369071E+03  0.40000000000E+03 0. -1.
<mgrwt>
<rscale>  2 0.45090158E+03</rscale>
<asrwt>0</asrwt>
<pdfrwt beam="1">  1       21 0.13928958E+00 0.45090158E+03</pdfrwt>
<pdfrwt beam="2">  1       21 0.40236273E-01 0.45090158E+03</pdfrwt>
<totfact> 0.18480337E+03</totfact>
</mgrwt>
</event>
<event>
 4    1  0.4991790E-002  0.4245428E+03  0.7818608E-02  0.1035598E+00
         21   -1    0    0  503  502  0.00000000000E+00  0.00000000000E+00  0.57741387491E+03  0.57741387491E+03  0.00000000000E+00 0. -1.
         21   -1    0    0  501  503 -0.00000000000E+00 -0.00000000000E+00 -0.40745263920E+03  0.40745263920E+03  0.00000000000E+00 0. -1.
    9000005    1    1    2  501    0 -0.14206214552E+03  0.74137147273E+01 -0.15318200358E+03  0.45133285121E+03  0.40000000000E+03 0. -1.
   -9000005    1    1    2    0  502  0.14206214552E+03 -0.74137147273E+01  0.32314323930E+03  0.53353366291E+03  0.40000000000E+03 0. -1.
<mgrwt>
<rscale>  2 0.42454283E+03</rscale>
<asrwt>0</asrwt>
<pdfrwt beam="1">  1       21 0.88832904E-01 0.42454283E+03</pdfrwt>
<pdfrwt beam="2">  1       21 0.62685021E-01 0.42454283E+03</pdfrwt>
<totfact> 0.22297283E+03</totfact>
</mgrwt>
</event>
<event>
 4    1  0.4991790E-002  0.4760500E+03  0.7818608E-02  0.1020226E+00
         21   -1    0    0  501  502  0.00000000000E+00  0.00000000000E+00  0.90128198904E+03  0.90128198904E+03  0.00000000000E+00 0. -1.
         21   -1    0    0  502  503 -0.00000000000E+00 -0.00000000000E+00 -0.25637926028E+03  0.25637926028E+03  0.00000000000E+00 0.  1.
    9000005    1    1    2  501    0  0.25302366655E+03  0.51016016439E+02  0.40274552614E+03  0.62356039691E+03  0.40000000000E+03 0. -1.
   -9000005    1    1    2    0  503 -0.25302366655E+03 -0.51016016439E+02  0.24215720262E+03  0.53410085241E+03  0.40000000000E+03 0.  1.
<mgrwt>
<rscale>  2 0.47605001E+03</rscale>
<asrwt>0</asrwt>
<pdfrwt beam="1">  1       21 0.13865877E+00 0.47605001E+03</pdfrwt>
<pdfrwt beam="2">  1       21 0.39442964E-01 0.47605001E+03</pdfrwt>
<totfact> 0.19301358E+03</totfact>
</mgrwt>
</event>
<event>
 4    1  0.4991790E-002  0.9404567E+03  0.7818608E-02  0.9376375E-01
         21   -1    0    0  503  502  0.00000000000E+00  0.00000000000E+00  0.60960734768E+03  0.60960734768E+03  0.00000000000E+00 0.  1.
         21   -1    0    0  501  503 -0.00000000000E+00 -0.00000000000E+00 -0.19842472320E+04  0.19842472320E+04  0.00000000000E+00 0. -1.
    9000005    1    1    2  501    0 -0.72315694764E+03 -0.44889069013E+03 -0.13597334610E+04  0.16532797427E+04  0.40000000000E+03 0. -1.
   -9000005    1    1    2    0  502  0.72315694764E+03  0.44889069013E+03 -0.14906423358E+02  0.94057483704E+03  0.40000000000E+03 0.  1.
<mgrwt>
<rscale>  2 0.94045671E+03</rscale>
<asrwt>0</asrwt>
<pdfrwt beam="1">  1       21 0.93785747E-01 0.94045671E+03</pdfrwt>
<pdfrwt beam="2">  1       21 0.30526880E+00 0.94045671E+03</pdfrwt>
<totfact> 0.18027261E+01</totfact>
</mgrwt>
</event>
<event>
 4    1  0.4991790E-002  0.4496980E+03  0.7818608E-02  0.1027812E+00
         21   -1    0    0  501  502  0.00000000000E+00  0.00000000000E+00  0.15871311920E+04  0.15871311920E+04  0.00000000000E+00 0.  1.
         21   -1    0    0  502  503 -0.00000000000E+00 -0.00000000000E+00 -0.15183536885E+03  0.15183536885E+03  0.00000000000E+00 0.  1.
    9000005    1    1    2  501    0 -0.13262755721E+03  0.15696564687E+03  0.10663292221E+04  0.11572753748E+04  0.40000000000E+03 0.  1.
   -9000005    1    1    2    0  503  0.13262755721E+03 -0.15696564687E+03  0.36896660103E+03  0.58169118603E+03  0.40000000000E+03 0.  1.
<mgrwt>
<rscale>  2 0.44969799E+03</rscale>
<asrwt>0</asrwt>
<pdfrwt beam="1">  1       21 0.24417402E+00 0.44969799E+03</pdfrwt>
<pdfrwt beam="2">  1       21 0.23359289E-01 0.44969799E+03</pdfrwt>
<totfact> 0.10213530E+03</totfact>
</mgrwt>
</event>
<event>
 4    1  0.4991790E-002  0.4676010E+03  0.7818608E-02  0.1022600E+00
         21   -1    0    0  501  502  0.00000000000E+00  0.00000000000E+00  0.70514994216E+03  0.70514994216E+03  0.00000000000E+00 0. -1.
         21   -1    0    0  502  503 -0.00000000000E+00 -0.00000000000E+00 -0.36900088078E+03  0.36900088078E+03  0.00000000000E+00 0.  1.
    9000005    1    1    2  501    0  0.45708373042E+01 -0.24213583720E+03  0.38269338850E+03  0.60423909656E+03  0.40000000000E+03 0. -1.
   -9000005    1    1    2    0  503 -0.45708373042E+01  0.24213583720E+03 -0.46544327110E+02  0.46991172639E+03  0.40000000000E+03 0.  1.
<mgrwt>
<rscale>  2 0.46760096E+03</rscale>
<asrwt>0</asrwt>
<pdfrwt beam="1">  1       21 0.10848461E+00 0.46760096E+03</pdfrwt>
<pdfrwt beam="2">  1       21 0.56769366E-01 0.46760096E+03</pdfrwt>
<totfact> 0.16804824E+03</totfact>
</mgrwt>
</event>
<event>
 4    1  0.4991790E-002  0.4932365E+03  0.7818608E-02  0.1015560E+00
         21   -1    0    0  501  502  0.00000000000E+00  0.00000000000E+00  0.14865363617E+03  0.14865363617E+03  0.00000000000E+00 0. -1.
         21   -1    0    0  502  503 -0.00000000000E+00 -0.00000000000E+00 -0.16404373524E+04  0.16404373524E+04  0.00000000000E+00 0. -1.
    9000005    1    1    2  501    0 -0.28850574677E+03  0.68344368055E+01 -0.78931849098E+03  0.93075558320E+03  0.40000000000E+03 0. -1.
   -9000005    1    1    2    0  503  0.28850574677E+03 -0.68344368055E+01 -0.70246522529E+03  0.85833540542E+03  0.40000000000E+03 0. -1.
<mgrwt>
<rscale>  2 0.49323653E+03</rscale>
<asrwt>0</asrwt>
<pdfrwt beam="1">  1       21 0.22869792E-01 0.49323653E+03</pdfrwt>
<pdfrwt beam="2">  1       21 0.25237496E+00 0.49323653E+03</pdfrwt>
<totfact> 0.92750991E+02</totfact>
</mgrwt>
</event>
<event>
 4    1  0.4991790E-002  0.4139946E+03  0.7818608E-02  0.1039039E+00
         21   -1    0    0  503  502  0.00000000000E+00  0.00000000000E+00  0.91054132438E+03  0.91054132438E+03  0.00000000000E+00 0. -1.
         21   -1    0    0  501  503 -0.00000000000E+00 -0.00000000000E+00 -0.18857342197E+03  0.18857342197E+03  0.00000000000E+00 0. -1.
    9000005    1    1    2  501    0  0.10668380851E+03 -0.31805673465E+01  0.33754498657E+03  0.53416118257E+03  0.40000000000E+03 0. -1.
   -9000005    1    1    2    0  502 -0.10668380851E+03  0.31805673465E+01  0.38442291585E+03  0.56495356378E+03  0.40000000000E+03 0. -1.
<mgrwt>
<rscale>  2 0.41399463E+03</rscale>
<asrwt>0</asrwt>
<pdfrwt beam="1">  1       21 0.14008328E+00 0.41399463E+03</pdfrwt>
<pdfrwt beam="2">  1       21 0.29011296E-01 0.41399463E+03</pdfrwt>
<totfact> 0.35724383E+03</totfact>
</mgrwt>
</event>
<event>
 4    1  0.4991790E-002  0.4684316E+03  0.7818608E-02  0.1022364E+00
         21   -1    0    0  501  502  0.00000000000E+00  0.00000000000E+00  0.77798327462E+03  0.77798327462E+03  0.00000000000E+00 0.  1.
         21   -1    0    0  502  503 -0.00000000000E+00 -0.00000000000E+00 -0.35776405005E+03  0.35776405005E+03  0.00000000000E+00 0.  1.
    9000005    1    1    2  501    0 -0.11569558397E+03  0.21457559786E+03  0.47135527556E+03  0.66453288192E+03  0.40000000000E+03 0.  1.
   -9000005    1    1    2    0  503  0.11569558397E+03 -0.21457559786E+03 -0.51136050999E+02  0.47121444275E+03  0.40000000000E+03 0.  1.
<mgrwt>
<rscale>  2 0.46843159E+03</rscale>
<asrwt>0</asrwt>
<pdfrwt beam="1">  1       21 0.11968973E+00 0.46843159E+03</pdfrwt>
<pdfrwt beam="2">  1       21 0.55040623E-01 0.46843159E+03</pdfrwt>
<totfact> 0.14045915E+03</totfact>
</mgrwt>
</event>
<event>
 4    1  0.4991790E-002  0.5527558E+03  0.7818608E-02  0.1000858E+00
         21   -1    0    0  501  502  0.00000000000E+00  0.00000000000E+00  0.53575456017E+03  0.53575456017E+03  0.00000000000E+00 0. -1.
         21   -1    0    0  502  503 -0.00000000000E+00 -0.00000000000E+00 -0.99741620317E+03  0.99741620317E+03  0.00000000000E+00 0.  1.
    9000005    1    1    2  501    0  0.38042645683E+03  0.28543037394E+02  0.27081486868E+03  0.61553203583E+03  0.40000000000E+03 0. -1.
   -9000005    1    1    2    0  503 -0.38042645683E+03 -0.28543037394E+02 -0.73247651169E+03  0.91763872750E+03  0.40000000000E+03 0.  1.
<mgrwt>
<rscale>  2 0.55275582E+03</rscale>
<asrwt>0</asrwt>
<pdfrwt beam="1">  1       21 0.82423778E-01 0.55275582E+03</pdfrwt>
<pdfrwt beam="2">  1       21 0.15344865E+00 0.55275582E+03</pdfrwt>
<totfact> 0.28471643E+02</totfact>
</mgrwt>
</event>
<event>
 4    1  0.4991790E-002  0.4058698E+03  0.7818608E-02  0.1041766E+00
         21   -1    0    0  503  502  0.00000000000E+00  0.00000000000E+00  0.28556181142E+03  0.28556181142E+03  0.00000000000E+00 0. -1.
         21   -1    0    0  501  503 -0.00000000000E+00 -0.00000000000E+00 -0.58314472106E+03  0.58314472106E+03  0.00000000000E+00 0. -1.
    9000005    1    1    2  501    0  0.67452720921E+02  0.13430821010E+02 -0.19386984723E+03  0.44979525806E+03  0.40000000000E+03 0. -1.
   -9000005    1    1    2    0  502 -0.67452720921E+02 -0.13430821010E+02 -0.10371306241E+03  0.41891127441E+03  0.40000000000E+03 0. -1.
<mgrwt>
<rscale>  2 0.40586975E+03</rscale>
<asrwt>0</asrwt>
<pdfrwt beam="1">  1       21 0.43932586E-01 0.40586975E+03</pdfrwt>
<pdfrwt beam="2">  1       21 0.89714573E-01 0.40586975E+03</pdfrwt>
<totfact> 0.46962093E+03</totfact>
</mgrwt>
</event>
<event>
 4    1  0.4991790E-002  0.4270875E+03  0.7818608E-02  0.1034784E+00
         21   -1    0    0  501  502  0.00000000000E+00  0.00000000000E+00  0.40385769395E+03  0.40385769395E+03  0.00000000000E+00 0. -1.
         21   -1    0    0  502  503 -0.00000000000E+00 -0.00000000000E+00 -0.45194893435E+03  0.45194893435E+03  0.00000000000E+00 0. -1.
    9000005    1    1    2  501    0 -0.14768512199E+03 -0.24347876328E+02 -0.13104042868E+02  0.42728846261E+03  0.40000000000E+03 0.  1.
   -9000005    1    1    2    0  503  0.14768512199E+03  0.24347876328E+02 -0.34987197534E+02  0.42851816569E+03  0.40000000000E+03 0.  1.
<mgrwt>
<rscale>  2 0.42708748E+03</rscale>
<asrwt>0</asrwt>
<pdfrwt beam="1">  1       21 0.62131953E-01 0.42708748E+03</pdfrwt>
<pdfrwt beam="2">  1       21 0.69530605E-01 0.42708748E+03</pdfrwt>
<totfact> 0.39908274E+03</totfact>
</mgrwt>
</event>
<event>
 4    1  0.4991790E-002  0.4414730E+03  0.7818608E-02  0.1030296E+00
         21   -1    0    0  503  502  0.00000000000E+00  0.00000000000E+00  0.50565887236E+02  0.50565887236E+02  0.00000000000E+00 0.  1.
         21   -1    0    0  501  503 -0.00000000000E+00 -0.00000000000E+00 -0.41409209043E+04  0.41409209043E+04  0.00000000000E+00 0.  1.
    9000005    1    1    2  501    0  0.17291563122E+03 -0.70700936298E+02 -0.25965035750E+04  0.26337671220E+04  0.40000000000E+03 0.  1.
   -9000005    1    1    2    0  502 -0.17291563122E+03  0.70700936298E+02 -0.14938514420E+04  0.15577196695E+04  0.40000000000E+03 0.  1.
<mgrwt>
<rscale>  2 0.44147303E+03</rscale>
<asrwt>0</asrwt>
<pdfrwt beam="1">  1       21 0.77793632E-02 0.44147303E+03</pdfrwt>
<pdfrwt beam="2">  1       21 0.63706508E+00 0.44147303E+03</pdfrwt>
<totfact> 0.16327611E+01</totfact>
</mgrwt>
</event>
<event>
 4    1  0.4991790E-002  0.5979857E+03  0.7818608E-02  0.9909594E-01
         21   -1    0    0  501  502  0.00000000000E+00  0.00000000000E+00  0.52436304830E+03  0.52436304830E+03  0.00000000000E+00 0.  1.
         21   -1    0    0  502  503 -0.00000000000E+00 -0.00000000000E+00 -0.14689334845E+04  0.14689334845E+04  0.00000000000E+00 0. -1.
    9000005    1    1    2  501    0  0.14796029998E+03  0.41915950639E+03  0.25721418811E+03  0.65095781794E+03  0.40000000000E+03 0.  1.
   -9000005    1    1    2    0  503 -0.14796029998E+03 -0.41915950639E+03 -0.12017846243E+04  0.13423387149E+04  0.40000000000E+03 0. -1.
<mgrwt>
<rscale>  2 0.59798574E+03</rscale>
<asrwt>0</asrwt>
<pdfrwt beam="1">  1       21 0.80671239E-01 0.59798574E+03</pdfrwt>
<pdfrwt beam="2">  1       21 0.22598976E+00 0.59798574E+03</pdfrwt>
<totfact> 0.91540445E+01</totfact>
</mgrwt>
</event>
<event>
 4    1  0.4991790E-002  0.4418982E+03  0.7818608E-02  0.1030166E+00
         21   -1    0    0  503  502  0.00000000000E+00  0.00000000000E+00  0.33837811192E+03  0.33837811192E+03  0.00000000000E+00 0.  1.
         21   -1    0    0  501  503 -0.00000000000E+00 -0.00000000000E+00 -0.67599066696E+03  0.67599066696E+03  0.00000000000E+00 0.  1.
    9000005    1    1    2  501    0 -0.18587333523E+03  0.26928769940E+02 -0.36280498282E+03  0.57175301570E+03  0.40000000000E+03 0.  1.
   -9000005    1    1    2    0  502  0.18587333523E+03 -0.26928769940E+02  0.25192427781E+02  0.44261576318E+03  0.40000000000E+03 0.  1.
<mgrwt>
<rscale>  2 0.44189824E+03</rscale>
<asrwt>0</asrwt>
<pdfrwt beam="1">  1       21 0.52058172E-01 0.44189824E+03</pdfrwt>
<pdfrwt beam="2">  1       21 0.10399856E+00 0.44189824E+03</pdfrwt>
<totfact> 0.22697611E+03</totfact>
</mgrwt>
</event>
<event>
 4    1  0.4991790E-002  0.4317764E+03  0.7818608E-02  0.1033300E+00
         21   -1    0    0  501  502  0.00000000000E+00  0.00000000000E+00  0.16943752347E+03  0.16943752347E+03  0.00000000000E+00 0.  1.
         21   -1    0    0  502  503 -0.00000000000E+00 -0.00000000000E+00 -0.16322557831E+04  0.16322557831E+04  0.00000000000E+00 0. -1.
    9000005    1    1    2  501    0  0.16257572722E+03 -0.64525140858E-03 -0.21713163923E+03  0.48329806107E+03  0.40000000000E+03 0.  1.
   -9000005    1    1    2    0  503 -0.16257572722E+03  0.64525140858E-03 -0.12456866204E+04  0.13183952455E+04  0.40000000000E+03 0. -1.
<mgrwt>
<rscale>  2 0.43177641E+03</rscale>
<asrwt>0</asrwt>
<pdfrwt beam="1">  1       21 0.26067312E-01 0.43177641E+03</pdfrwt>
<pdfrwt beam="2">  1       21 0.25111627E+00 0.43177641E+03</pdfrwt>
<totfact> 0.75496413E+02</totfact>
</mgrwt>
</event>
<event>
 4    1  0.4991790E-002  0.4166721E+03  0.7818608E-02  0.1038155E+00
         21   -1    0    0  503  502  0.00000000000E+00  0.00000000000E+00  0.99642513855E+02  0.99642513855E+02  0.00000000000E+00 0. -1.
         21   -1    0    0  501  503 -0.00000000000E+00 -0.00000000000E+00 -0.19004829473E+04  0.19004829473E+04  0.00000000000E+00 0. -1.
    9000005    1    1    2  501    0  0.86126233101E+02 -0.78726957431E+02 -0.11888617620E+04  0.12597650380E+04  0.40000000000E+03 0. -1.
   -9000005    1    1    2    0  502 -0.86126233101E+02  0.78726957431E+02 -0.61197867147E+03  0.74036042316E+03  0.40000000000E+03 0. -1.
<mgrwt>
<rscale>  2 0.41667213E+03</rscale>
<asrwt>0</asrwt>
<pdfrwt beam="1">  1       21 0.15329617E-01 0.41667213E+03</pdfrwt>
<pdfrwt beam="2">  1       21 0.29238199E+00 0.41667213E+03</pdfrwt>
<totfact> 0.11768835E+03</totfact>
</mgrwt>
</event>
<event>
 4    1  0.4991790E-002  0.4932625E+03  0.7818608E-02  0.1015553E+00
         21   -1    0    0  503  502  0.00000000000E+00  0.00000000000E+00  0.82483165985E+03  0.82483165985E+03  0.00000000000E+00 0.  1.
         21   -1    0    0  501  503 -0.00000000000E+00 -0.00000000000E+00 -0.32329632382E+03  0.32329632382E+03  0.00000000000E+00 0.  1.
    9000005    1    1    2  501    0 -0.20885110843E+03 -0.19922128319E+03  0.80870133035E+02  0.49984786044E+03  0.40000000000E+03 0.  1.
   -9000005    1    1    2    0  502  0.20885110843E+03  0.19922128319E+03  0.42066520299E+03  0.64828012323E+03  0.40000000000E+03 0.  1.
<mgrwt>
<rscale>  2 0.49326251E+03</rscale>
<asrwt>0</asrwt>
<pdfrwt beam="1">  1       21 0.12689718E+00 0.49326251E+03</pdfrwt>
<pdfrwt beam="2">  1       21 0.49737896E-01 0.49326251E+03</pdfrwt>
<totfact> 0.14881190E+03</totfact>
</mgrwt>
</event>
<event>
 4    1  0.4991790E-002  0.4188659E+03  0.7818608E-02  0.1037436E+00
         21   -1    0    0  501  502  0.00000000000E+00  0.00000000000E+00  0.43502224458E+03  0.43502224458E+03  0.00000000000E+00 0.  1.
         21   -1    0    0  502  503 -0.00000000000E+00 -0.00000000000E+00 -0.54006632410E+03  0.54006632410E+03  0.00000000000E+00 0.  1.
    9000005    1    1    2  501    0  0.12269229712E+03  0.19880713908E+02  0.19281599550E+03  0.46111457435E+03  0.40000000000E+03 0.  1.
   -9000005    1    1    2    0  503 -0.12269229712E+03 -0.19880713908E+02 -0.29786007502E+03  0.51397399433E+03  0.40000000000E+03 0.  1.
<mgrwt>
<rscale>  2 0.41886590E+03</rscale>
<asrwt>0</asrwt>
<pdfrwt beam="1">  1       21 0.66926499E-01 0.41886590E+03</pdfrwt>
<pdfrwt beam="2">  1       21 0.83087127E-01 0.41886590E+03</pdfrwt>
<totfact> 0.22602712E+03</totfact>
</mgrwt>
</event>
<event>
 4    1  0.4991790E-002  0.4111687E+03  0.7818608E-02  0.1039980E+00
         21   -1    0    0  503  502  0.00000000000E+00  0.00000000000E+00  0.11979165037E+04  0.11979165037E+04  0.00000000000E+00 0.  1.
         21   -1    0    0  501  503 -0.00000000000E+00 -0.00000000000E+00 -0.29104025604E+03  0.29104025604E+03  0.00000000000E+00 0.  1.
    9000005    1    1    2  501    0 -0.90880408405E+02 -0.28292581438E+02 -0.80872656371E+02  0.41904666249E+03  0.40000000000E+03 0.  1.
   -9000005    1    1    2    0  502  0.90880408405E+02  0.28292581438E+02  0.98774890401E+03  0.10699100972E+04  0.40000000000E+03 0.  1.
<mgrwt>
<rscale>  2 0.41116872E+03</rscale>
<asrwt>0</asrwt>
<pdfrwt beam="1">  1       21 0.18429484E+00 0.41116872E+03</pdfrwt>
<pdfrwt beam="2">  1       21 0.44775425E-01 0.41116872E+03</pdfrwt>
<totfact> 0.69066971E+02</totfact>
</mgrwt>
</event>
<event>
 4    1  0.4991790E-002  0.8809829E+03  0.7818608E-02  0.9449671E-01
         21   -1    0    0  501  502  0.00000000000E+00  0.00000000000E+00  0.84153736029E+03  0.84153736029E+03  0.00000000000E+00 0. -1.
         21   -1    0    0  502  503 -0.00000000000E+00 -0.00000000000E+00 -0.92589948121E+03  0.92589948121E+03  0.00000000000E+00 0.  1.
    9000005    1    1    2  501    0  0.39084551380E+03 -0.68071328727E+03 -0.97454659166E+02  0.88635670343E+03  0.40000000000E+03 0. -1.
   -9000005    1    1    2    0  503 -0.39084551380E+03  0.68071328727E+03  0.13092538246E+02  0.88108013806E+03  0.40000000000E+03 0.  1.
<mgrwt>
<rscale>  2 0.88098286E+03</rscale>
<asrwt>0</asrwt>
<pdfrwt beam="1">  1       21 0.12946729E+00 0.88098286E+03</pdfrwt>
<pdfrwt beam="2">  1       21 0.14244607E+00 0.88098286E+03</pdfrwt>
<totfact> 0.10264489E+02</totfact>
</mgrwt>
</event>
<event>
 4    1  0.4991790E-002  0.4269965E+03  0.7818608E-02  0.1034813E+00
         21   -1    0    0  501  502  0.00000000000E+00  0.00000000000E+00  0.90551110081E+03  0.90551110081E+03  0.00000000000E+00 0. -1.
         21   -1    0    0  502  503 -0.00000000000E+00 -0.00000000000E+00 -0.21797400113E+03  0.21797400113E+03  0.00000000000E+00 0. -1.
    9000005    1    1    2  501    0 -0.14808824045E+03  0.19896968135E+02  0.49889404833E+03  0.65667441534E+03  0.40000000000E+03 0. -1.
   -9000005    1    1    2    0  503  0.14808824045E+03 -0.19896968135E+02  0.18864305135E+03  0.46681068660E+03  0.40000000000E+03 0. -1.
<mgrwt>
<rscale>  2 0.42699651E+03</rscale>
<asrwt>0</asrwt>
<pdfrwt beam="1">  1       21 0.13930940E+00 0.42699651E+03</pdfrwt>
<pdfrwt beam="2">  1       21 0.33534462E-01 0.42699651E+03</pdfrwt>
<totfact> 0.27021054E+03</totfact>
</mgrwt>
</event>
<event>
 4    1  0.4991790E-002  0.4765887E+03  0.7818608E-02  0.1020077E+00
         21   -1    0    0  503  502  0.00000000000E+00  0.00000000000E+00  0.30328555284E+03  0.30328555284E+03  0.00000000000E+00 0. -1.
         21   -1    0    0  501  503 -0.00000000000E+00 -0.00000000000E+00 -0.93114807567E+03  0.93114807567E+03  0.00000000000E+00 0.  1.
    9000005    1    1    2  501    0  0.20383979829E+03 -0.15995657200E+03 -0.40885511663E+02  0.47833920324E+03  0.40000000000E+03 0.  1.
   -9000005    1    1    2    0  502 -0.20383979829E+03  0.15995657200E+03 -0.58697701117E+03  0.75609442527E+03  0.40000000000E+03 0.  1.
<mgrwt>
<rscale>  2 0.47658868E+03</rscale>
<asrwt>0</asrwt>
<pdfrwt beam="1">  1       21 0.46659316E-01 0.47658868E+03</pdfrwt>
<pdfrwt beam="2">  1       21 0.14325355E+00 0.47658868E+03</pdfrwt>
<totfact> 0.12463296E+03</totfact>
</mgrwt>
</event>
<event>
 4    1  0.4991790E-002  0.5900485E+03  0.7818608E-02  0.9926270E-01
         21   -1    0    0  503  502  0.00000000000E+00  0.00000000000E+00  0.80784405281E+03  0.80784405281E+03  0.00000000000E+00 0. -1.
         21   -1    0    0  501  503 -0.00000000000E+00 -0.00000000000E+00 -0.54906688021E+03  0.54906688021E+03  0.00000000000E+00 0. -1.
    9000005    1    1    2  501    0  0.39980039121E+03 -0.16827625963E+03  0.44403757427E+03  0.73846233467E+03  0.40000000000E+03 0. -1.
   -9000005    1    1    2    0  502 -0.39980039121E+03  0.16827625963E+03 -0.18526040167E+03  0.61844859834E+03  0.40000000000E+03 0. -1.
<mgrwt>
<rscale>  2 0.59004852E+03</rscale>
<asrwt>0</asrwt>
<pdfrwt beam="1">  1       21 0.12428370E+00 0.59004852E+03</pdfrwt>
<pdfrwt beam="2">  1       21 0.84471828E-01 0.59004852E+03</pdfrwt>
<totfact> 0.46511073E+02</totfact>
</mgrwt>
</event>
<event>
 4    1  0.4991790E-002  0.4916756E+03  0.7818608E-02  0.1015975E+00
         21   -1    0    0  501  502  0.00000000000E+00  0.00000000000E+00  0.16430556094E+03  0.16430556094E+03  0.00000000000E+00 0.  1.
         21   -1    0    0  502  503 -0.00000000000E+00 -0.00000000000E+00 -0.16898232218E+04  0.16898232218E+04  0.00000000000E+00 0. -1.
    9000005    1    1    2  501    0 -0.96006761727E+02  0.26930943197E+03 -0.42938970174E+03  0.65277897056E+03  0.40000000000E+03 0.  1.
   -9000005    1    1    2    0  503  0.96006761727E+02 -0.26930943197E+03 -0.10961279591E+04  0.12013498122E+04  0.40000000000E+03 0. -1.
<mgrwt>
<rscale>  2 0.49167557E+03</rscale>
<asrwt>0</asrwt>
<pdfrwt beam="1">  1       21 0.25277778E-01 0.49167557E+03</pdfrwt>
<pdfrwt beam="2">  1       21 0.25997280E+00 0.49167557E+03</pdfrwt>
<totfact> 0.68644779E+02</totfact>
</mgrwt>
</event>
<event>
 4    1  0.4991790E-002  0.4639522E+03  0.7818608E-02  0.1023641E+00
         21   -1    0    0  503  502  0.00000000000E+00  0.00000000000E+00  0.42018835165E+03  0.42018835165E+03  0.00000000000E+00 0.  1.
         21   -1    0    0  501  503 -0.00000000000E+00 -0.00000000000E+00 -0.64409572882E+03  0.64409572882E+03  0.00000000000E+00 0.  1.
    9000005    1    1    2  501    0  0.23222533264E+03  0.36373677885E+02 -0.35269218359E+03  0.58278934953E+03  0.40000000000E+03 0. -1.
   -9000005    1    1    2    0  502 -0.23222533264E+03 -0.36373677885E+02  0.12878480642E+03  0.48149473094E+03  0.40000000000E+03 0. -1.
<mgrwt>
<rscale>  2 0.46395221E+03</rscale>
<asrwt>0</asrwt>
<pdfrwt beam="1">  1       21 0.64644361E-01 0.46395221E+03</pdfrwt>
<pdfrwt beam="2">  1       21 0.99091651E-01 0.46395221E+03</pdfrwt>
<totfact> 0.15800182E+03</totfact>
</mgrwt>
</event>
<event>
 4    1  0.4991790E-002  0.4996247E+03  0.7818608E-02  0.1013877E+00
         21   -1    0    0  501  502  0.00000000000E+00  0.00000000000E+00  0.11020893018E+04  0.11020893018E+04  0.00000000000E+00 0. -1.
         21   -1    0    0  502  503 -0.00000000000E+00 -0.00000000000E+00 -0.22784814582E+03  0.22784814582E+03  0.00000000000E+00 0. -1.
    9000005    1    1    2  501    0  0.13844466145E+03 -0.26543912148E+03  0.38599840189E+03  0.63136330093E+03  0.40000000000E+03 0. -1.
   -9000005    1    1    2    0  503 -0.13844466145E+03  0.26543912148E+03  0.48824275409E+03  0.69857414668E+03  0.40000000000E+03 0. -1.
<mgrwt>
<rscale>  2 0.49962471E+03</rscale>
<asrwt>0</asrwt>
<pdfrwt beam="1">  1       21 0.16955220E+00 0.49962471E+03</pdfrwt>
<pdfrwt beam="2">  1       21 0.35053562E-01 0.49962471E+03</pdfrwt>
<totfact> 0.13999186E+03</totfact>
</mgrwt>
</event>
<event>
 4    1  0.4991790E-002  0.4572668E+03  0.7818608E-02  0.1025577E+00
         21   -1    0    0  501  502  0.00000000000E+00  0.00000000000E+00  0.10729413423E+04  0.10729413423E+04  0.00000000000E+00 0. -1.
         21   -1    0    0  502  503 -0.00000000000E+00 -0.00000000000E+00 -0.90236931719E+03  0.90236931719E+03  0.00000000000E+00 0. -1.
    9000005    1    1    2  501    0  0.99094311779E+02  0.19817482820E+03  0.95981403114E+03  0.10631725728E+04  0.40000000000E+03 0. -1.
   -9000005    1    1    2    0  503 -0.99094311779E+02 -0.19817482820E+03 -0.78924200602E+03  0.91213808671E+03  0.40000000000E+03 0. -1.
<mgrwt>
<rscale>  2 0.45726682E+03</rscale>
<asrwt>0</asrwt>
<pdfrwt beam="1">  1       21 0.16506790E+00 0.45726682E+03</pdfrwt>
<pdfrwt beam="2">  1       21 0.13882605E+00 0.45726682E+03</pdfrwt>
<totfact> 0.66720625E+01</totfact>
</mgrwt>
</event>
<event>
 4    1  0.4991790E-002  0.7891891E+03  0.7818608E-02  0.9575799E-01
         21   -1    0    0  501  502  0.00000000000E+00  0.00000000000E+00  0.14467304662E+04  0.14467304662E+04  0.00000000000E+00 0. -1.
         21   -1    0    0  502  503 -0.00000000000E+00 -0.00000000000E+00 -0.43635416124E+03  0.43635416124E+03  0.00000000000E+00 0.  1.
    9000005    1    1    2  501    0 -0.16915812349E+03  0.65894235572E+03  0.61423182887E+03  0.10000501180E+04  0.40000000000E+03 0. -1.
   -9000005    1    1    2    0  503  0.16915812349E+03 -0.65894235572E+03  0.39614447604E+03  0.88303450941E+03  0.40000000000E+03 0.  1.
<mgrwt>
<rscale>  2 0.78918914E+03</rscale>
<asrwt>0</asrwt>
<pdfrwt beam="1">  1       21 0.22257392E+00 0.78918914E+03</pdfrwt>
<pdfrwt beam="2">  1       21 0.67131410E-01 0.78918914E+03</pdfrwt>
<totfact> 0.13700340E+02</totfact>
</mgrwt>
</event>
<event>
 4    1  0.4991790E-002  0.4622022E+03  0.7818608E-02  0.1024144E+00
         21   -1    0    0  501  502  0.00000000000E+00  0.00000000000E+00  0.10757058299E+04  0.10757058299E+04  0.00000000000E+00 0.  1.
         21   -1    0    0  502  503 -0.00000000000E+00 -0.00000000000E+00 -0.23176789521E+03  0.23176789521E+03  0.00000000000E+00 0. -1.
    9000005    1    1    2  501    0  0.18712049370E+03 -0.13644345666E+03  0.66929017039E+03  0.81337582225E+03  0.40000000000E+03 0.  1.
   -9000005    1    1    2    0  503 -0.18712049370E+03  0.13644345666E+03  0.17464776429E+03  0.49409790285E+03  0.40000000000E+03 0. -1.
<mgrwt>
<rscale>  2 0.46220222E+03</rscale>
<asrwt>0</asrwt>
<pdfrwt beam="1">  1       21 0.16549320E+00 0.46220222E+03</pdfrwt>
<pdfrwt beam="2">  1       21 0.35656600E-01 0.46220222E+03</pdfrwt>
<totfact> 0.14701795E+03</totfact>
</mgrwt>
</event>
<event>
 4    1  0.4991790E-002  0.4185783E+03  0.7818608E-02  0.1037530E+00
         21   -1    0    0  501  502  0.00000000000E+00  0.00000000000E+00  0.15489371915E+03  0.15489371915E+03  0.00000000000E+00 0.  1.
         21   -1    0    0  502  503 -0.00000000000E+00 -0.00000000000E+00 -0.12511731883E+04  0.12511731883E+04  0.00000000000E+00 0.  1.
    9000005    1    1    2  501    0 -0.48955748243E+02 -0.11318609362E+03 -0.33039229900E+03  0.53326056325E+03  0.40000000000E+03 0. -1.
   -9000005    1    1    2    0  503  0.48955748243E+02  0.11318609362E+03 -0.76588717012E+03  0.87280634417E+03  0.40000000000E+03 0. -1.
<mgrwt>
<rscale>  2 0.41857826E+03</rscale>
<asrwt>0</asrwt>
<pdfrwt beam="1">  1       21 0.23829803E-01 0.41857826E+03</pdfrwt>
<pdfrwt beam="2">  1       21 0.19248818E+00 0.41857826E+03</pdfrwt>
<totfact> 0.21433972E+03</totfact>
</mgrwt>
</event>
<event>
 4    1  0.4991790E-002  0.4222322E+03  0.7818608E-02  0.1036342E+00
         21   -1    0    0  503  502  0.00000000000E+00  0.00000000000E+00  0.79413499087E+03  0.79413499087E+03  0.00000000000E+00 0. -1.
         21   -1    0    0  501  503 -0.00000000000E+00 -0.00000000000E+00 -0.37080610332E+03  0.37080610332E+03  0.00000000000E+00 0. -1.
    9000005    1    1    2  501    0 -0.13444193383E+03 -0.14330458633E+02 -0.15421494141E+03  0.44951334104E+03  0.40000000000E+03 0. -1.
   -9000005    1    1    2    0  502  0.13444193383E+03  0.14330458633E+02  0.57754382896E+03  0.71542775316E+03  0.40000000000E+03 0. -1.
<mgrwt>
<rscale>  2 0.42223216E+03</rscale>
<asrwt>0</asrwt>
<pdfrwt beam="1">  1       21 0.12217461E+00 0.42223216E+03</pdfrwt>
<pdfrwt beam="2">  1       21 0.57047093E-01 0.42223216E+03</pdfrwt>
<totfact> 0.12569265E+03</totfact>
</mgrwt>
</event>
<event>
 4    1  0.4991790E-002  0.4052288E+03  0.7818608E-02  0.1041984E+00
         21   -1    0    0  503  502  0.00000000000E+00  0.00000000000E+00  0.61367908635E+03  0.61367908635E+03  0.00000000000E+00 0.  1.
         21   -1    0    0  501  503 -0.00000000000E+00 -0.00000000000E+00 -0.31831665946E+03  0.31831665946E+03  0.00000000000E+00 0.  1.
    9000005    1    1    2  501    0 -0.59692526820E+02 -0.25439262786E+02 -0.38356293621E+02  0.40703999694E+03  0.40000000000E+03 0.  1.
   -9000005    1    1    2    0  502  0.59692526820E+02  0.25439262786E+02  0.33371872052E+03  0.52495574887E+03  0.40000000000E+03 0.  1.
<mgrwt>
<rscale>  2 0.40522877E+03</rscale>
<asrwt>0</asrwt>
<pdfrwt beam="1">  1       21 0.94412167E-01 0.40522877E+03</pdfrwt>
<pdfrwt beam="2">  1       21 0.48971794E-01 0.40522877E+03</pdfrwt>
<totfact> 0.33131605E+03</totfact>
</mgrwt>
</event>
<event>
 4    1  0.4991790E-002  0.4088837E+03  0.7818608E-02  0.1040746E+00
         21   -1    0    0  501  502  0.00000000000E+00  0.00000000000E+00  0.31724614333E+03  0.31724614333E+03  0.00000000000E+00 0.  1.
         21   -1    0    0  502  503 -0.00000000000E+00 -0.00000000000E+00 -0.53302175164E+03  0.53302175164E+03  0.00000000000E+00 0.  1.
    9000005    1    1    2  501    0 -0.82346796695E+02  0.20121603286E+02 -0.62667057065E+02  0.41365811232E+03  0.40000000000E+03 0. -1.
   -9000005    1    1    2    0  503  0.82346796695E+02 -0.20121603286E+02 -0.15310855125E+03  0.43660978266E+03  0.40000000000E+03 0. -1.
<mgrwt>
<rscale>  2 0.40888369E+03</rscale>
<asrwt>0</asrwt>
<pdfrwt beam="1">  1       21 0.48807099E-01 0.40888369E+03</pdfrwt>
<pdfrwt beam="2">  1       21 0.82003346E-01 0.40888369E+03</pdfrwt>
<totfact> 0.46411087E+03</totfact>
</mgrwt>
</event>
<event>
 4    1  0.4991790E-002  0.4429898E+03  0.7818608E-02  0.1029833E+00
         21   -1    0    0  503  502  0.00000000000E+00  0.00000000000E+00  0.64406944638E+03  0.64406944638E+03  0.00000000000E+00 0. -1.
         21   -1    0    0  501  503 -0.00000000000E+00 -0.00000000000E+00 -0.30574787669E+03  0.30574787669E+03  0.00000000000E+00 0. -1.
    9000005    1    1    2  501    0  0.11776398320E+03  0.14957127023E+03  0.19712836547E+03  0.48487061480E+03  0.40000000000E+03 0. -1.
   -9000005    1    1    2    0  502 -0.11776398320E+03 -0.14957127023E+03  0.14119320421E+03  0.46494670827E+03  0.40000000000E+03 0. -1.
<mgrwt>
<rscale>  2 0.44298975E+03</rscale>
<asrwt>0</asrwt>
<pdfrwt beam="1">  1       21 0.99087607E-01 0.44298975E+03</pdfrwt>
<pdfrwt beam="2">  1       21 0.47038135E-01 0.44298975E+03</pdfrwt>
<totfact> 0.31666102E+03</totfact>
</mgrwt>
</event>
<event>
 4    1  0.4991790E-002  0.4946327E+03  0.7818608E-02  0.1015189E+00
         21   -1    0    0  503  502  0.00000000000E+00  0.00000000000E+00  0.70127404901E+03  0.70127404901E+03  0.00000000000E+00 0.  1.
         21   -1    0    0  501  503 -0.00000000000E+00 -0.00000000000E+00 -0.53330071883E+03  0.53330071883E+03  0.00000000000E+00 0.  1.
    9000005    1    1    2  501    0  0.29094375616E+03  0.36448270253E+01 -0.27901146305E+03  0.56789871502E+03  0.40000000000E+03 0.  1.
   -9000005    1    1    2    0  502 -0.29094375616E+03 -0.36448270253E+01  0.44698479323E+03  0.66667605281E+03  0.40000000000E+03 0.  1.
<mgrwt>
<rscale>  2 0.49463275E+03</rscale>
<asrwt>0</asrwt>
<pdfrwt beam="1">  1       21 0.10788832E+00 0.49463275E+03</pdfrwt>
<pdfrwt beam="2">  1       21 0.82046264E-01 0.49463275E+03</pdfrwt>
<totfact> 0.73703939E+02</totfact>
</mgrwt>
</event>
<event>
 4    1  0.4991790E-002  0.4230584E+03  0.7818608E-02  0.1036075E+00
         21   -1    0    0  501  502  0.00000000000E+00  0.00000000000E+00  0.10201476701E+04  0.10201476701E+04  0.00000000000E+00 0.  1.
         21   -1    0    0  502  503 -0.00000000000E+00 -0.00000000000E+00 -0.30395197055E+03  0.30395197055E+03  0.00000000000E+00 0.  1.
    9000005    1    1    2  501    0 -0.13749700186E+03 -0.85454653529E+01  0.78857864541E+03  0.89489369787E+03  0.40000000000E+03 0.  1.
   -9000005    1    1    2    0  503  0.13749700186E+03  0.85454653529E+01 -0.72382945820E+02  0.42920594281E+03  0.40000000000E+03 0.  1.
<mgrwt>
<rscale>  2 0.42305845E+03</rscale>
<asrwt>0</asrwt>
<pdfrwt beam="1">  1       21 0.15694579E+00 0.42305845E+03</pdfrwt>
<pdfrwt beam="2">  1       21 0.46761842E-01 0.42305845E+03</pdfrwt>
<totfact> 0.99037769E+02</totfact>
</mgrwt>
</event>
<event>
 4    1  0.4991790E-002  0.4800022E+03  0.7818608E-02  0.1019135E+00
         21   -1    0    0  501  502  0.00000000000E+00  0.00000000000E+00  0.28185750742E+03  0.28185750742E+03  0.00000000000E+00 0.  1.
         21   -1    0    0  502  503 -0.00000000000E+00 -0.00000000000E+00 -0.11254024259E+04  0.11254024259E+04  0.00000000000E+00 0.  1.
    9000005    1    1    2  501    0  0.11104252945E+03  0.24098066652E+03 -0.53696071165E+02  0.48299626607E+03  0.40000000000E+03 0.  1.
   -9000005    1    1    2    0  503 -0.11104252945E+03 -0.24098066652E+03 -0.78984884733E+03  0.92426366725E+03  0.40000000000E+03 0.  1.
<mgrwt>
<rscale>  2 0.48000221E+03</rscale>
<asrwt>0</asrwt>
<pdfrwt beam="1">  1       21 0.43362693E-01 0.48000221E+03</pdfrwt>
<pdfrwt beam="2">  1       21 0.17313884E+00 0.48000221E+03</pdfrwt>
<totfact> 0.85795867E+02</totfact>
</mgrwt>
</event>
<event>
 4    1  0.4991790E-002  0.4951994E+03  0.7818608E-02  0.1015040E+00
         21   -1    0    0  501  502  0.00000000000E+00  0.00000000000E+00  0.26787520698E+03  0.26787520698E+03  0.00000000000E+00 0. -1.
         21   -1    0    0  502  503 -0.00000000000E+00 -0.00000000000E+00 -0.10315325264E+04  0.10315325264E+04  0.00000000000E+00 0.  1.
    9000005    1    1    2  501    0  0.46685002000E+02  0.28817180312E+03 -0.16386478892E+03  0.52160727235E+03  0.40000000000E+03 0. -1.
   -9000005    1    1    2    0  503 -0.46685002000E+02 -0.28817180312E+03 -0.59979253048E+03  0.77780046101E+03  0.40000000000E+03 0.  1.
<mgrwt>
<rscale>  2 0.49519943E+03</rscale>
<asrwt>0</asrwt>
<pdfrwt beam="1">  1       21 0.41211571E-01 0.49519943E+03</pdfrwt>
<pdfrwt beam="2">  1       21 0.15869731E+00 0.49519943E+03</pdfrwt>
<totfact> 0.12128076E+03</totfact>
</mgrwt>
</event>
<event>
 4    1  0.4991790E-002  0.4643429E+03  0.7818608E-02  0.1023529E+00
         21   -1    0    0  503  502  0.00000000000E+00  0.00000000000E+00  0.75597767851E+03  0.75597767851E+03  0.00000000000E+00 0. -1.
         21   -1    0    0  501  503 -0.00000000000E+00 -0.00000000000E+00 -0.32668972547E+03  0.32668972547E+03  0.00000000000E+00 0. -1.
    9000005    1    1    2  501    0  0.22975614020E+03  0.53164401408E+02  0.21757489540E+02  0.46485236999E+03  0.40000000000E+03 0. -1.
   -9000005    1    1    2    0  502 -0.22975614020E+03 -0.53164401408E+02  0.40753046350E+03  0.61781503398E+03  0.40000000000E+03 0. -1.
<mgrwt>
<rscale>  2 0.46434291E+03</rscale>
<asrwt>0</asrwt>
<pdfrwt beam="1">  1       21 0.11630426E+00 0.46434291E+03</pdfrwt>
<pdfrwt beam="2">  1       21 0.50259958E-01 0.46434291E+03</pdfrwt>
<totfact> 0.18380537E+03</totfact>
</mgrwt>
</event>
<event>
 4    1  0.4991790E-002  0.4016823E+03  0.7818608E-02  0.1043199E+00
         21   -1    0    0  501  502  0.00000000000E+00  0.00000000000E+00  0.88985258314E+03  0.88985258314E+03  0.00000000000E+00 0. -1.
         21   -1    0    0  502  503 -0.00000000000E+00 -0.00000000000E+00 -0.20169303668E+03  0.20169303668E+03  0.00000000000E+00 0. -1.
    9000005    1    1    2  501    0 -0.66300158156E+01  0.36120376155E+02  0.51753505128E+03  0.65512683352E+03  0.40000000000E+03 0. -1.
   -9000005    1    1    2    0  503  0.66300158156E+01 -0.36120376155E+02  0.17062449517E+03  0.43641878630E+03  0.40000000000E+03 0. -1.
<mgrwt>
<rscale>  2 0.40168226E+03</rscale>
<asrwt>0</asrwt>
<pdfrwt beam="1">  1       21 0.13690040E+00 0.40168226E+03</pdfrwt>
<pdfrwt beam="2">  1       21 0.31029698E-01 0.40168226E+03</pdfrwt>
<totfact> 0.33391021E+03</totfact>
</mgrwt>
</event>
<event>
 4    1  0.4991790E-002  0.4021731E+03  0.7818608E-02  0.1043030E+00
         21   -1    0    0  501  502  0.00000000000E+00  0.00000000000E+00  0.12097534252E+03  0.12097534252E+03  0.00000000000E+00 0.  1.
         21   -1    0    0  502  503 -0.00000000000E+00 -0.00000000000E+00 -0.24456649192E+04  0.24456649192E+04  0.00000000000E+00 0.  1.
    9000005    1    1    2  501    0  0.53246396489E+01 -0.41410913271E+02 -0.29829651606E+03  0.50072350356E+03  0.40000000000E+03 0.  1.
   -9000005    1    1    2    0  503 -0.53246396489E+01  0.41410913271E+02 -0.20263930606E+04  0.20659167581E+04  0.40000000000E+03 0.  1.
<mgrwt>
<rscale>  2 0.40217312E+03</rscale>
<asrwt>0</asrwt>
<pdfrwt beam="1">  1       21 0.18611592E-01 0.40217312E+03</pdfrwt>
<pdfrwt beam="2">  1       21 0.37625613E+00 0.40217312E+03</pdfrwt>
<totfact> 0.25579344E+02</totfact>
</mgrwt>
</event>
<event>
 4    1  0.4991790E-002  0.8808040E+03  0.7818608E-02  0.9449901E-01
         21   -1    0    0  503  502  0.00000000000E+00  0.00000000000E+00  0.85589531711E+03  0.85589531711E+03  0.00000000000E+00 0. -1.
         21   -1    0    0  501  503 -0.00000000000E+00 -0.00000000000E+00 -0.93188065726E+03  0.93188065726E+03  0.00000000000E+00 0.  1.
    9000005    1    1    2  501    0  0.72560428524E+03 -0.29885467368E+03 -0.18569509427E+03  0.90016574184E+03  0.40000000000E+03 0. -1.
   -9000005    1    1    2    0  502 -0.72560428524E+03  0.29885467368E+03  0.10970975412E+03  0.88761023253E+03  0.40000000000E+03 0.  1.
<mgrwt>
<rscale>  2 0.88080400E+03</rscale>
<asrwt>0</asrwt>
<pdfrwt beam="1">  1       21 0.13167620E+00 0.88080400E+03</pdfrwt>
<pdfrwt beam="2">  1       21 0.14336625E+00 0.88080400E+03</pdfrwt>
<totfact> 0.96438827E+01</totfact>
</mgrwt>
</event>
<event>
 4    1  0.4991790E-002  0.5154144E+03  0.7818608E-02  0.1009832E+00
         21   -1    0    0  503  502  0.00000000000E+00  0.00000000000E+00  0.11689709956E+04  0.11689709956E+04  0.00000000000E+00 0. -1.
         21   -1    0    0  501  503 -0.00000000000E+00 -0.00000000000E+00 -0.65799184273E+03  0.65799184273E+03  0.00000000000E+00 0. -1.
    9000005    1    1    2  501    0  0.31210126844E+03  0.90800610433E+02 -0.48359914246E+03  0.70676734729E+03  0.40000000000E+03 0. -1.
   -9000005    1    1    2    0  502 -0.31210126844E+03 -0.90800610433E+02  0.99457829533E+03  0.11201954910E+04  0.40000000000E+03 0. -1.
<mgrwt>
<rscale>  2 0.51541435E+03</rscale>
<asrwt>0</asrwt>
<pdfrwt beam="1">  1       21 0.17984169E+00 0.51541435E+03</pdfrwt>
<pdfrwt beam="2">  1       21 0.10122951E+00 0.51541435E+03</pdfrwt>
<totfact> 0.11279676E+02</totfact>
</mgrwt>
</event>
<event>
 4    1  0.4991790E-002  0.6270541E+03  0.7818608E-02  0.9850814E-01
         21   -1    0    0  503  502  0.00000000000E+00  0.00000000000E+00  0.14426076294E+04  0.14426076294E+04  0.00000000000E+00 0. -1.
         21   -1    0    0  501  503 -0.00000000000E+00 -0.00000000000E+00 -0.53855194597E+03  0.53855194597E+03  0.00000000000E+00 0. -1.
    9000005    1    1    2  501    0  0.45761468569E+03  0.15422601555E+03 -0.24413375039E+03  0.67290278087E+03  0.40000000000E+03 0. -1.
   -9000005    1    1    2    0  502 -0.45761468569E+03 -0.15422601555E+03  0.11481894338E+04  0.13082567945E+04  0.40000000000E+03 0. -1.
<mgrwt>
<rscale>  2 0.62705412E+03</rscale>
<asrwt>0</asrwt>
<pdfrwt beam="1">  1       21 0.22193963E+00 0.62705412E+03</pdfrwt>
<pdfrwt beam="2">  1       21 0.82854146E-01 0.62705412E+03</pdfrwt>
<totfact> 0.90223735E+01</totfact>
</mgrwt>
</event>
<event>
 4    1  0.4991790E-002  0.4667762E+03  0.7818608E-02  0.1022834E+00
         21   -1    0    0  503  502  0.00000000000E+00  0.00000000000E+00  0.58405437998E+02  0.58405437998E+02  0.00000000000E+00 0. -1.
         21   -1    0    0  501  503 -0.00000000000E+00 -0.00000000000E+00 -0.38230940572E+04  0.38230940572E+04  0.00000000000E+00 0. -1.
    9000005    1    1    2  501    0  0.36557742505E+02 -0.23778879478E+03 -0.15802697815E+04  0.16477659305E+04  0.40000000000E+03 0. -1.
   -9000005    1    1    2    0  502 -0.36557742505E+02  0.23778879478E+03 -0.21844188377E+04  0.22337335646E+04  0.40000000000E+03 0. -1.
<mgrwt>
<rscale>  2 0.46677616E+03</rscale>
<asrwt>0</asrwt>
<pdfrwt beam="1">  1       21 0.89854550E-02 0.46677616E+03</pdfrwt>
<pdfrwt beam="2">  1       21 0.58816812E+00 0.46677616E+03</pdfrwt>
<totfact> 0.30488623E+01</totfact>
</mgrwt>
</event>
<event>
 4    1  0.4991790E-002  0.7610441E+03  0.7818608E-02  0.9618181E-01
         21   -1    0    0  503  502  0.00000000000E+00  0.00000000000E+00  0.78555378567E+03  0.78555378567E+03  0.00000000000E+00 0.  1.
         21   -1    0    0  501  503 -0.00000000000E+00 -0.00000000000E+00 -0.74132232838E+03  0.74132232838E+03  0.00000000000E+00 0. -1.
    9000005    1    1    2  501    0 -0.23447282583E+02  0.64702271468E+03  0.78356705229E+02  0.76506727915E+03  0.40000000000E+03 0. -1.
   -9000005    1    1    2    0  502  0.23447282583E+02 -0.64702271468E+03 -0.34125247936E+02  0.76180883489E+03  0.40000000000E+03 0.  1.
<mgrwt>
<rscale>  2 0.76104413E+03</rscale>
<asrwt>0</asrwt>
<pdfrwt beam="1">  1       21 0.12085443E+00 0.76104413E+03</pdfrwt>
<pdfrwt beam="2">  1       21 0.11404959E+00 0.76104413E+03</pdfrwt>
<totfact> 0.22782167E+02</totfact>
</mgrwt>
</event>
<event>
 4    1  0.4991790E-002  0.4291469E+03  0.7818608E-02  0.1034130E+00
         21   -1    0    0  501  502  0.00000000000E+00  0.00000000000E+00  0.11383942185E+03  0.11383942185E+03  0.00000000000E+00 0. -1.
         21   -1    0    0  502  503 -0.00000000000E+00 -0.00000000000E+00 -0.18535614532E+04  0.18535614532E+04  0.00000000000E+00 0. -1.
    9000005    1    1    2  501    0  0.15467799878E+03  0.15549792495E+02 -0.12207055212E+04  0.12939432171E+04  0.40000000000E+03 0. -1.
   -9000005    1    1    2    0  503 -0.15467799878E+03 -0.15549792495E+02 -0.51901651008E+03  0.67345765798E+03  0.40000000000E+03 0. -1.
<mgrwt>
<rscale>  2 0.42914692E+03</rscale>
<asrwt>0</asrwt>
<pdfrwt beam="1">  1       21 0.17513758E-01 0.42914692E+03</pdfrwt>
<pdfrwt beam="2">  1       21 0.28516328E+00 0.42914692E+03</pdfrwt>
<totfact> 0.10071380E+03</totfact>
</mgrwt>
</event>
<event>
 4    1  0.4991790E-002  0.5144884E+03  0.7818608E-02  0.1010065E+00
         21   -1    0    0  503  502  0.00000000000E+00  0.00000000000E+00  0.11202924554E+03  0.11202924554E+03  0.00000000000E+00 0.  1.
         21   -1    0    0  501  503 -0.00000000000E+00 -0.00000000000E+00 -0.28202304189E+04  0.28202304189E+04  0.00000000000E+00 0. -1.
    9000005    1    1    2  501    0 -0.19381115036E+03 -0.25910533936E+03 -0.76361250020E+03  0.92076185268E+03  0.40000000000E+03 0.  1.
   -9000005    1    1    2    0  502  0.19381115036E+03  0.25910533936E+03 -0.19445886732E+04  0.20114978118E+04  0.40000000000E+03 0.  1.
<mgrwt>
<rscale>  2 0.51448842E+03</rscale>
<asrwt>0</asrwt>
<pdfrwt beam="1">  1       21 0.17235270E-01 0.51448842E+03</pdfrwt>
<pdfrwt beam="2">  1       21 0.43388156E+00 0.51448842E+03</pdfrwt>
<totfact> 0.11647768E+02</totfact>
</mgrwt>
</event>
<event>
 4    1  0.4991790E-002  0.7601802E+03  0.7818608E-02  0.9619513E-01
         21   -1    0    0  501  502  0.00000000000E+00  0.00000000000E+00  0.81537162729E+03  0.81537162729E+03  0.00000000000E+00 0.  1.
         21   -1    0    0  502  503 -0.00000000000E+00 -0.00000000000E+00 -0.12637760412E+04  0.12637760412E+04  0.00000000000E+00 0.  1.
    9000005    1    1    2  501    0  0.61228826812E+03 -0.20730906576E+03  0.46474648261E+03  0.89099004771E+03  0.40000000000E+03 0.  1.
   -9000005    1    1    2    0  503 -0.61228826812E+03  0.20730906576E+03 -0.91315089650E+03  0.11881576208E+04  0.40000000000E+03 0.  1.
<mgrwt>
<rscale>  2 0.76018022E+03</rscale>
<asrwt>0</asrwt>
<pdfrwt beam="1">  1       21 0.12544179E+00 0.76018022E+03</pdfrwt>
<pdfrwt beam="2">  1       21 0.19442708E+00 0.76018022E+03</pdfrwt>
<totfact> 0.47026824E+01</totfact>
</mgrwt>
</event>
<event>
 4    1  0.4991790E-002  0.4474472E+03  0.7818608E-02  0.1028486E+00
         21   -1    0    0  501  502  0.00000000000E+00  0.00000000000E+00  0.25289309765E+03  0.25289309765E+03  0.00000000000E+00 0.  1.
         21   -1    0    0  502  503 -0.00000000000E+00 -0.00000000000E+00 -0.96338865941E+03  0.96338865941E+03  0.00000000000E+00 0. -1.
    9000005    1    1    2  501    0 -0.16245117024E+03  0.11755255497E+03 -0.98500034556E+02  0.45816071711E+03  0.40000000000E+03 0.  1.
   -9000005    1    1    2    0  503  0.16245117024E+03 -0.11755255497E+03 -0.61199552721E+03  0.75812103995E+03  0.40000000000E+03 0.  1.
<mgrwt>
<rscale>  2 0.44744719E+03</rscale>
<asrwt>0</asrwt>
<pdfrwt beam="1">  1       21 0.38906630E-01 0.44744719E+03</pdfrwt>
<pdfrwt beam="2">  1       21 0.14821364E+00 0.44744719E+03</pdfrwt>
<totfact> 0.16788192E+03</totfact>
</mgrwt>
</event>
<event>
 4    1  0.4991790E-002  0.4352393E+03  0.7818608E-02  0.1032218E+00
         21   -1    0    0  503  502  0.00000000000E+00  0.00000000000E+00  0.27207149225E+04  0.27207149225E+04  0.00000000000E+00 0. -1.
         21   -1    0    0  501  503 -0.00000000000E+00 -0.00000000000E+00 -0.74050196675E+02  0.74050196675E+02  0.00000000000E+00 0. -1.
    9000005    1    1    2  501    0  0.14966586266E+03  0.83865488168E+02  0.98178171754E+03  0.10739313905E+04  0.40000000000E+03 0. -1.
   -9000005    1    1    2    0  502 -0.14966586266E+03 -0.83865488168E+02  0.16648830082E+04  0.17208337287E+04  0.40000000000E+03 0. -1.
<mgrwt>
<rscale>  2 0.43523935E+03</rscale>
<asrwt>0</asrwt>
<pdfrwt beam="1">  1       21 0.41857145E+00 0.43523935E+03</pdfrwt>
<pdfrwt beam="2">  1       21 0.11392340E-01 0.43523935E+03</pdfrwt>
<totfact> 0.33235577E+02</totfact>
</mgrwt>
</event>
<event>
 4    1  0.4991790E-002  0.4184184E+03  0.7818608E-02  0.1037582E+00
         21   -1    0    0  503  502  0.00000000000E+00  0.00000000000E+00  0.39475985000E+03  0.39475985000E+03  0.00000000000E+00 0.  1.
         21   -1    0    0  501  503 -0.00000000000E+00 -0.00000000000E+00 -0.84577945858E+03  0.84577945858E+03  0.00000000000E+00 0.  1.
    9000005    1    1    2  501    0 -0.12048413143E+03 -0.23611417995E+02 -0.65328807922E+03  0.77579587485E+03  0.40000000000E+03 0. -1.
   -9000005    1    1    2    0  502  0.12048413143E+03  0.23611417995E+02  0.20226847063E+03  0.46474343373E+03  0.40000000000E+03 0. -1.
<mgrwt>
<rscale>  2 0.41841836E+03</rscale>
<asrwt>0</asrwt>
<pdfrwt beam="1">  1       21 0.60732284E-01 0.41841836E+03</pdfrwt>
<pdfrwt beam="2">  1       21 0.13011992E+00 0.41841836E+03</pdfrwt>
<totfact> 0.93406238E+02</totfact>
</mgrwt>
</event>
<event>
 4    1  0.4991790E-002  0.4677480E+03  0.7818608E-02  0.1022558E+00
         21   -1    0    0  501  502  0.00000000000E+00  0.00000000000E+00  0.63501190208E+03  0.63501190208E+03  0.00000000000E+00 0.  1.
         21   -1    0    0  502  503 -0.00000000000E+00 -0.00000000000E+00 -0.38308570111E+03  0.38308570111E+03  0.00000000000E+00 0.  1.
    9000005    1    1    2  501    0  0.71736961572E+02  0.23160732699E+03  0.28743214172E+03  0.54900399057E+03  0.40000000000E+03 0.  1.
   -9000005    1    1    2    0  503 -0.71736961572E+02 -0.23160732699E+03 -0.35505940754E+02  0.46909361262E+03  0.40000000000E+03 0.  1.
<mgrwt>
<rscale>  2 0.46774795E+03</rscale>
<asrwt>0</asrwt>
<pdfrwt beam="1">  1       21 0.97694139E-01 0.46774795E+03</pdfrwt>
<pdfrwt beam="2">  1       21 0.58936262E-01 0.46774795E+03</pdfrwt>
<totfact> 0.20019988E+03</totfact>
</mgrwt>
</event>
<event>
 4    1  0.4991790E-002  0.4352854E+03  0.7818608E-02  0.1032203E+00
         21   -1    0    0  503  502  0.00000000000E+00  0.00000000000E+00  0.73187415020E+03  0.73187415020E+03  0.00000000000E+00 0. -1.
         21   -1    0    0  501  503 -0.00000000000E+00 -0.00000000000E+00 -0.26088256134E+03  0.26088256134E+03  0.00000000000E+00 0.  1.
    9000005    1    1    2  501    0 -0.13953707452E+03  0.10001410938E+03  0.19209310405E+03  0.47578690384E+03  0.40000000000E+03 0. -1.
   -9000005    1    1    2    0  502  0.13953707452E+03 -0.10001410938E+03  0.27889848482E+03  0.51696980770E+03  0.40000000000E+03 0.  1.
<mgrwt>
<rscale>  2 0.43528544E+03</rscale>
<asrwt>0</asrwt>
<pdfrwt beam="1">  1       21 0.11259602E+00 0.43528544E+03</pdfrwt>
<pdfrwt beam="2">  1       21 0.40135779E-01 0.43528544E+03</pdfrwt>
<totfact> 0.32272965E+03</totfact>
</mgrwt>
</event>
<event>
 4    1  0.4991790E-002  0.4362473E+03  0.7818608E-02  0.1031904E+00
         21   -1    0    0  503  502  0.00000000000E+00  0.00000000000E+00  0.71525607562E+03  0.71525607562E+03  0.00000000000E+00 0. -1.
         21   -1    0    0  501  503 -0.00000000000E+00 -0.00000000000E+00 -0.28137869195E+03  0.28137869195E+03  0.00000000000E+00 0. -1.
    9000005    1    1    2  501    0 -0.17381749964E+03 -0.99600685544E+01  0.10072448561E+03  0.44772441094E+03  0.40000000000E+03 0. -1.
   -9000005    1    1    2    0  502  0.17381749964E+03  0.99600685544E+01  0.33315289806E+03  0.54891035664E+03  0.40000000000E+03 0. -1.
<mgrwt>
<rscale>  2 0.43624732E+03</rscale>
<asrwt>0</asrwt>
<pdfrwt beam="1">  1       21 0.11003940E+00 0.43624732E+03</pdfrwt>
<pdfrwt beam="2">  1       21 0.43289030E-01 0.43624732E+03</pdfrwt>
<totfact> 0.29203684E+03</totfact>
</mgrwt>
</event>
<event>
 4    1  0.4991790E-002  0.4116712E+03  0.7818608E-02  0.1039812E+00
         21   -1    0    0  503  502  0.00000000000E+00  0.00000000000E+00  0.57086684199E+03  0.57086684199E+03  0.00000000000E+00 0. -1.
         21   -1    0    0  501  503 -0.00000000000E+00 -0.00000000000E+00 -0.58895017413E+03  0.58895017413E+03  0.00000000000E+00 0. -1.
    9000005    1    1    2  501    0  0.83140877635E+02  0.50604097174E+02 -0.41742811204E+03  0.58627588123E+03  0.40000000000E+03 0. -1.
   -9000005    1    1    2    0  502 -0.83140877635E+02 -0.50604097174E+02  0.39934477990E+03  0.57354113490E+03  0.40000000000E+03 0. -1.
<mgrwt>
<rscale>  2 0.41167120E+03</rscale>
<asrwt>0</asrwt>
<pdfrwt beam="1">  1       21 0.87825668E-01 0.41167120E+03</pdfrwt>
<pdfrwt beam="2">  1       21 0.90607719E-01 0.41167120E+03</pdfrwt>
<totfact> 0.99354366E+02</totfact>
</mgrwt>
</event>
<event>
 4    1  0.4991790E-002  0.4136846E+03  0.7818608E-02  0.1039142E+00
         21   -1    0    0  503  502  0.00000000000E+00  0.00000000000E+00  0.28017044729E+03  0.28017044729E+03  0.00000000000E+00 0.  1.
         21   -1    0    0  501  503 -0.00000000000E+00 -0.00000000000E+00 -0.67087969974E+03  0.67087969974E+03  0.00000000000E+00 0.  1.
    9000005    1    1    2  501    0  0.49777390016E+02 -0.93043852007E+02 -0.33762902041E+03  0.53397406526E+03  0.40000000000E+03 0. -1.
   -9000005    1    1    2    0  502 -0.49777390016E+02  0.93043852007E+02 -0.53080232045E+02  0.41707608177E+03  0.40000000000E+03 0. -1.
<mgrwt>
<rscale>  2 0.41368460E+03</rscale>
<asrwt>0</asrwt>
<pdfrwt beam="1">  1       21 0.43103146E-01 0.41368460E+03</pdfrwt>
<pdfrwt beam="2">  1       21 0.10321226E+00 0.41368460E+03</pdfrwt>
<totfact> 0.34797675E+03</totfact>
</mgrwt>
</event>
<event>
 4    1  0.4991790E-002  0.5055852E+03  0.7818608E-02  0.1012331E+00
         21   -1    0    0  503  502  0.00000000000E+00  0.00000000000E+00  0.10722965100E+04  0.10722965100E+04  0.00000000000E+00 0.  1.
         21   -1    0    0  501  503 -0.00000000000E+00 -0.00000000000E+00 -0.29000521322E+03  0.29000521322E+03  0.00000000000E+00 0. -1.
    9000005    1    1    2  501    0  0.51030448585E+02  0.30497916068E+03  0.67852933155E+03  0.84617873343E+03  0.40000000000E+03 0.  1.
   -9000005    1    1    2    0  502 -0.51030448585E+02 -0.30497916068E+03  0.10376196518E+03  0.51612298975E+03  0.40000000000E+03 0. -1.
<mgrwt>
<rscale>  2 0.50558520E+03</rscale>
<asrwt>0</asrwt>
<pdfrwt beam="1">  1       21 0.16496869E+00 0.50558520E+03</pdfrwt>
<pdfrwt beam="2">  1       21 0.44616187E-01 0.50558520E+03</pdfrwt>
<totfact> 0.91815795E+02</totfact>
</mgrwt>
</event>
<event>
 4    1  0.4991790E-002  0.4451668E+03  0.7818608E-02  0.1029173E+00
         21   -1    0    0  503  502  0.00000000000E+00  0.00000000000E+00  0.15206181149E+03  0.15206181149E+03  0.00000000000E+00 0.  1.
         21   -1    0    0  501  503 -0.00000000000E+00 -0.00000000000E+00 -0.13038083664E+04  0.13038083664E+04  0.00000000000E+00 0.  1.
    9000005    1    1    2  501    0 -0.18684725066E+03  0.57110420643E+02 -0.59103124860E+03  0.73992663964E+03  0.40000000000E+03 0.  1.
   -9000005    1    1    2    0  502  0.18684725066E+03 -0.57110420643E+02 -0.56071530627E+03  0.71594353821E+03  0.40000000000E+03 0.  1.
<mgrwt>
<rscale>  2 0.44516682E+03</rscale>
<asrwt>0</asrwt>
<pdfrwt beam="1">  1       21 0.23394126E-01 0.44516682E+03</pdfrwt>
<pdfrwt beam="2">  1       21 0.20058589E+00 0.44516682E+03</pdfrwt>
<totfact> 0.19368083E+03</totfact>
</mgrwt>
</event>
<event>
 4    1  0.4991790E-002  0.4189252E+03  0.7818608E-02  0.1037417E+00
         21   -1    0    0  501  502  0.00000000000E+00  0.00000000000E+00  0.66353852453E+03  0.66353852453E+03  0.00000000000E+00 0.  1.
         21   -1    0    0  502  503 -0.00000000000E+00 -0.00000000000E+00 -0.47362622664E+03  0.47362622664E+03  0.00000000000E+00 0.  1.
    9000005    1    1    2  501    0  0.12448102241E+03  0.16607482933E+01  0.47278207398E+03  0.63168122696E+03  0.40000000000E+03 0.  1.
   -9000005    1    1    2    0  503 -0.12448102241E+03 -0.16607482933E+01 -0.28286977609E+03  0.50548352421E+03  0.40000000000E+03 0.  1.
<mgrwt>
<rscale>  2 0.41892515E+03</rscale>
<asrwt>0</asrwt>
<pdfrwt beam="1">  1       21 0.10208285E+00 0.41892515E+03</pdfrwt>
<pdfrwt beam="2">  1       21 0.72865573E-01 0.41892515E+03</pdfrwt>
<totfact> 0.11442688E+03</totfact>
</mgrwt>
</event>
<event>
 4    1  0.4991790E-002  0.7777765E+03  0.7818608E-02  0.9592754E-01
         21   -1    0    0  501  502  0.00000000000E+00  0.00000000000E+00  0.65351020484E+03  0.65351020484E+03  0.00000000000E+00 0.  1.
         21   -1    0    0  502  503 -0.00000000000E+00 -0.00000000000E+00 -0.92827898115E+03  0.92827898115E+03  0.00000000000E+00 0.  1.
    9000005    1    1    2  501    0  0.17200582350E+03 -0.64447678790E+03 -0.95474324374E+02  0.78361449711E+03  0.40000000000E+03 0.  1.
   -9000005    1    1    2    0  503 -0.17200582350E+03  0.64447678790E+03 -0.17929445193E+03  0.79817468887E+03  0.40000000000E+03 0.  1.
<mgrwt>
<rscale>  2 0.77777653E+03</rscale>
<asrwt>0</asrwt>
<pdfrwt beam="1">  1       21 0.10054003E+00 0.77777653E+03</pdfrwt>
<pdfrwt beam="2">  1       21 0.14281215E+00 0.77777653E+03</pdfrwt>
<totfact> 0.19981967E+02</totfact>
</mgrwt>
</event>
<event>
 4    1  0.4991790E-002  0.5146319E+03  0.7818608E-02  0.1010029E+00
         21   -1    0    0  501  502  0.00000000000E+00  0.00000000000E+00  0.18014442113E+04  0.18014442113E+04  0.00000000000E+00 0. -1.
         21   -1    0    0  502  503 -0.00000000000E+00 -0.00000000000E+00 -0.15149477213E+03  0.15149477213E+03  0.00000000000E+00 0.  1.
    9000005    1    1    2  501    0  0.27444557998E+03 -0.17183011853E+03  0.99281992280E+03  0.11182742799E+04  0.40000000000E+03 0.  1.
   -9000005    1    1    2    0  503 -0.27444557998E+03  0.17183011853E+03  0.65712951637E+03  0.83466470351E+03  0.40000000000E+03 0. -1.
<mgrwt>
<rscale>  2 0.51463187E+03</rscale>
<asrwt>0</asrwt>
<pdfrwt beam="1">  1       21 0.27714525E+00 0.51463187E+03</pdfrwt>
<pdfrwt beam="2">  1       21 0.23306889E-01 0.51463187E+03</pdfrwt>
<totfact> 0.62508484E+02</totfact>
</mgrwt>
</event>
<event>
 4    1  0.4991790E-002  0.4173502E+03  0.7818608E-02  0.1037932E+00
         21   -1    0    0  503  502  0.00000000000E+00  0.00000000000E+00  0.28417411800E+04  0.28417411800E+04  0.00000000000E+00 0. -1.
         21   -1    0    0  501  503 -0.00000000000E+00 -0.00000000000E+00 -0.14690867974E+03  0.14690867974E+03  0.00000000000E+00 0. -1.
    9000005    1    1    2  501    0  0.61285575054E+01  0.11892688039E+03  0.20665201225E+03  0.46571044251E+03  0.40000000000E+03 0. -1.
   -9000005    1    1    2    0  502 -0.61285575054E+01 -0.11892688039E+03  0.24881804880E+04  0.25229394172E+04  0.40000000000E+03 0. -1.
<mgrwt>
<rscale>  2 0.41735017E+03</rscale>
<asrwt>0</asrwt>
<pdfrwt beam="1">  1       21 0.43719091E+00 0.41735017E+03</pdfrwt>
<pdfrwt beam="2">  1       21 0.22601337E-01 0.41735017E+03</pdfrwt>
<totfact> 0.70696128E+01</totfact>
</mgrwt>
</event>
<event>
 4    1  0.4991790E-002  0.5174597E+03  0.7818608E-02  0.1009320E+00
         21   -1    0    0  503  502  0.00000000000E+00  0.00000000000E+00  0.48736185620E+03  0.48736185620E+03  0.00000000000E+00 0. -1.
         21   -1    0    0  501  503 -0.00000000000E+00 -0.00000000000E+00 -0.89253263057E+03  0.89253263057E+03  0.00000000000E+00 0.  1.
    9000005    1    1    2  501    0 -0.20905553826E+03 -0.25310131038E+03 -0.63036944929E+03  0.81555510788E+03  0.40000000000E+03 0.  1.
   -9000005    1    1    2    0  502  0.20905553826E+03  0.25310131038E+03  0.22519867491E+03  0.56433937890E+03  0.40000000000E+03 0. -1.
<mgrwt>
<rscale>  2 0.51745965E+03</rscale>
<asrwt>0</asrwt>
<pdfrwt beam="1">  1       21 0.74978747E-01 0.51745965E+03</pdfrwt>
<pdfrwt beam="2">  1       21 0.13731271E+00 0.51745965E+03</pdfrwt>
<totfact> 0.48531741E+02</totfact>
</mgrwt>
</event>
<event>
 4    1  0.4991790E-002  0.5803271E+03  0.7818608E-02  0.9947083E-01
         21   -1    0    0  501  502  0.00000000000E+00  0.00000000000E+00  0.10228087040E+04  0.10228087040E+04  0.00000000000E+00 0.  1.
         21   -1    0    0  502  503 -0.00000000000E+00 -0.00000000000E+00 -0.38785070819E+03  0.38785070819E+03  0.00000000000E+00 0.  1.
    9000005    1    1    2  501    0  0.40629513683E+03 -0.10818414879E+03  0.59159830872E+03  0.82871473207E+03  0.40000000000E+03 0.  1.
   -9000005    1    1    2    0  503 -0.40629513683E+03  0.10818414879E+03  0.43359687077E+02  0.58194468012E+03  0.40000000000E+03 0.  1.
<mgrwt>
<rscale>  2 0.58032710E+03</rscale>
<asrwt>0</asrwt>
<pdfrwt beam="1">  1       21 0.15735518E+00 0.58032710E+03</pdfrwt>
<pdfrwt beam="2">  1       21 0.59669340E-01 0.58032710E+03</pdfrwt>
<totfact> 0.54645464E+02</totfact>
</mgrwt>
</event>
<event>
 4    1  0.4991790E-002  0.4374048E+03  0.7818608E-02  0.1031546E+00
         21   -1    0    0  501  502  0.00000000000E+00  0.00000000000E+00  0.19194838518E+03  0.19194838518E+03  0.00000000000E+00 0.  1.
         21   -1    0    0  502  503 -0.00000000000E+00 -0.00000000000E+00 -0.10570220357E+04  0.10570220357E+04  0.00000000000E+00 0. -1.
    9000005    1    1    2  501    0  0.78071240740E+02 -0.15883278212E+03 -0.58166776395E+03  0.72777768510E+03  0.40000000000E+03 0. -1.
   -9000005    1    1    2    0  503 -0.78071240740E+02  0.15883278212E+03 -0.28340588660E+03  0.52119273582E+03  0.40000000000E+03 0.  1.
<mgrwt>
<rscale>  2 0.43740481E+03</rscale>
<asrwt>0</asrwt>
<pdfrwt beam="1">  1       21 0.29530520E-01 0.43740481E+03</pdfrwt>
<pdfrwt beam="2">  1       21 0.16261878E+00 0.43740481E+03</pdfrwt>
<totfact> 0.22769010E+03</totfact>
</mgrwt>
</event>
<event>
 4    1  0.4991790E-002  0.4424404E+03  0.7818608E-02  0.1030001E+00
         21   -1    0    0  503  502  0.00000000000E+00  0.00000000000E+00  0.47991368063E+03  0.47991368063E+03  0.00000000000E+00 0.  1.
         21   -1    0    0  501  503 -0.00000000000E+00 -0.00000000000E+00 -0.71445127207E+03  0.71445127207E+03  0.00000000000E+00 0.  1.
    9000005    1    1    2  501    0  0.14158154022E+03  0.12533229247E+03 -0.50844924624E+03  0.67399862913E+03  0.40000000000E+03 0.  1.
   -9000005    1    1    2    0  502 -0.14158154022E+03 -0.12533229247E+03  0.27391165480E+03  0.52036632357E+03  0.40000000000E+03 0.  1.
<mgrwt>
<rscale>  2 0.44244041E+03</rscale>
<asrwt>0</asrwt>
<pdfrwt beam="1">  1       21 0.73832874E-01 0.44244041E+03</pdfrwt>
<pdfrwt beam="2">  1       21 0.10991558E+00 0.44244041E+03</pdfrwt>
<totfact> 0.91641725E+02</totfact>
</mgrwt>
</event>
<event>
 4    1  0.4991790E-002  0.5709854E+03  0.7818608E-02  0.9967500E-01
         21   -1    0    0  503  502  0.00000000000E+00  0.00000000000E+00  0.39732535436E+03  0.39732535436E+03  0.00000000000E+00 0.  1.
         21   -1    0    0  501  503 -0.00000000000E+00 -0.00000000000E+00 -0.10639305196E+04  0.10639305196E+04  0.00000000000E+00 0.  1.
    9000005    1    1    2  501    0  0.49603189197E+02 -0.40443034036E+03 -0.68275227705E+03  0.89004216102E+03  0.40000000000E+03 0.  1.
   -9000005    1    1    2    0  502 -0.49603189197E+02  0.40443034036E+03  0.16147111855E+02  0.57121371290E+03  0.40000000000E+03 0.  1.
<mgrwt>
<rscale>  2 0.57098544E+03</rscale>
<asrwt>0</asrwt>
<pdfrwt beam="1">  1       21 0.61126978E-01 0.57098544E+03</pdfrwt>
<pdfrwt beam="2">  1       21 0.16368162E+00 0.57098544E+03</pdfrwt>
<totfact> 0.46529159E+02</totfact>
</mgrwt>
</event>
<event>
 4    1  0.4991790E-002  0.4294849E+03  0.7818608E-02  0.1034023E+00
         21   -1    0    0  501  502  0.00000000000E+00  0.00000000000E+00  0.24984217499E+04  0.24984217499E+04  0.00000000000E+00 0.  1.
         21   -1    0    0  502  503 -0.00000000000E+00 -0.00000000000E+00 -0.21520037556E+03  0.21520037556E+03  0.00000000000E+00 0.  1.
    9000005    1    1    2  501    0  0.13422614936E+02  0.15581119266E+03  0.22413197317E+04  0.22820980334E+04  0.40000000000E+03 0.  1.
   -9000005    1    1    2    0  503 -0.13422614936E+02 -0.15581119266E+03  0.41901642619E+02  0.43152409203E+03  0.40000000000E+03 0.  1.
<mgrwt>
<rscale>  2 0.42948492E+03</rscale>
<asrwt>0</asrwt>
<pdfrwt beam="1">  1       21 0.38437256E+00 0.42948492E+03</pdfrwt>
<pdfrwt beam="2">  1       21 0.33107752E-01 0.42948492E+03</pdfrwt>
<totfact> 0.72778016E+01</totfact>
</mgrwt>
</event>
<event>
 4    1  0.4991790E-002  0.4957085E+03  0.7818608E-02  0.1014905E+00
         21   -1    0    0  503  502  0.00000000000E+00  0.00000000000E+00  0.42412346270E+03  0.42412346270E+03  0.00000000000E+00 0. -1.
         21   -1    0    0  501  503 -0.00000000000E+00 -0.00000000000E+00 -0.60913576562E+03  0.60913576562E+03  0.00000000000E+00 0.  1.
    9000005    1    1    2  501    0 -0.27943589565E+03 -0.87421346378E+02  0.21686393742E+02  0.49618263901E+03  0.40000000000E+03 0. -1.
   -9000005    1    1    2    0  502  0.27943589565E+03  0.87421346378E+02 -0.20669869666E+03  0.53707658931E+03  0.40000000000E+03 0.  1.
<mgrwt>
<rscale>  2 0.49570849E+03</rscale>
<asrwt>0</asrwt>
<pdfrwt beam="1">  1       21 0.65249764E-01 0.49570849E+03</pdfrwt>
<pdfrwt beam="2">  1       21 0.93713194E-01 0.49570849E+03</pdfrwt>
<totfact> 0.17499208E+03</totfact>
</mgrwt>
</event>
<event>
 4    1  0.4991790E-002  0.4761488E+03  0.7818608E-02  0.1020199E+00
         21   -1    0    0  501  502  0.00000000000E+00  0.00000000000E+00  0.29306447774E+03  0.29306447774E+03  0.00000000000E+00 0.  1.
         21   -1    0    0  502  503 -0.00000000000E+00 -0.00000000000E+00 -0.10963205207E+04  0.10963205207E+04  0.00000000000E+00 0. -1.
    9000005    1    1    2  501    0 -0.21985532174E+03  0.13557767786E+03 -0.24724438903E+02  0.47679027582E+03  0.40000000000E+03 0.  1.
   -9000005    1    1    2    0  503  0.21985532174E+03 -0.13557767786E+03 -0.77853160405E+03  0.91259472261E+03  0.40000000000E+03 0.  1.
<mgrwt>
<rscale>  2 0.47614879E+03</rscale>
<asrwt>0</asrwt>
<pdfrwt beam="1">  1       21 0.45086843E-01 0.47614879E+03</pdfrwt>
<pdfrwt beam="2">  1       21 0.16866469E+00 0.47614879E+03</pdfrwt>
<totfact> 0.85359098E+02</totfact>
</mgrwt>
</event>
<event>
 4    1  0.4991790E-002  0.4684303E+03  0.7818608E-02  0.1022364E+00
         21   -1    0    0  503  502  0.00000000000E+00  0.00000000000E+00  0.29788743746E+03  0.29788743746E+03  0.00000000000E+00 0. -1.
         21   -1    0    0  501  503 -0.00000000000E+00 -0.00000000000E+00 -0.10982016106E+04  0.10982016106E+04  0.00000000000E+00 0. -1.
    9000005    1    1    2  501    0 -0.22800551545E+03 -0.86257871848E+02 -0.80070190479E+03  0.92765859877E+03  0.40000000000E+03 0. -1.
   -9000005    1    1    2    0  502  0.22800551545E+03  0.86257871848E+02  0.38773160579E+00  0.46843044934E+03  0.40000000000E+03 0. -1.
<mgrwt>
<rscale>  2 0.46843029E+03</rscale>
<asrwt>0</asrwt>
<pdfrwt beam="1">  1       21 0.45828837E-01 0.46843029E+03</pdfrwt>
<pdfrwt beam="2">  1       21 0.16895409E+00 0.46843029E+03</pdfrwt>
<totfact> 0.82353781E+02</totfact>
</mgrwt>
</event>
<event>
 4    1  0.4991790E-002  0.4566039E+03  0.7818608E-02  0.1025771E+00
         21   -1    0    0  503  502  0.00000000000E+00  0.00000000000E+00  0.16585996892E+04  0.16585996892E+04  0.00000000000E+00 0. -1.
         21   -1    0    0  501  503 -0.00000000000E+00 -0.00000000000E+00 -0.17106090184E+03  0.17106090184E+03  0.00000000000E+00 0.  1.
    9000005    1    1    2  501    0 -0.14204893241E+03 -0.16825355348E+03  0.27268078359E+03  0.53182888902E+03  0.40000000000E+03 0.  1.
   -9000005    1    1    2    0  502  0.14204893241E+03  0.16825355348E+03  0.12148580038E+04  0.12978317021E+04  0.40000000000E+03 0. -1.
<mgrwt>
<rscale>  2 0.45660394E+03</rscale>
<asrwt>0</asrwt>
<pdfrwt beam="1">  1       21 0.25516917E+00 0.45660394E+03</pdfrwt>
<pdfrwt beam="2">  1       21 0.26317063E-01 0.45660394E+03</pdfrwt>
<totfact> 0.69086600E+02</totfact>
</mgrwt>
</event>
<event>
 4    1  0.4991790E-002  0.5400922E+03  0.7818608E-02  0.1003814E+00
         21   -1    0    0  503  502  0.00000000000E+00  0.00000000000E+00  0.47986003868E+03  0.47986003868E+03  0.00000000000E+00 0. -1.
         21   -1    0    0  501  503 -0.00000000000E+00 -0.00000000000E+00 -0.22843342777E+04  0.22843342777E+04  0.00000000000E+00 0.  1.
    9000005    1    1    2  501    0 -0.36290326138E+03  0.92779499921E+00 -0.20862433200E+04  0.21550199137E+04  0.40000000000E+03 0.  1.
   -9000005    1    1    2    0  502  0.36290326138E+03 -0.92779499921E+00  0.28176908101E+03  0.60917440272E+03  0.40000000000E+03 0. -1.
<mgrwt>
<rscale>  2 0.54009225E+03</rscale>
<asrwt>0</asrwt>
<pdfrwt beam="1">  1       21 0.73824621E-01 0.54009225E+03</pdfrwt>
<pdfrwt beam="2">  1       21 0.35143605E+00 0.54009225E+03</pdfrwt>
<totfact> 0.19589540E+01</totfact>
</mgrwt>
</event>
<event>
 4    1  0.4991790E-002  0.4160356E+03  0.7818608E-02  0.1038364E+00
         21   -1    0    0  503  502  0.00000000000E+00  0.00000000000E+00  0.77562370476E+03  0.77562370476E+03  0.00000000000E+00 0.  1.
         21   -1    0    0  501  503 -0.00000000000E+00 -0.00000000000E+00 -0.22517127926E+03  0.22517127926E+03  0.00000000000E+00 0. -1.
    9000005    1    1    2  501    0 -0.28837293742E+02 -0.11069780056E+03  0.32255828381E+03  0.52643084922E+03  0.40000000000E+03 0.  1.
   -9000005    1    1    2    0  502  0.28837293742E+02  0.11069780056E+03  0.22789414170E+03  0.47436413479E+03  0.40000000000E+03 0.  1.
<mgrwt>
<rscale>  2 0.41603557E+03</rscale>
<asrwt>0</asrwt>
<pdfrwt beam="1">  1       21 0.11932672E+00 0.41603557E+03</pdfrwt>
<pdfrwt beam="2">  1       21 0.34641736E-01 0.41603557E+03</pdfrwt>
<totfact> 0.37941255E+03</totfact>
</mgrwt>
</event>
<event>
 4    1  0.4991790E-002  0.4146840E+03  0.7818608E-02  0.1038810E+00
         21   -1    0    0  503  502  0.00000000000E+00  0.00000000000E+00  0.19871973827E+03  0.19871973827E+03  0.00000000000E+00 0.  1.
         21   -1    0    0  501  503 -0.00000000000E+00 -0.00000000000E+00 -0.10896624928E+04  0.10896624928E+04  0.00000000000E+00 0.  1.
    9000005    1    1    2  501    0 -0.89374724107E+02  0.63047508201E+02 -0.15319613402E+03  0.44207678641E+03  0.40000000000E+03 0.  1.
   -9000005    1    1    2    0  502  0.89374724107E+02 -0.63047508201E+02 -0.73774662056E+03  0.84630544471E+03  0.40000000000E+03 0.  1.
<mgrwt>
<rscale>  2 0.41468401E+03</rscale>
<asrwt>0</asrwt>
<pdfrwt beam="1">  1       21 0.30572267E-01 0.41468401E+03</pdfrwt>
<pdfrwt beam="2">  1       21 0.16764039E+00 0.41468401E+03</pdfrwt>
<totfact> 0.19701198E+03</totfact>
</mgrwt>
</event>
<event>
 4    1  0.4991790E-002  0.4577945E+03  0.7818608E-02  0.1025423E+00
         21   -1    0    0  503  502  0.00000000000E+00  0.00000000000E+00  0.41614698859E+03  0.41614698859E+03  0.00000000000E+00 0. -1.
         21   -1    0    0  501  503 -0.00000000000E+00 -0.00000000000E+00 -0.50848250487E+03  0.50848250487E+03  0.00000000000E+00 0. -1.
    9000005    1    1    2  501    0 -0.18371224948E+03 -0.12579992209E+03 -0.91423437277E+02  0.46683407747E+03  0.40000000000E+03 0. -1.
   -9000005    1    1    2    0  502  0.18371224948E+03  0.12579992209E+03 -0.91207900342E+00  0.45779541598E+03  0.40000000000E+03 0. -1.
<mgrwt>
<rscale>  2 0.45779451E+03</rscale>
<asrwt>0</asrwt>
<pdfrwt beam="1">  1       21 0.64022614E-01 0.45779451E+03</pdfrwt>
<pdfrwt beam="2">  1       21 0.78228077E-01 0.45779451E+03</pdfrwt>
<totfact> 0.28263137E+03</totfact>
</mgrwt>
</event>
<event>
 4    1  0.4991790E-002  0.5034971E+03  0.7818608E-02  0.1012870E+00
         21   -1    0    0  503  502  0.00000000000E+00  0.00000000000E+00  0.36787907311E+03  0.36787907311E+03  0.00000000000E+00 0. -1.
         21   -1    0    0  501  503 -0.00000000000E+00 -0.00000000000E+00 -0.72782094378E+03  0.72782094378E+03  0.00000000000E+00 0. -1.
    9000005    1    1    2  501    0  0.23939788647E+03 -0.19025756401E+03 -0.53624168285E+02  0.50634458636E+03  0.40000000000E+03 0. -1.
   -9000005    1    1    2    0  502 -0.23939788647E+03  0.19025756401E+03 -0.30631770238E+03  0.58935543054E+03  0.40000000000E+03 0. -1.
<mgrwt>
<rscale>  2 0.50349706E+03</rscale>
<asrwt>0</asrwt>
<pdfrwt beam="1">  1       21 0.56596781E-01 0.50349706E+03</pdfrwt>
<pdfrwt beam="2">  1       21 0.11197245E+00 0.50349706E+03</pdfrwt>
<totfact> 0.15434022E+03</totfact>
</mgrwt>
</event>
<event>
 4    1  0.4991790E-002  0.4739614E+03  0.7818608E-02  0.1020808E+00
         21   -1    0    0  503  502  0.00000000000E+00  0.00000000000E+00  0.17378870541E+04  0.17378870541E+04  0.00000000000E+00 0.  1.
         21   -1    0    0  501  503 -0.00000000000E+00 -0.00000000000E+00 -0.12977714248E+03  0.12977714248E+03  0.00000000000E+00 0. -1.
    9000005    1    1    2  501    0 -0.93998866392E+02 -0.23622789441E+03  0.86299965431E+03  0.98458509450E+03  0.40000000000E+03 0. -1.
   -9000005    1    1    2    0  502  0.93998866392E+02  0.23622789441E+03  0.74511025734E+03  0.88307910211E+03  0.40000000000E+03 0.  1.
<mgrwt>
<rscale>  2 0.47396140E+03</rscale>
<asrwt>0</asrwt>
<pdfrwt beam="1">  1       21 0.26736722E+00 0.47396140E+03</pdfrwt>
<pdfrwt beam="2">  1       21 0.19965715E-01 0.47396140E+03</pdfrwt>
<totfact> 0.98363194E+02</totfact>
</mgrwt>
</event>
<event>
 4    1  0.4991790E-002  0.4008976E+03  0.7818608E-02  0.1043469E+00
         21   -1    0    0  501  502  0.00000000000E+00  0.00000000000E+00  0.78128662198E+02  0.78128662198E+02  0.00000000000E+00 0.  1.
         21   -1    0    0  502  503 -0.00000000000E+00 -0.00000000000E+00 -0.22715308441E+04  0.22715308441E+04  0.00000000000E+00 0.  1.
    9000005    1    1    2  501    0 -0.53828599401E+01 -0.26265656187E+02 -0.73574514126E+03  0.83787813718E+03  0.40000000000E+03 0. -1.
   -9000005    1    1    2    0  503  0.53828599401E+01  0.26265656187E+02 -0.14576570406E+04  0.15117813691E+04  0.40000000000E+03 0. -1.
<mgrwt>
<rscale>  2 0.40089757E+03</rscale>
<asrwt>0</asrwt>
<pdfrwt beam="1">  1       21 0.12019793E-01 0.40089757E+03</pdfrwt>
<pdfrwt beam="2">  1       21 0.34946632E+00 0.40089757E+03</pdfrwt>
<totfact> 0.84152036E+02</totfact>
</mgrwt>
</event>
<event>
 4    1  0.4991790E-002  0.4442343E+03  0.7818608E-02  0.1029456E+00
         21   -1    0    0  503  502  0.00000000000E+00  0.00000000000E+00  0.84233698941E+03  0.84233698941E+03  0.00000000000E+00 0.  1.
         21   -1    0    0  501  503 -0.00000000000E+00 -0.00000000000E+00 -0.57903316218E+03  0.57903316218E+03  0.00000000000E+00 0.  1.
    9000005    1    1    2  501    0 -0.15072757937E+03  0.12093522260E+03 -0.41672421748E+03  0.60910032399E+03  0.40000000000E+03 0.  1.
   -9000005    1    1    2    0  502  0.15072757937E+03 -0.12093522260E+03  0.68002804470E+03  0.81226982760E+03  0.40000000000E+03 0.  1.
<mgrwt>
<rscale>  2 0.44423432E+03</rscale>
<asrwt>0</asrwt>
<pdfrwt beam="1">  1       21 0.12959031E+00 0.44423432E+03</pdfrwt>
<pdfrwt beam="2">  1       21 0.89082025E-01 0.44423432E+03</pdfrwt>
<totfact> 0.39049307E+02</totfact>
</mgrwt>
</event>
<event>
 4    1  0.4991790E-002  0.4668704E+03  0.7818608E-02  0.1022807E+00
         21   -1    0    0  503  502  0.00000000000E+00  0.00000000000E+00  0.67273021587E+03  0.67273021587E+03  0.00000000000E+00 0.  1.
         21   -1    0    0  501  503 -0.00000000000E+00 -0.00000000000E+00 -0.39893970531E+03  0.39893970531E+03  0.00000000000E+00 0. -1.
    9000005    1    1    2  501    0 -0.23663857548E+03  0.44386019957E+02 -0.95335107182E+02  0.47650468711E+03  0.40000000000E+03 0. -1.
   -9000005    1    1    2    0  502  0.23663857548E+03 -0.44386019957E+02  0.36912561774E+03  0.59516523407E+03  0.40000000000E+03 0.  1.
<mgrwt>
<rscale>  2 0.46687036E+03</rscale>
<asrwt>0</asrwt>
<pdfrwt beam="1">  1       21 0.10349696E+00 0.46687036E+03</pdfrwt>
<pdfrwt beam="2">  1       21 0.61375339E-01 0.46687036E+03</pdfrwt>
<totfact> 0.15917688E+03</totfact>
</mgrwt>
</event>
<event>
 4    1  0.4991790E-002  0.5275792E+03  0.7818608E-02  0.1006821E+00
         21   -1    0    0  503  502  0.00000000000E+00  0.00000000000E+00  0.24990460221E+03  0.24990460221E+03  0.00000000000E+00 0.  1.
         21   -1    0    0  501  503 -0.00000000000E+00 -0.00000000000E+00 -0.16018500804E+04  0.16018500804E+04  0.00000000000E+00 0.  1.
    9000005    1    1    2  501    0 -0.27367379453E+03  0.20842865767E+03 -0.11870442244E+04  0.12990049430E+04  0.40000000000E+03 0.  1.
   -9000005    1    1    2    0  502  0.27367379453E+03 -0.20842865767E+03 -0.16490125376E+03  0.55274973961E+03  0.40000000000E+03 0.  1.
<mgrwt>
<rscale>  2 0.52757924E+03</rscale>
<asrwt>0</asrwt>
<pdfrwt beam="1">  1       21 0.38446861E-01 0.52757924E+03</pdfrwt>
<pdfrwt beam="2">  1       21 0.24643848E+00 0.52757924E+03</pdfrwt>
<totfact> 0.35342102E+02</totfact>
</mgrwt>
</event>
<event>
 4    1  0.4991790E-002  0.5554663E+03  0.7818608E-02  0.1000237E+00
         21   -1    0    0  503  502  0.00000000000E+00  0.00000000000E+00  0.21248908113E+04  0.21248908113E+04  0.00000000000E+00 0. -1.
         21   -1    0    0  501  503 -0.00000000000E+00 -0.00000000000E+00 -0.22251188464E+03  0.22251188464E+03  0.00000000000E+00 0. -1.
    9000005    1    1    2  501    0  0.12285829058E+03  0.36530629819E+03  0.25937024812E+03  0.61303815270E+03  0.40000000000E+03 0. -1.
   -9000005    1    1    2    0  502 -0.12285829058E+03 -0.36530629819E+03  0.16430086786E+04  0.17343645433E+04  0.40000000000E+03 0. -1.
<mgrwt>
<rscale>  2 0.55546634E+03</rscale>
<asrwt>0</asrwt>
<pdfrwt beam="1">  1       21 0.32690626E+00 0.55546634E+03</pdfrwt>
<pdfrwt beam="2">  1       21 0.34232599E-01 0.55546634E+03</pdfrwt>
<totfact> 0.14274990E+02</totfact>
</mgrwt>
</event>
<event>
 4    1  0.4991790E-002  0.4453825E+03  0.7818608E-02  0.1029108E+00
         21   -1    0    0  503  502  0.00000000000E+00  0.00000000000E+00  0.10461832568E+04  0.10461832568E+04  0.00000000000E+00 0. -1.
         21   -1    0    0  501  503 -0.00000000000E+00 -0.00000000000E+00 -0.36041396235E+03  0.36041396235E+03  0.00000000000E+00 0. -1.
    9000005    1    1    2  501    0  0.46312156018E+02  0.19031743731E+03 -0.14127597297E+03  0.46725201260E+03  0.40000000000E+03 0. -1.
   -9000005    1    1    2    0  502 -0.46312156018E+02 -0.19031743731E+03  0.82704526744E+03  0.93934520659E+03  0.40000000000E+03 0. -1.
<mgrwt>
<rscale>  2 0.44538247E+03</rscale>
<asrwt>0</asrwt>
<pdfrwt beam="1">  1       21 0.16095127E+00 0.44538247E+03</pdfrwt>
<pdfrwt beam="2">  1       21 0.55448302E-01 0.44538247E+03</pdfrwt>
<totfact> 0.63563707E+02</totfact>
</mgrwt>
</event>
<event>
 4    1  0.4991790E-002  0.5106397E+03  0.7818608E-02  0.1011039E+00
         21   -1    0    0  503  502  0.00000000000E+00  0.00000000000E+00  0.40329810483E+03  0.40329810483E+03  0.00000000000E+00 0.  1.
         21   -1    0    0  501  503 -0.00000000000E+00 -0.00000000000E+00 -0.82277896270E+03  0.82277896270E+03  0.00000000000E+00 0.  1.
    9000005    1    1    2  501    0 -0.27326117672E+03 -0.16149681045E+03 -0.49345608170E+03  0.71010688988E+03  0.40000000000E+03 0.  1.
   -9000005    1    1    2    0  502  0.27326117672E+03  0.16149681045E+03  0.73975223837E+02  0.51597017765E+03  0.40000000000E+03 0.  1.
<mgrwt>
<rscale>  2 0.51063969E+03</rscale>
<asrwt>0</asrwt>
<pdfrwt beam="1">  1       21 0.62045862E-01 0.51063969E+03</pdfrwt>
<pdfrwt beam="2">  1       21 0.12658138E+00 0.51063969E+03</pdfrwt>
<totfact> 0.92141030E+02</totfact>
</mgrwt>
</event>
<event>
 4    1  0.4991790E-002  0.4011533E+03  0.7818608E-02  0.1043381E+00
         21   -1    0    0  501  502  0.00000000000E+00  0.00000000000E+00  0.64872926992E+02  0.64872926992E+02  0.00000000000E+00 0.  1.
         21   -1    0    0  502  503 -0.00000000000E+00 -0.00000000000E+00 -0.25488328030E+04  0.25488328030E+04  0.00000000000E+00 0.  1.
    9000005    1    1    2  501    0 -0.16121279242E+02 -0.25770177665E+02 -0.14557968628E+04  0.15100557948E+04  0.40000000000E+03 0. -1.
   -9000005    1    1    2    0  503  0.16121279242E+02  0.25770177665E+02 -0.10281630132E+04  0.11036499352E+04  0.40000000000E+03 0. -1.
<mgrwt>
<rscale>  2 0.40115333E+03</rscale>
<asrwt>0</asrwt>
<pdfrwt beam="1">  1       21 0.99804499E-02 0.40115333E+03</pdfrwt>
<pdfrwt beam="2">  1       21 0.39212814E+00 0.40115333E+03</pdfrwt>
<totfact> 0.63922149E+02</totfact>
</mgrwt>
</event>
<event>
 4    1  0.4991790E-002  0.4911640E+03  0.7818608E-02  0.1016111E+00
         21   -1    0    0  501  502  0.00000000000E+00  0.00000000000E+00  0.17206088386E+04  0.17206088386E+04  0.00000000000E+00 0. -1.
         21   -1    0    0  502  503 -0.00000000000E+00 -0.00000000000E+00 -0.14027641179E+03  0.14027641179E+03  0.00000000000E+00 0. -1.
    9000005    1    1    2  501    0 -0.17104784470E+03  0.22800159392E+03  0.81080377155E+03  0.94796880116E+03  0.40000000000E+03 0. -1.
   -9000005    1    1    2    0  503  0.17104784470E+03 -0.22800159392E+03  0.76952865525E+03  0.91291644922E+03  0.40000000000E+03 0. -1.
<mgrwt>
<rscale>  2 0.49116402E+03</rscale>
<asrwt>0</asrwt>
<pdfrwt beam="1">  1       21 0.26470904E+00 0.49116402E+03</pdfrwt>
<pdfrwt beam="2">  1       21 0.21580988E-01 0.49116402E+03</pdfrwt>
<totfact> 0.87247259E+02</totfact>
</mgrwt>
</event>
<event>
 4    1  0.4991790E-002  0.6413684E+03  0.7818608E-02  0.9823112E-01
         21   -1    0    0  501  502  0.00000000000E+00  0.00000000000E+00  0.11647969964E+04  0.11647969964E+04  0.00000000000E+00 0. -1.
         21   -1    0    0  502  503 -0.00000000000E+00 -0.00000000000E+00 -0.42503267597E+03  0.42503267597E+03  0.00000000000E+00 0. -1.
    9000005    1    1    2  501    0  0.27601469421E+03 -0.41853228719E+03  0.69677675820E+03  0.94702230048E+03  0.40000000000E+03 0. -1.
   -9000005    1    1    2    0  503 -0.27601469421E+03  0.41853228719E+03  0.42987562223E+02  0.64280737188E+03  0.40000000000E+03 0. -1.
<mgrwt>
<rscale>  2 0.64136837E+03</rscale>
<asrwt>0</asrwt>
<pdfrwt beam="1">  1       21 0.17919954E+00 0.64136837E+03</pdfrwt>
<pdfrwt beam="2">  1       21 0.65389643E-01 0.64136837E+03</pdfrwt>
<totfact> 0.30066122E+02</totfact>
</mgrwt>
</event>
<event>
 4    1  0.4991790E-002  0.5663195E+03  0.7818608E-02  0.9977856E-01
         21   -1    0    0  503  502  0.00000000000E+00  0.00000000000E+00  0.46550007767E+03  0.46550007767E+03  0.00000000000E+00 0. -1.
         21   -1    0    0  501  503 -0.00000000000E+00 -0.00000000000E+00 -0.72755059236E+03  0.72755059236E+03  0.00000000000E+00 0. -1.
    9000005    1    1    2  501    0 -0.43663370632E+02  0.39851135852E+03 -0.26838361383E+03  0.62669574514E+03  0.40000000000E+03 0. -1.
   -9000005    1    1    2    0  502  0.43663370632E+02 -0.39851135852E+03  0.63330991449E+01  0.56635492489E+03  0.40000000000E+03 0. -1.
<mgrwt>
<rscale>  2 0.56631951E+03</rscale>
<asrwt>0</asrwt>
<pdfrwt beam="1">  1       21 0.71615397E-01 0.56631951E+03</pdfrwt>
<pdfrwt beam="2">  1       21 0.11193086E+00 0.56631951E+03</pdfrwt>
<totfact> 0.89626904E+02</totfact>
</mgrwt>
</event>
<event>
 4    1  0.4991790E-002  0.4098281E+03  0.7818608E-02  0.1040429E+00
         21   -1    0    0  503  502  0.00000000000E+00  0.00000000000E+00  0.13639261648E+03  0.13639261648E+03  0.00000000000E+00 0.  1.
         21   -1    0    0  501  503 -0.00000000000E+00 -0.00000000000E+00 -0.12741566170E+04  0.12741566170E+04  0.00000000000E+00 0.  1.
    9000005    1    1    2  501    0 -0.71152684414E+02 -0.53817973414E+02 -0.43974389838E+03  0.60111045152E+03  0.40000000000E+03 0.  1.
   -9000005    1    1    2    0  502  0.71152684414E+02  0.53817973414E+02 -0.69802010218E+03  0.80943878201E+03  0.40000000000E+03 0.  1.
<mgrwt>
<rscale>  2 0.40982811E+03</rscale>
<asrwt>0</asrwt>
<pdfrwt beam="1">  1       21 0.20983480E-01 0.40982811E+03</pdfrwt>
<pdfrwt beam="2">  1       21 0.19602409E+00 0.40982811E+03</pdfrwt>
<totfact> 0.26004393E+03</totfact>
</mgrwt>
</event>
<event>
 4    1  0.4991790E-002  0.4089111E+03  0.7818608E-02  0.1040737E+00
         21   -1    0    0  503  502  0.00000000000E+00  0.00000000000E+00  0.34070048440E+03  0.34070048440E+03  0.00000000000E+00 0.  1.
         21   -1    0    0  501  503 -0.00000000000E+00 -0.00000000000E+00 -0.97011929977E+03  0.97011929977E+03  0.00000000000E+00 0.  1.
    9000005    1    1    2  501    0  0.12687651029E+02 -0.83948331293E+02 -0.77541432621E+03  0.87662744430E+03  0.40000000000E+03 0.  1.
   -9000005    1    1    2    0  502 -0.12687651029E+02  0.83948331293E+02  0.14599551084E+03  0.43419233987E+03  0.40000000000E+03 0.  1.
<mgrwt>
<rscale>  2 0.40891111E+03</rscale>
<asrwt>0</asrwt>
<pdfrwt beam="1">  1       21 0.52415459E-01 0.40891111E+03</pdfrwt>
<pdfrwt beam="2">  1       21 0.14924912E+00 0.40891111E+03</pdfrwt>
<totfact> 0.89769360E+02</totfact>
</mgrwt>
</event>
<event>
 4    1  0.4991790E-002  0.4030522E+03  0.7818608E-02  0.1042728E+00
         21   -1    0    0  503  502  0.00000000000E+00  0.00000000000E+00  0.62517756703E+03  0.62517756703E+03  0.00000000000E+00 0. -1.
         21   -1    0    0  501  503 -0.00000000000E+00 -0.00000000000E+00 -0.31564733788E+03  0.31564733788E+03  0.00000000000E+00 0. -1.
    9000005    1    1    2  501    0 -0.11809874985E+02 -0.48078722403E+02 -0.43019685516E+02  0.40534149804E+03  0.40000000000E+03 0. -1.
   -9000005    1    1    2    0  502  0.11809874985E+02  0.48078722403E+02  0.35254991467E+03  0.53548340687E+03  0.40000000000E+03 0. -1.
<mgrwt>
<rscale>  2 0.40305215E+03</rscale>
<asrwt>0</asrwt>
<pdfrwt beam="1">  1       21 0.96181164E-01 0.40305215E+03</pdfrwt>
<pdfrwt beam="2">  1       21 0.48561129E-01 0.40305215E+03</pdfrwt>
<totfact> 0.32290188E+03</totfact>
</mgrwt>
</event>
<event>
 4    1  0.4991790E-002  0.5019195E+03  0.7818608E-02  0.1013279E+00
         21   -1    0    0  501  502  0.00000000000E+00  0.00000000000E+00  0.93179661786E+03  0.93179661786E+03  0.00000000000E+00 0. -1.
         21   -1    0    0  502  503 -0.00000000000E+00 -0.00000000000E+00 -0.28309418527E+03  0.28309418527E+03  0.00000000000E+00 0.  1.
    9000005    1    1    2  501    0 -0.29845498435E+03  0.53364754233E+02  0.19553248486E+03  0.53866142178E+03  0.40000000000E+03 0.  1.
   -9000005    1    1    2    0  503  0.29845498435E+03 -0.53364754233E+02  0.45316994773E+03  0.67622938135E+03  0.40000000000E+03 0. -1.
<mgrwt>
<rscale>  2 0.50191949E+03</rscale>
<asrwt>0</asrwt>
<pdfrwt beam="1">  1       21 0.14335332E+00 0.50191949E+03</pdfrwt>
<pdfrwt beam="2">  1       21 0.43552952E-01 0.50191949E+03</pdfrwt>
<totfact> 0.14238447E+03</totfact>
</mgrwt>
</event>
<event>
 4    1  0.4991790E-002  0.5583893E+03  0.7818608E-02  0.9995706E-01
         21   -1    0    0  501  502  0.00000000000E+00  0.00000000000E+00  0.16055056392E+03  0.16055056392E+03  0.00000000000E+00 0. -1.
         21   -1    0    0  502  503 -0.00000000000E+00 -0.00000000000E+00 -0.25707289506E+04  0.25707289506E+04  0.00000000000E+00 0.  1.
    9000005    1    1    2  501    0 -0.38959456310E+03 -0.38381052668E+01 -0.52975399363E+03  0.76969990803E+03  0.40000000000E+03 0. -1.
   -9000005    1    1    2    0  503  0.38959456310E+03  0.38381052668E+01 -0.18804243931E+04  0.19615796065E+04  0.40000000000E+03 0.  1.
<mgrwt>
<rscale>  2 0.55838934E+03</rscale>
<asrwt>0</asrwt>
<pdfrwt beam="1">  1       21 0.24700086E-01 0.55838934E+03</pdfrwt>
<pdfrwt beam="2">  1       21 0.39549677E+00 0.55838934E+03</pdfrwt>
<totfact> 0.10166718E+02</totfact>
</mgrwt>
</event>
<event>
 4    1  0.4991790E-002  0.4517676E+03  0.7818608E-02  0.1027196E+00
         21   -1    0    0  501  502  0.00000000000E+00  0.00000000000E+00  0.43199140033E+03  0.43199140033E+03  0.00000000000E+00 0.  1.
         21   -1    0    0  502  503 -0.00000000000E+00 -0.00000000000E+00 -0.14439000637E+04  0.14439000637E+04  0.00000000000E+00 0. -1.
    9000005    1    1    2  501    0  0.14180297852E+03  0.15487361828E+03  0.26338794605E+03  0.52294084988E+03  0.40000000000E+03 0.  1.
   -9000005    1    1    2    0  503 -0.14180297852E+03 -0.15487361828E+03 -0.12752966094E+04  0.13529506142E+04  0.40000000000E+03 0. -1.
<mgrwt>
<rscale>  2 0.45176755E+03</rscale>
<asrwt>0</asrwt>
<pdfrwt beam="1">  1       21 0.66460217E-01 0.45176755E+03</pdfrwt>
<pdfrwt beam="2">  1       21 0.22213847E+00 0.45176755E+03</pdfrwt>
<totfact> 0.16194923E+02</totfact>
</mgrwt>
</event>
<event>
 4    1  0.4991790E-002  0.5018587E+03  0.7818608E-02  0.1013295E+00
         21   -1    0    0  501  502  0.00000000000E+00  0.00000000000E+00  0.31779517502E+03  0.31779517502E+03  0.00000000000E+00 0.  1.
         21   -1    0    0  502  503 -0.00000000000E+00 -0.00000000000E+00 -0.11988232382E+04  0.11988232382E+04  0.00000000000E+00 0. -1.
    9000005    1    1    2  501    0  0.29773298115E+03 -0.56720671681E+02  0.94319381051E+00  0.50185959419E+03  0.40000000000E+03 0.  1.
   -9000005    1    1    2    0  503 -0.29773298115E+03  0.56720671681E+02 -0.88197125699E+03  0.10147588190E+04  0.40000000000E+03 0.  1.
<mgrwt>
<rscale>  2 0.50185871E+03</rscale>
<asrwt>0</asrwt>
<pdfrwt beam="1">  1       21 0.48891565E-01 0.50185871E+03</pdfrwt>
<pdfrwt beam="2">  1       21 0.18443435E+00 0.50185871E+03</pdfrwt>
<totfact> 0.54885100E+02</totfact>
</mgrwt>
</event>
<event>
 4    1  0.4991790E-002  0.4495930E+03  0.7818608E-02  0.1027843E+00
         21   -1    0    0  503  502  0.00000000000E+00  0.00000000000E+00  0.59494843866E+03  0.59494843866E+03  0.00000000000E+00 0. -1.
         21   -1    0    0  501  503 -0.00000000000E+00 -0.00000000000E+00 -0.43499215745E+03  0.43499215745E+03  0.00000000000E+00 0.  1.
    9000005    1    1    2  501    0  0.12163610543E+03 -0.16534373286E+03 -0.16098769165E+03  0.47754678200E+03  0.40000000000E+03 0.  1.
   -9000005    1    1    2    0  502 -0.12163610543E+03  0.16534373286E+03  0.32094397287E+03  0.55239381411E+03  0.40000000000E+03 0. -1.
<mgrwt>
<rscale>  2 0.44959303E+03</rscale>
<asrwt>0</asrwt>
<pdfrwt beam="1">  1       21 0.91530529E-01 0.44959303E+03</pdfrwt>
<pdfrwt beam="2">  1       21 0.66921870E-01 0.44959303E+03</pdfrwt>
<totfact> 0.17792741E+03</totfact>
</mgrwt>
</event>
<event>
 4    1  0.4991790E-002  0.6129684E+03  0.7818608E-02  0.9878860E-01
         21   -1    0    0  503  502  0.00000000000E+00  0.00000000000E+00  0.33568151879E+03  0.33568151879E+03  0.00000000000E+00 0. -1.
         21   -1    0    0  501  503 -0.00000000000E+00 -0.00000000000E+00 -0.12749873417E+04  0.12749873417E+04  0.00000000000E+00 0. -1.
    9000005    1    1    2  501    0 -0.15342682467E+02 -0.46421424728E+03 -0.75106445969E+03  0.96944731053E+03  0.40000000000E+03 0. -1.
   -9000005    1    1    2    0  502  0.15342682467E+02  0.46421424728E+03 -0.18824136318E+03  0.64122154993E+03  0.40000000000E+03 0. -1.
<mgrwt>
<rscale>  2 0.61296840E+03</rscale>
<asrwt>0</asrwt>
<pdfrwt beam="1">  1       21 0.51643312E-01 0.61296840E+03</pdfrwt>
<pdfrwt beam="2">  1       21 0.19615189E+00 0.61296840E+03</pdfrwt>
<totfact> 0.38821141E+02</totfact>
</mgrwt>
</event>
<event>
 4    1  0.4991790E-002  0.4191263E+03  0.7818608E-02  0.1037351E+00
         21   -1    0    0  501  502  0.00000000000E+00  0.00000000000E+00  0.59730813636E+03  0.59730813636E+03  0.00000000000E+00 0.  1.
         21   -1    0    0  502  503 -0.00000000000E+00 -0.00000000000E+00 -0.41072052872E+03  0.41072052872E+03  0.00000000000E+00 0.  1.
    9000005    1    1    2  501    0 -0.70214562075E+02 -0.10361834441E+03  0.36186645621E+03  0.55372753061E+03  0.40000000000E+03 0.  1.
   -9000005    1    1    2    0  503  0.70214562075E+02  0.10361834441E+03 -0.17527884856E+03  0.45430113447E+03  0.40000000000E+03 0.  1.
<mgrwt>
<rscale>  2 0.41912629E+03</rscale>
<asrwt>0</asrwt>
<pdfrwt beam="1">  1       21 0.91893560E-01 0.41912629E+03</pdfrwt>
<pdfrwt beam="2">  1       21 0.63187773E-01 0.41912629E+03</pdfrwt>
<totfact> 0.20263429E+03</totfact>
</mgrwt>
</event>
<event>
 4    1  0.4991790E-002  0.4884288E+03  0.7818608E-02  0.1016844E+00
         21   -1    0    0  501  502  0.00000000000E+00  0.00000000000E+00  0.35108391037E+03  0.35108391037E+03  0.00000000000E+00 0.  1.
         21   -1    0    0  502  503 -0.00000000000E+00 -0.00000000000E+00 -0.75755042250E+03  0.75755042250E+03  0.00000000000E+00 0. -1.
    9000005    1    1    2  501    0 -0.62571847918E+02  0.27321679818E+03 -0.25310634911E+02  0.48908412691E+03  0.40000000000E+03 0.  1.
   -9000005    1    1    2    0  503  0.62571847918E+02 -0.27321679818E+03 -0.38115587722E+03  0.61955020596E+03  0.40000000000E+03 0.  1.
<mgrwt>
<rscale>  2 0.48842876E+03</rscale>
<asrwt>0</asrwt>
<pdfrwt beam="1">  1       21 0.54012909E-01 0.48842876E+03</pdfrwt>
<pdfrwt beam="2">  1       21 0.11654622E+00 0.48842876E+03</pdfrwt>
<totfact> 0.15530453E+03</totfact>
</mgrwt>
</event>
<event>
 4    1  0.4991790E-002  0.6363559E+03  0.7818608E-02  0.9832724E-01
         21   -1    0    0  501  502  0.00000000000E+00  0.00000000000E+00  0.35969455454E+03  0.35969455454E+03  0.00000000000E+00 0.  1.
         21   -1    0    0  502  503 -0.00000000000E+00 -0.00000000000E+00 -0.12441857705E+04  0.12441857705E+04  0.00000000000E+00 0. -1.
    9000005    1    1    2  501    0  0.40884135516E+03 -0.27892218062E+03 -0.19488809980E+03  0.66553002034E+03  0.40000000000E+03 0.  1.
   -9000005    1    1    2    0  503 -0.40884135516E+03  0.27892218062E+03 -0.68960311619E+03  0.93835030474E+03  0.40000000000E+03 0. -1.
<mgrwt>
<rscale>  2 0.63635590E+03</rscale>
<asrwt>0</asrwt>
<pdfrwt beam="1">  1       21 0.55337623E-01 0.63635590E+03</pdfrwt>
<pdfrwt beam="2">  1       21 0.19141320E+00 0.63635590E+03</pdfrwt>
<totfact> 0.35739847E+02</totfact>
</mgrwt>
</event>
<event>
 4    1  0.4991790E-002  0.6857438E+03  0.7818608E-02  0.9741928E-01
         21   -1    0    0  503  502  0.00000000000E+00  0.00000000000E+00  0.39422585989E+03  0.39422585989E+03  0.00000000000E+00 0. -1.
         21   -1    0    0  501  503 -0.00000000000E+00 -0.00000000000E+00 -0.11940280806E+04  0.11940280806E+04  0.00000000000E+00 0. -1.
    9000005    1    1    2  501    0 -0.52890885578E+03 -0.17464227337E+03 -0.37474786637E+03  0.78146046907E+03  0.40000000000E+03 0. -1.
   -9000005    1    1    2    0  502  0.52890885578E+03  0.17464227337E+03 -0.42505435434E+03  0.80679347142E+03  0.40000000000E+03 0. -1.
<mgrwt>
<rscale>  2 0.68574376E+03</rscale>
<asrwt>0</asrwt>
<pdfrwt beam="1">  1       21 0.60650133E-01 0.68574376E+03</pdfrwt>
<pdfrwt beam="2">  1       21 0.18369663E+00 0.68574376E+03</pdfrwt>
<totfact> 0.32549438E+02</totfact>
</mgrwt>
</event>
<event>
 4    1  0.4991790E-002  0.4365627E+03  0.7818608E-02  0.1031807E+00
         21   -1    0    0  503  502  0.00000000000E+00  0.00000000000E+00  0.67292761315E+03  0.67292761315E+03  0.00000000000E+00 0. -1.
         21   -1    0    0  501  503 -0.00000000000E+00 -0.00000000000E+00 -0.12772250494E+04  0.12772250494E+04  0.00000000000E+00 0. -1.
    9000005    1    1    2  501    0  0.16969914628E+03  0.42298811935E+02 -0.11623479614E+04  0.12416278723E+04  0.40000000000E+03 0. -1.
   -9000005    1    1    2    0  502 -0.16969914628E+03 -0.42298811935E+02  0.55805052520E+03  0.70852479027E+03  0.40000000000E+03 0. -1.
<mgrwt>
<rscale>  2 0.43656270E+03</rscale>
<asrwt>0</asrwt>
<pdfrwt beam="1">  1       21 0.10352733E+00 0.43656270E+03</pdfrwt>
<pdfrwt beam="2">  1       21 0.19649616E+00 0.43656270E+03</pdfrwt>
<totfact> 0.85505259E+01</totfact>
</mgrwt>
</event>
<event>
 4    1  0.4991790E-002  0.5396402E+03  0.7818608E-02  0.1003921E+00
         21   -1    0    0  501  502  0.00000000000E+00  0.00000000000E+00  0.39302125508E+03  0.39302125508E+03  0.00000000000E+00 0.  1.
         21   -1    0    0  502  503 -0.00000000000E+00 -0.00000000000E+00 -0.10912519693E+04  0.10912519693E+04  0.00000000000E+00 0.  1.
    9000005    1    1    2  501    0  0.18611825662E+03 -0.31075953523E+03  0.71358354670E+02  0.54433767917E+03  0.40000000000E+03 0.  1.
   -9000005    1    1    2    0  503 -0.18611825662E+03  0.31075953523E+03 -0.76958906886E+03  0.93993554519E+03  0.40000000000E+03 0.  1.
<mgrwt>
<rscale>  2 0.53964015E+03</rscale>
<asrwt>0</asrwt>
<pdfrwt beam="1">  1       21 0.60464808E-01 0.53964015E+03</pdfrwt>
<pdfrwt beam="2">  1       21 0.16788492E+00 0.53964015E+03</pdfrwt>
<totfact> 0.44878128E+02</totfact>
</mgrwt>
</event>
<event>
 4    1  0.4991790E-002  0.4196548E+03  0.7818608E-02  0.1037179E+00
         21   -1    0    0  501  502  0.00000000000E+00  0.00000000000E+00  0.42908108435E+03  0.42908108435E+03  0.00000000000E+00 0. -1.
         21   -1    0    0  502  503 -0.00000000000E+00 -0.00000000000E+00 -0.41417606871E+03  0.41417606871E+03  0.00000000000E+00 0. -1.
    9000005    1    1    2  501    0 -0.81346089948E+02  0.97431796055E+02  0.47520912276E+02  0.42233680675E+03  0.40000000000E+03 0. -1.
   -9000005    1    1    2    0  503  0.81346089948E+02 -0.97431796055E+02 -0.32615896636E+02  0.42092034632E+03  0.40000000000E+03 0. -1.
<mgrwt>
<rscale>  2 0.41965479E+03</rscale>
<asrwt>0</asrwt>
<pdfrwt beam="1">  1       21 0.66012474E-01 0.41965479E+03</pdfrwt>
<pdfrwt beam="2">  1       21 0.63719395E-01 0.41965479E+03</pdfrwt>
<totfact> 0.42506069E+03</totfact>
</mgrwt>
</event>
<event>
 4    1  0.4991790E-002  0.4643185E+03  0.7818608E-02  0.1023536E+00
         21   -1    0    0  501  502  0.00000000000E+00  0.00000000000E+00  0.38157118026E+03  0.38157118026E+03  0.00000000000E+00 0. -1.
         21   -1    0    0  502  503 -0.00000000000E+00 -0.00000000000E+00 -0.75721518804E+03  0.75721518804E+03  0.00000000000E+00 0.  1.
    9000005    1    1    2  501    0 -0.15782231861E+03 -0.17516796506E+03  0.99047685090E+02  0.47476535695E+03  0.40000000000E+03 0. -1.
   -9000005    1    1    2    0  503  0.15782231861E+03  0.17516796506E+03 -0.47469169287E+03  0.66402101135E+03  0.40000000000E+03 0.  1.
<mgrwt>
<rscale>  2 0.46431853E+03</rscale>
<asrwt>0</asrwt>
<pdfrwt beam="1">  1       21 0.58703259E-01 0.46431853E+03</pdfrwt>
<pdfrwt beam="2">  1       21 0.11649464E+00 0.46431853E+03</pdfrwt>
<totfact> 0.13096092E+03</totfact>
</mgrwt>
</event>
<event>
 4    1  0.4991790E-002  0.4363676E+03  0.7818608E-02  0.1031867E+00
         21   -1    0    0  501  502  0.00000000000E+00  0.00000000000E+00  0.31241733994E+03  0.31241733994E+03  0.00000000000E+00 0. -1.
         21   -1    0    0  502  503 -0.00000000000E+00 -0.00000000000E+00 -0.79029388520E+03  0.79029388520E+03  0.00000000000E+00 0. -1.
    9000005    1    1    2  501    0 -0.13118130076E+03  0.11492655748E+03 -0.50265396652E+03  0.66564078702E+03  0.40000000000E+03 0. -1.
   -9000005    1    1    2    0  503  0.13118130076E+03 -0.11492655748E+03  0.24777421262E+02  0.43707043813E+03  0.40000000000E+03 0. -1.
<mgrwt>
<rscale>  2 0.43636756E+03</rscale>
<asrwt>0</asrwt>
<pdfrwt beam="1">  1       21 0.48064207E-01 0.43636756E+03</pdfrwt>
<pdfrwt beam="2">  1       21 0.12158367E+00 0.43636756E+03</pdfrwt>
<totfact> 0.18255657E+03</totfact>
</mgrwt>
</event>
<event>
 4    1  0.4991790E-002  0.4339989E+03  0.7818608E-02  0.1032604E+00
         21   -1    0    0  501  502  0.00000000000E+00  0.00000000000E+00  0.14989708667E+03  0.14989708667E+03  0.00000000000E+00 0. -1.
         21   -1    0    0  502  503 -0.00000000000E+00 -0.00000000000E+00 -0.27427919844E+04  0.27427919844E+04  0.00000000000E+00 0. -1.
    9000005    1    1    2  501    0 -0.12929152741E+03 -0.10788310919E+03 -0.23176951406E+03  0.49200830476E+03  0.40000000000E+03 0. -1.
   -9000005    1    1    2    0  503  0.12929152741E+03  0.10788310919E+03 -0.23611253837E+04  0.24006807663E+04  0.40000000000E+03 0. -1.
<mgrwt>
<rscale>  2 0.43399892E+03</rscale>
<asrwt>0</asrwt>
<pdfrwt beam="1">  1       21 0.23061092E-01 0.43399892E+03</pdfrwt>
<pdfrwt beam="2">  1       21 0.42196797E+00 0.43399892E+03</pdfrwt>
<totfact> 0.84669433E+01</totfact>
</mgrwt>
</event>
<event>
 4    1  0.4991790E-002  0.4154111E+03  0.7818608E-02  0.1038570E+00
         21   -1    0    0  503  502  0.00000000000E+00  0.00000000000E+00  0.15864434479E+04  0.15864434479E+04  0.00000000000E+00 0. -1.
         21   -1    0    0  501  503 -0.00000000000E+00 -0.00000000000E+00 -0.11468693147E+03  0.11468693147E+03  0.00000000000E+00 0.  1.
    9000005    1    1    2  501    0  0.10844676199E+03  0.28383984278E+02  0.92898302619E+03  0.10176324551E+04  0.40000000000E+03 0. -1.
   -9000005    1    1    2    0  502 -0.10844676199E+03 -0.28383984278E+02  0.54277349022E+03  0.68349792423E+03  0.40000000000E+03 0.  1.
<mgrwt>
<rscale>  2 0.41541106E+03</rscale>
<asrwt>0</asrwt>
<pdfrwt beam="1">  1       21 0.24406821E+00 0.41541106E+03</pdfrwt>
<pdfrwt beam="2">  1       21 0.17644144E-01 0.41541106E+03</pdfrwt>
<totfact> 0.17754958E+03</totfact>
</mgrwt>
</event>
<event>
 4    1  0.4991790E-002  0.4499899E+03  0.7818608E-02  0.1027725E+00
         21   -1    0    0  501  502  0.00000000000E+00  0.00000000000E+00  0.17077827295E+03  0.17077827295E+03  0.00000000000E+00 0. -1.
         21   -1    0    0  502  503 -0.00000000000E+00 -0.00000000000E+00 -0.13195755336E+04  0.13195755336E+04  0.00000000000E+00 0. -1.
    9000005    1    1    2  501    0 -0.18427711143E+03  0.92373295528E+02 -0.33704187797E+03  0.56221713513E+03  0.40000000000E+03 0. -1.
   -9000005    1    1    2    0  503  0.18427711143E+03 -0.92373295528E+02 -0.81175538263E+03  0.92813667137E+03  0.40000000000E+03 0. -1.
<mgrwt>
<rscale>  2 0.44998987E+03</rscale>
<asrwt>0</asrwt>
<pdfrwt beam="1">  1       21 0.26273580E-01 0.44998987E+03</pdfrwt>
<pdfrwt beam="2">  1       21 0.20301162E+00 0.44998987E+03</pdfrwt>
<totfact> 0.14861522E+03</totfact>
</mgrwt>
</event>
<event>
 4    1  0.4991790E-002  0.4346145E+03  0.7818608E-02  0.1032412E+00
         21   -1    0    0  503  502  0.00000000000E+00  0.00000000000E+00  0.84042950524E+03  0.84042950524E+03  0.00000000000E+00 0.  1.
         21   -1    0    0  501  503 -0.00000000000E+00 -0.00000000000E+00 -0.22528339762E+03  0.22528339762E+03  0.00000000000E+00 0. -1.
    9000005    1    1    2  501    0  0.93163333530E+02 -0.14216314354E+03  0.33340746493E+03  0.54776847642E+03  0.40000000000E+03 0.  1.
   -9000005    1    1    2    0  502 -0.93163333530E+02  0.14216314354E+03  0.28173864269E+03  0.51794442644E+03  0.40000000000E+03 0. -1.
<mgrwt>
<rscale>  2 0.43461450E+03</rscale>
<asrwt>0</asrwt>
<pdfrwt beam="1">  1       21 0.12929685E+00 0.43461450E+03</pdfrwt>
<pdfrwt beam="2">  1       21 0.34658985E-01 0.43461450E+03</pdfrwt>
<totfact> 0.30638857E+03</totfact>
</mgrwt>
</event>
<event>
 4    1  0.4991790E-002  0.5442865E+03  0.7818608E-02  0.1002825E+00
         21   -1    0    0  503  502  0.00000000000E+00  0.00000000000E+00  0.87508704995E+03  0.87508704995E+03  0.00000000000E+00 0. -1.
         21   -1    0    0  501  503 -0.00000000000E+00 -0.00000000000E+00 -0.33865231441E+03  0.33865231441E+03  0.00000000000E+00 0. -1.
    9000005    1    1    2  501    0 -0.47593912188E+02  0.36603637668E+03  0.25693400138E+03  0.60188278809E+03  0.40000000000E+03 0. -1.
   -9000005    1    1    2    0  502  0.47593912188E+02 -0.36603637668E+03  0.27950073417E+03  0.61185657628E+03  0.40000000000E+03 0. -1.
<mgrwt>
<rscale>  2 0.54428651E+03</rscale>
<asrwt>0</asrwt>
<pdfrwt beam="1">  1       21 0.13462878E+00 0.54428651E+03</pdfrwt>
<pdfrwt beam="2">  1       21 0.52100356E-01 0.54428651E+03</pdfrwt>
<totfact> 0.11344879E+03</totfact>
</mgrwt>
</event>
<event>
 4    1  0.4991790E-002  0.4059565E+03  0.7818608E-02  0.1041736E+00
         21   -1    0    0  501  502  0.00000000000E+00  0.00000000000E+00  0.47208153974E+03  0.47208153974E+03  0.00000000000E+00 0.  1.
         21   -1    0    0  502  503 -0.00000000000E+00 -0.00000000000E+00 -0.11017415622E+04  0.11017415622E+04  0.00000000000E+00 0.  1.
    9000005    1    1    2  501    0 -0.67778791691E+02  0.14377079647E+02  0.33557216553E+03  0.52669663309E+03  0.40000000000E+03 0.  1.
   -9000005    1    1    2    0  503  0.67778791691E+02 -0.14377079647E+02 -0.96523218795E+03  0.10471264688E+04  0.40000000000E+03 0.  1.
<mgrwt>
<rscale>  2 0.40595648E+03</rscale>
<asrwt>0</asrwt>
<pdfrwt beam="1">  1       21 0.72627931E-01 0.40595648E+03</pdfrwt>
<pdfrwt beam="2">  1       21 0.16949870E+00 0.40595648E+03</pdfrwt>
<totfact> 0.30870072E+02</totfact>
</mgrwt>
</event>
<event>
 4    1  0.4991790E-002  0.4261393E+03  0.7818608E-02  0.1035087E+00
         21   -1    0    0  501  502  0.00000000000E+00  0.00000000000E+00  0.37263767787E+03  0.37263767787E+03  0.00000000000E+00 0. -1.
         21   -1    0    0  502  503 -0.00000000000E+00 -0.00000000000E+00 -0.12779662185E+04  0.12779662185E+04  0.00000000000E+00 0. -1.
    9000005    1    1    2  501    0  0.10082233210E+03 -0.10690911627E+03  0.19648356428E+03  0.46925525338E+03  0.40000000000E+03 0. -1.
   -9000005    1    1    2    0  503 -0.10082233210E+03  0.10690911627E+03 -0.11018121049E+04  0.11813486430E+04  0.40000000000E+03 0. -1.
<mgrwt>
<rscale>  2 0.42613930E+03</rscale>
<asrwt>0</asrwt>
<pdfrwt beam="1">  1       21 0.57328874E-01 0.42613930E+03</pdfrwt>
<pdfrwt beam="2">  1       21 0.19661019E+00 0.42613930E+03</pdfrwt>
<totfact> 0.33378019E+02</totfact>
</mgrwt>
</event>
<event>
 4    1  0.4991790E-002  0.4581403E+03  0.7818608E-02  0.1025322E+00
         21   -1    0    0  503  502  0.00000000000E+00  0.00000000000E+00  0.13097428169E+04  0.13097428169E+04  0.00000000000E+00 0.  1.
         21   -1    0    0  501  503 -0.00000000000E+00 -0.00000000000E+00 -0.22541737264E+03  0.22541737264E+03  0.00000000000E+00 0.  1.
    9000005    1    1    2  501    0  0.22008171118E+03  0.38164643684E+02  0.12946762418E+03  0.47608230941E+03  0.40000000000E+03 0.  1.
   -9000005    1    1    2    0  502 -0.22008171118E+03 -0.38164643684E+02  0.95485782010E+03  0.10590778802E+04  0.40000000000E+03 0.  1.
<mgrwt>
<rscale>  2 0.45814026E+03</rscale>
<asrwt>0</asrwt>
<pdfrwt beam="1">  1       21 0.20149889E+00 0.45814026E+03</pdfrwt>
<pdfrwt beam="2">  1       21 0.34679597E-01 0.45814026E+03</pdfrwt>
<totfact> 0.87242400E+02</totfact>
</mgrwt>
</event>
<event>
 4    1  0.4991790E-002  0.4807247E+03  0.7818608E-02  0.1018936E+00
         21   -1    0    0  501  502  0.00000000000E+00  0.00000000000E+00  0.53552072384E+03  0.53552072384E+03  0.00000000000E+00 0.  1.
         21   -1    0    0  502  503 -0.00000000000E+00 -0.00000000000E+00 -0.55832135413E+03  0.55832135413E+03  0.00000000000E+00 0.  1.
    9000005    1    1    2  501    0 -0.50990002053E+02 -0.26171787319E+03  0.24922574591E+03  0.54148840974E+03  0.40000000000E+03 0.  1.
   -9000005    1    1    2    0  503  0.50990002053E+02  0.26171787319E+03 -0.27202637620E+03  0.55235366823E+03  0.40000000000E+03 0.  1.
<mgrwt>
<rscale>  2 0.48072469E+03</rscale>
<asrwt>0</asrwt>
<pdfrwt beam="1">  1       21 0.82387804E-01 0.48072469E+03</pdfrwt>
<pdfrwt beam="2">  1       21 0.85895593E-01 0.48072469E+03</pdfrwt>
<totfact> 0.12721011E+03</totfact>
</mgrwt>
</event>
<event>
 4    1  0.4991790E-002  0.4133275E+03  0.7818608E-02  0.1039260E+00
         21   -1    0    0  503  502  0.00000000000E+00  0.00000000000E+00  0.50068452141E+03  0.50068452141E+03  0.00000000000E+00 0. -1.
         21   -1    0    0  501  503 -0.00000000000E+00 -0.00000000000E+00 -0.74421782696E+03  0.74421782696E+03  0.00000000000E+00 0. -1.
    9000005    1    1    2  501    0 -0.85202520477E+01 -0.10376422966E+03 -0.57981452752E+03  0.71205652611E+03  0.40000000000E+03 0. -1.
   -9000005    1    1    2    0  502  0.85202520477E+01  0.10376422966E+03  0.33628122197E+03  0.53284582226E+03  0.40000000000E+03 0. -1.
<mgrwt>
<rscale>  2 0.41332749E+03</rscale>
<asrwt>0</asrwt>
<pdfrwt beam="1">  1       21 0.77028388E-01 0.41332749E+03</pdfrwt>
<pdfrwt beam="2">  1       21 0.11449505E+00 0.41332749E+03</pdfrwt>
<totfact> 0.76151611E+02</totfact>
</mgrwt>
</event>
<event>
 4    1  0.4991790E-002  0.4344996E+03  0.7818608E-02  0.1032448E+00
         21   -1    0    0  501  502  0.00000000000E+00  0.00000000000E+00  0.28491296420E+04  0.28491296420E+04  0.00000000000E+00 0. -1.
         21   -1    0    0  502  503 -0.00000000000E+00 -0.00000000000E+00 -0.14096997587E+03  0.14096997587E+03  0.00000000000E+00 0. -1.
    9000005    1    1    2  501    0  0.56949057234E+02  0.15983335658E+03  0.24424457871E+04  0.24807924782E+04  0.40000000000E+03 0. -1.
   -9000005    1    1    2    0  503 -0.56949057234E+02 -0.15983335658E+03  0.26571387901E+03  0.50930713964E+03  0.40000000000E+03 0. -1.
<mgrwt>
<rscale>  2 0.43449959E+03</rscale>
<asrwt>0</asrwt>
<pdfrwt beam="1">  1       21 0.43832759E+00 0.43449959E+03</pdfrwt>
<pdfrwt beam="2">  1       21 0.21687691E-01 0.43449959E+03</pdfrwt>
<totfact> 0.74228599E+01</totfact>
</mgrwt>
</event>
<event>
 4    1  0.4991790E-002  0.4224862E+03  0.7818608E-02  0.1036260E+00
         21   -1    0    0  503  502  0.00000000000E+00  0.00000000000E+00  0.19827474794E+04  0.19827474794E+04  0.00000000000E+00 0.  1.
         21   -1    0    0  501  503 -0.00000000000E+00 -0.00000000000E+00 -0.35166200950E+03  0.35166200950E+03  0.00000000000E+00 0.  1.
    9000005    1    1    2  501    0  0.74166821755E+02  0.11399060765E+03 -0.19123790160E+03  0.46375263998E+03  0.40000000000E+03 0.  1.
   -9000005    1    1    2    0  502 -0.74166821755E+02 -0.11399060765E+03  0.18223233715E+04  0.18706568489E+04  0.40000000000E+03 0.  1.
<mgrwt>
<rscale>  2 0.42248618E+03</rscale>
<asrwt>0</asrwt>
<pdfrwt beam="1">  1       21 0.30503807E+00 0.42248618E+03</pdfrwt>
<pdfrwt beam="2">  1       21 0.54101849E-01 0.42248618E+03</pdfrwt>
<totfact> 0.80698056E+01</totfact>
</mgrwt>
</event>
<event>
 4    1  0.4991790E-002  0.6022750E+03  0.7818608E-02  0.9900697E-01
         21   -1    0    0  501  502  0.00000000000E+00  0.00000000000E+00  0.52110521259E+03  0.52110521259E+03  0.00000000000E+00 0. -1.
         21   -1    0    0  502  503 -0.00000000000E+00 -0.00000000000E+00 -0.74550467472E+03  0.74550467472E+03  0.00000000000E+00 0.  1.
    9000005    1    1    2  501    0  0.43191366771E+03  0.12722312051E+03  0.50851469270E+02  0.60441791062E+03  0.40000000000E+03 0. -1.
   -9000005    1    1    2    0  503 -0.43191366771E+03 -0.12722312051E+03 -0.27525093140E+03  0.66219197668E+03  0.40000000000E+03 0. -1.
<mgrwt>
<rscale>  2 0.60227497E+03</rscale>
<asrwt>0</asrwt>
<pdfrwt beam="1">  1       21 0.80170033E-01 0.60227497E+03</pdfrwt>
<pdfrwt beam="2">  1       21 0.11469303E+00 0.60227497E+03</pdfrwt>
<totfact> 0.64276760E+02</totfact>
</mgrwt>
</event>
<event>
 4    1  0.4991790E-002  0.5777573E+03  0.7818608E-02  0.9952658E-01
         21   -1    0    0  503  502  0.00000000000E+00  0.00000000000E+00  0.10018123673E+04  0.10018123673E+04  0.00000000000E+00 0.  1.
         21   -1    0    0  501  503 -0.00000000000E+00 -0.00000000000E+00 -0.34181221728E+03  0.34181221728E+03  0.00000000000E+00 0.  1.
    9000005    1    1    2  501    0 -0.39989732543E+03  0.11783749834E+03  0.22336009677E+03  0.61942980210E+03  0.40000000000E+03 0.  1.
   -9000005    1    1    2    0  502  0.39989732543E+03 -0.11783749834E+03  0.43664005329E+03  0.72419478253E+03  0.40000000000E+03 0.  1.
<mgrwt>
<rscale>  2 0.57775734E+03</rscale>
<asrwt>0</asrwt>
<pdfrwt beam="1">  1       21 0.15412498E+00 0.57775734E+03</pdfrwt>
<pdfrwt beam="2">  1       21 0.52586495E-01 0.57775734E+03</pdfrwt>
<totfact> 0.76296517E+02</totfact>
</mgrwt>
</event>
<event>
 4    1  0.4991790E-002  0.4305951E+03  0.7818608E-02  0.1033672E+00
         21   -1    0    0  503  502  0.00000000000E+00  0.00000000000E+00  0.41956344965E+03  0.41956344965E+03  0.00000000000E+00 0. -1.
         21   -1    0    0  501  503 -0.00000000000E+00 -0.00000000000E+00 -0.49011848507E+03  0.49011848507E+03  0.00000000000E+00 0. -1.
    9000005    1    1    2  501    0  0.17436444260E+02 -0.15845538757E+03 -0.17791711968E+03  0.46590411129E+03  0.40000000000E+03 0. -1.
   -9000005    1    1    2    0  502 -0.17436444260E+02  0.15845538757E+03  0.10736208426E+03  0.44377782344E+03  0.40000000000E+03 0. -1.
<mgrwt>
<rscale>  2 0.43059510E+03</rscale>
<asrwt>0</asrwt>
<pdfrwt beam="1">  1       21 0.64548223E-01 0.43059510E+03</pdfrwt>
<pdfrwt beam="2">  1       21 0.75402843E-01 0.43059510E+03</pdfrwt>
<totfact> 0.30492400E+03</totfact>
</mgrwt>
</event>
<event>
 4    1  0.4991790E-002  0.4405963E+03  0.7818608E-02  0.1030564E+00
         21   -1    0    0  503  502  0.00000000000E+00  0.00000000000E+00  0.35004275454E+03  0.35004275454E+03  0.00000000000E+00 0.  1.
         21   -1    0    0  501  503 -0.00000000000E+00 -0.00000000000E+00 -0.58173741885E+03  0.58173741885E+03  0.00000000000E+00 0. -1.
    9000005    1    1    2  501    0 -0.18385690418E+03 -0.17936080603E+02 -0.15176925121E+02  0.44085757707E+03  0.40000000000E+03 0. -1.
   -9000005    1    1    2    0  502  0.18385690418E+03  0.17936080603E+02 -0.21651773919E+03  0.49092259633E+03  0.40000000000E+03 0. -1.
<mgrwt>
<rscale>  2 0.44059626E+03</rscale>
<asrwt>0</asrwt>
<pdfrwt beam="1">  1       21 0.53852731E-01 0.44059626E+03</pdfrwt>
<pdfrwt beam="2">  1       21 0.89498065E-01 0.44059626E+03</pdfrwt>
<totfact> 0.30311213E+03</totfact>
</mgrwt>
</event>
<event>
 4    1  0.4991790E-002  0.4027413E+03  0.7818608E-02  0.1042835E+00
         21   -1    0    0  501  502  0.00000000000E+00  0.00000000000E+00  0.97024131546E+03  0.97024131546E+03  0.00000000000E+00 0.  1.
         21   -1    0    0  502  503 -0.00000000000E+00 -0.00000000000E+00 -0.25936635275E+03  0.25936635275E+03  0.00000000000E+00 0.  1.
    9000005    1    1    2  501    0  0.53049428331E+01  0.46608894779E+02  0.72197950767E+03  0.82671333664E+03  0.40000000000E+03 0.  1.
   -9000005    1    1    2    0  503 -0.53049428331E+01 -0.46608894779E+02 -0.11104544964E+02  0.40289433157E+03  0.40000000000E+03 0.  1.
<mgrwt>
<rscale>  2 0.40274127E+03</rscale>
<asrwt>0</asrwt>
<pdfrwt beam="1">  1       21 0.14926789E+00 0.40274127E+03</pdfrwt>
<pdfrwt beam="2">  1       21 0.39902516E-01 0.40274127E+03</pdfrwt>
<totfact> 0.15940118E+03</totfact>
</mgrwt>
</event>
<event>
 4    1  0.4991790E-002  0.4045201E+03  0.7818608E-02  0.1042226E+00
         21   -1    0    0  503  502  0.00000000000E+00  0.00000000000E+00  0.96247010192E+03  0.96247010192E+03  0.00000000000E+00 0.  1.
         21   -1    0    0  501  503 -0.00000000000E+00 -0.00000000000E+00 -0.32839867460E+03  0.32839867460E+03  0.00000000000E+00 0.  1.
    9000005    1    1    2  501    0  0.52983637338E+02  0.28795988850E+02 -0.13119704106E+03  0.42526361046E+03  0.40000000000E+03 0.  1.
   -9000005    1    1    2    0  502 -0.52983637338E+02 -0.28795988850E+02  0.76526846838E+03  0.86560516605E+03  0.40000000000E+03 0.  1.
<mgrwt>
<rscale>  2 0.40452005E+03</rscale>
<asrwt>0</asrwt>
<pdfrwt beam="1">  1       21 0.14807232E+00 0.40452005E+03</pdfrwt>
<pdfrwt beam="2">  1       21 0.50522873E-01 0.40452005E+03</pdfrwt>
<totfact> 0.99400383E+02</totfact>
</mgrwt>
</event>
<event>
 4    1  0.4991790E-002  0.4035307E+03  0.7818608E-02  0.1042564E+00
         21   -1    0    0  503  502  0.00000000000E+00  0.00000000000E+00  0.16381998834E+04  0.16381998834E+04  0.00000000000E+00 0.  1.
         21   -1    0    0  501  503 -0.00000000000E+00 -0.00000000000E+00 -0.18153218958E+03  0.18153218958E+03  0.00000000000E+00 0.  1.
    9000005    1    1    2  501    0  0.50091018109E+02 -0.18107480791E+02  0.11632534344E+03  0.41996258938E+03  0.40000000000E+03 0.  1.
   -9000005    1    1    2    0  502 -0.50091018109E+02  0.18107480791E+02  0.13403423504E+04  0.13997694836E+04  0.40000000000E+03 0.  1.
<mgrwt>
<rscale>  2 0.40353066E+03</rscale>
<asrwt>0</asrwt>
<pdfrwt beam="1">  1       21 0.25203074E+00 0.40353066E+03</pdfrwt>
<pdfrwt beam="2">  1       21 0.27928030E-01 0.40353066E+03</pdfrwt>
<totfact> 0.66142207E+02</totfact>
</mgrwt>
</event>
<event>
 4    1  0.4991790E-002  0.4107410E+03  0.7818608E-02  0.1040123E+00
         21   -1    0    0  501  502  0.00000000000E+00  0.00000000000E+00  0.31409179099E+03  0.31409179099E+03  0.00000000000E+00 0.  1.
         21   -1    0    0  502  503 -0.00000000000E+00 -0.00000000000E+00 -0.54819844925E+03  0.54819844925E+03  0.00000000000E+00 0.  1.
    9000005    1    1    2  501    0 -0.81896992230E+02 -0.44733464748E+02 -0.55791045239E+02  0.41451277536E+03  0.40000000000E+03 0.  1.
   -9000005    1    1    2    0  503  0.81896992230E+02  0.44733464748E+02 -0.17831561302E+03  0.44777746488E+03  0.40000000000E+03 0.  1.
<mgrwt>
<rscale>  2 0.41074104E+03</rscale>
<asrwt>0</asrwt>
<pdfrwt beam="1">  1       21 0.48321815E-01 0.41074104E+03</pdfrwt>
<pdfrwt beam="2">  1       21 0.84338222E-01 0.41074104E+03</pdfrwt>
<totfact> 0.44377769E+03</totfact>
</mgrwt>
</event>
<event>
 4    1  0.4991790E-002  0.4593883E+03  0.7818608E-02  0.1024959E+00
         21   -1    0    0  503  502  0.00000000000E+00  0.00000000000E+00  0.52602465482E+03  0.52602465482E+03  0.00000000000E+00 0.  1.
         21   -1    0    0  501  503 -0.00000000000E+00 -0.00000000000E+00 -0.14324689767E+04  0.14324689767E+04  0.00000000000E+00 0.  1.
    9000005    1    1    2  501    0  0.20096033192E+03  0.10321103932E+03 -0.12840995494E+04  0.13637995551E+04  0.40000000000E+03 0.  1.
   -9000005    1    1    2    0  502 -0.20096033192E+03 -0.10321103932E+03  0.37765522754E+03  0.59469407642E+03  0.40000000000E+03 0.  1.
<mgrwt>
<rscale>  2 0.45938826E+03</rscale>
<asrwt>0</asrwt>
<pdfrwt beam="1">  1       21 0.80926870E-01 0.45938826E+03</pdfrwt>
<pdfrwt beam="2">  1       21 0.22037984E+00 0.45938826E+03</pdfrwt>
<totfact> 0.10576345E+02</totfact>
</mgrwt>
</event>
<event>
 4    1  0.4991790E-002  0.5905662E+03  0.7818608E-02  0.9925174E-01
         21   -1    0    0  503  502  0.00000000000E+00  0.00000000000E+00  0.21462891587E+03  0.21462891587E+03  0.00000000000E+00 0.  1.
         21   -1    0    0  501  503 -0.00000000000E+00 -0.00000000000E+00 -0.16568104869E+04  0.16568104869E+04  0.00000000000E+00 0. -1.
    9000005    1    1    2  501    0  0.24770788567E+03 -0.35694435259E+03 -0.59140079294E+03  0.83577710268E+03  0.40000000000E+03 0.  1.
   -9000005    1    1    2    0  502 -0.24770788567E+03  0.35694435259E+03 -0.85078077812E+03  0.10356623001E+04  0.40000000000E+03 0. -1.
<mgrwt>
<rscale>  2 0.59056623E+03</rscale>
<asrwt>0</asrwt>
<pdfrwt beam="1">  1       21 0.33019833E-01 0.59056623E+03</pdfrwt>
<pdfrwt beam="2">  1       21 0.25489392E+00 0.59056623E+03</pdfrwt>
<totfact> 0.41565144E+02</totfact>
</mgrwt>
</event>
<event>
 4    1  0.4991790E-002  0.5191066E+03  0.7818608E-02  0.1008909E+00
         21   -1    0    0  501  502  0.00000000000E+00  0.00000000000E+00  0.35954031209E+03  0.35954031209E+03  0.00000000000E+00 0.  1.
         21   -1    0    0  502  503 -0.00000000000E+00 -0.00000000000E+00 -0.12130195202E+04  0.12130195202E+04  0.00000000000E+00 0.  1.
    9000005    1    1    2  501    0 -0.25621469883E+03  0.20934584173E+03  0.59311872766E+02  0.52248402042E+03  0.40000000000E+03 0.  1.
   -9000005    1    1    2    0  503  0.25621469883E+03 -0.20934584173E+03 -0.91279108087E+03  0.10500758119E+04  0.40000000000E+03 0.  1.
<mgrwt>
<rscale>  2 0.51910659E+03</rscale>
<asrwt>0</asrwt>
<pdfrwt beam="1">  1       21 0.55313894E-01 0.51910659E+03</pdfrwt>
<pdfrwt beam="2">  1       21 0.18661839E+00 0.51910659E+03</pdfrwt>
<totfact> 0.40373268E+02</totfact>
</mgrwt>
</event>
<event>
 4    1  0.4991790E-002  0.4804470E+03  0.7818608E-02  0.1019012E+00
         21   -1    0    0  501  502  0.00000000000E+00  0.00000000000E+00  0.71429088689E+03  0.71429088689E+03  0.00000000000E+00 0.  1.
         21   -1    0    0  502  503 -0.00000000000E+00 -0.00000000000E+00 -0.72326857265E+03  0.72326857265E+03  0.00000000000E+00 0.  1.
    9000005    1    1    2  501    0 -0.85128588919E+02  0.25215562037E+03  0.53011939072E+03  0.71544105414E+03  0.40000000000E+03 0.  1.
   -9000005    1    1    2    0  503  0.85128588919E+02 -0.25215562037E+03 -0.53909707648E+03  0.72211840539E+03  0.40000000000E+03 0.  1.
<mgrwt>
<rscale>  2 0.48044701E+03</rscale>
<asrwt>0</asrwt>
<pdfrwt beam="1">  1       21 0.10989091E+00 0.48044701E+03</pdfrwt>
<pdfrwt beam="2">  1       21 0.11127209E+00 0.48044701E+03</pdfrwt>
<totfact> 0.33998153E+02</totfact>
</mgrwt>
</event>
<event>
 4    1  0.4991790E-002  0.5200394E+03  0.7818608E-02  0.1008677E+00
         21   -1    0    0  503  502  0.00000000000E+00  0.00000000000E+00  0.70006375428E+03  0.70006375428E+03  0.00000000000E+00 0. -1.
         21   -1    0    0  501  503 -0.00000000000E+00 -0.00000000000E+00 -0.41813738629E+03  0.41813738629E+03  0.00000000000E+00 0. -1.
    9000005    1    1    2  501    0 -0.31552171539E+03  0.10434091424E+03 -0.13291107018E+02  0.52020922021E+03  0.40000000000E+03 0. -1.
   -9000005    1    1    2    0  502  0.31552171539E+03 -0.10434091424E+03  0.29521747500E+03  0.59799192036E+03  0.40000000000E+03 0. -1.
<mgrwt>
<rscale>  2 0.52003940E+03</rscale>
<asrwt>0</asrwt>
<pdfrwt beam="1">  1       21 0.10770212E+00 0.52003940E+03</pdfrwt>
<pdfrwt beam="2">  1       21 0.64328829E-01 0.52003940E+03</pdfrwt>
<totfact> 0.12755353E+03</totfact>
</mgrwt>
</event>
<event>
 4    1  0.4991790E-002  0.4728096E+03  0.7818608E-02  0.1021130E+00
         21   -1    0    0  503  502  0.00000000000E+00  0.00000000000E+00  0.11888222601E+04  0.11888222601E+04  0.00000000000E+00 0.  1.
         21   -1    0    0  501  503 -0.00000000000E+00 -0.00000000000E+00 -0.20514114865E+03  0.20514114865E+03  0.00000000000E+00 0. -1.
    9000005    1    1    2  501    0 -0.14590383933E+03  0.20557468585E+03  0.29061723259E+03  0.55498401569E+03  0.40000000000E+03 0. -1.
   -9000005    1    1    2    0  502  0.14590383933E+03 -0.20557468585E+03  0.69306387881E+03  0.83897939302E+03  0.40000000000E+03 0.  1.
<mgrwt>
<rscale>  2 0.47280956E+03</rscale>
<asrwt>0</asrwt>
<pdfrwt beam="1">  1       21 0.18289573E+00 0.47280956E+03</pdfrwt>
<pdfrwt beam="2">  1       21 0.31560177E-01 0.47280956E+03</pdfrwt>
<totfact> 0.14030847E+03</totfact>
</mgrwt>
</event>
<event>
 4    1  0.4991790E-002  0.6585635E+03  0.7818608E-02  0.9790842E-01
         21   -1    0    0  501  502  0.00000000000E+00  0.00000000000E+00  0.40077723378E+03  0.40077723378E+03  0.00000000000E+00 0.  1.
         21   -1    0    0  502  503 -0.00000000000E+00 -0.00000000000E+00 -0.15470131358E+04  0.15470131358E+04  0.00000000000E+00 0. -1.
    9000005    1    1    2  501    0  0.44972054688E+03 -0.26731490174E+03 -0.39264268397E+02  0.65973290789E+03  0.40000000000E+03 0.  1.
   -9000005    1    1    2    0  503 -0.44972054688E+03  0.26731490174E+03 -0.11069716336E+04  0.12880574617E+04  0.40000000000E+03 0. -1.
<mgrwt>
<rscale>  2 0.65856346E+03</rscale>
<asrwt>0</asrwt>
<pdfrwt beam="1">  1       21 0.61658037E-01 0.65856346E+03</pdfrwt>
<pdfrwt beam="2">  1       21 0.23800202E+00 0.65856346E+03</pdfrwt>
<totfact> 0.13799239E+02</totfact>
</mgrwt>
</event>
<event>
 4    1  0.4991790E-002  0.4251867E+03  0.7818608E-02  0.1035391E+00
         21   -1    0    0  501  502  0.00000000000E+00  0.00000000000E+00  0.60855541840E+03  0.60855541840E+03  0.00000000000E+00 0.  1.
         21   -1    0    0  502  503 -0.00000000000E+00 -0.00000000000E+00 -0.32043824643E+03  0.32043824643E+03  0.00000000000E+00 0.  1.
    9000005    1    1    2  501    0  0.14392229650E+03  0.83730193906E+01  0.26949422502E+03  0.50339931685E+03  0.40000000000E+03 0.  1.
   -9000005    1    1    2    0  503 -0.14392229650E+03 -0.83730193906E+01  0.18622946954E+02  0.42559434799E+03  0.40000000000E+03 0.  1.
<mgrwt>
<rscale>  2 0.42518671E+03</rscale>
<asrwt>0</asrwt>
<pdfrwt beam="1">  1       21 0.93623910E-01 0.42518671E+03</pdfrwt>
<pdfrwt beam="2">  1       21 0.49298192E-01 0.42518671E+03</pdfrwt>
<totfact> 0.33075989E+03</totfact>
</mgrwt>
</event>
<event>
 4    1  0.4991790E-002  0.4595267E+03  0.7818608E-02  0.1024919E+00
         21   -1    0    0  501  502  0.00000000000E+00  0.00000000000E+00  0.19583631773E+03  0.19583631773E+03  0.00000000000E+00 0.  1.
         21   -1    0    0  502  503 -0.00000000000E+00 -0.00000000000E+00 -0.10844779017E+04  0.10844779017E+04  0.00000000000E+00 0.  1.
    9000005    1    1    2  501    0  0.19044215554E+03 -0.12205138969E+03 -0.39589355598E+03  0.60654469250E+03  0.40000000000E+03 0.  1.
   -9000005    1    1    2    0  503 -0.19044215554E+03  0.12205138969E+03 -0.49274802796E+03  0.67376952691E+03  0.40000000000E+03 0.  1.
<mgrwt>
<rscale>  2 0.45952667E+03</rscale>
<asrwt>0</asrwt>
<pdfrwt beam="1">  1       21 0.30128664E-01 0.45952667E+03</pdfrwt>
<pdfrwt beam="2">  1       21 0.16684275E+00 0.45952667E+03</pdfrwt>
<totfact> 0.20176209E+03</totfact>
</mgrwt>
</event>
<event>
 4    1  0.4991790E-002  0.4251429E+03  0.7818608E-02  0.1035405E+00
         21   -1    0    0  501  502  0.00000000000E+00  0.00000000000E+00  0.40380835753E+03  0.40380835753E+03  0.00000000000E+00 0. -1.
         21   -1    0    0  502  503 -0.00000000000E+00 -0.00000000000E+00 -0.47496615460E+03  0.47496615460E+03  0.00000000000E+00 0. -1.
    9000005    1    1    2  501    0  0.11112098626E+03  0.91643921226E+02 -0.14103857625E+03  0.44792673717E+03  0.40000000000E+03 0. -1.
   -9000005    1    1    2    0  503 -0.11112098626E+03 -0.91643921226E+02  0.69880779176E+02  0.43084777495E+03  0.40000000000E+03 0. -1.
<mgrwt>
<rscale>  2 0.42514290E+03</rscale>
<asrwt>0</asrwt>
<pdfrwt beam="1">  1       21 0.62124363E-01 0.42514290E+03</pdfrwt>
<pdfrwt beam="2">  1       21 0.73071716E-01 0.42514290E+03</pdfrwt>
<totfact> 0.35710932E+03</totfact>
</mgrwt>
</event>
<event>
 4    1  0.4991790E-002  0.4735836E+03  0.7818608E-02  0.1020914E+00
         21   -1    0    0  503  502  0.00000000000E+00  0.00000000000E+00  0.40493436681E+03  0.40493436681E+03  0.00000000000E+00 0.  1.
         21   -1    0    0  501  503 -0.00000000000E+00 -0.00000000000E+00 -0.12532063338E+04  0.12532063338E+04  0.00000000000E+00 0. -1.
    9000005    1    1    2  501    0  0.25350554856E+03 -0.40465063262E+01 -0.10434669603E+04  0.11459078211E+04  0.40000000000E+03 0. -1.
   -9000005    1    1    2    0  502 -0.25350554856E+03  0.40465063262E+01  0.19519499331E+03  0.51223287944E+03  0.40000000000E+03 0.  1.
<mgrwt>
<rscale>  2 0.47358361E+03</rscale>
<asrwt>0</asrwt>
<pdfrwt beam="1">  1       21 0.62297596E-01 0.47358361E+03</pdfrwt>
<pdfrwt beam="2">  1       21 0.19280097E+00 0.47358361E+03</pdfrwt>
<totfact> 0.28812896E+02</totfact>
</mgrwt>
</event>
<event>
 4    1  0.4991790E-002  0.4924252E+03  0.7818608E-02  0.1015775E+00
         21   -1    0    0  501  502  0.00000000000E+00  0.00000000000E+00  0.64619522628E+03  0.64619522628E+03  0.00000000000E+00 0. -1.
         21   -1    0    0  502  503 -0.00000000000E+00 -0.00000000000E+00 -0.42940157830E+03  0.42940157830E+03  0.00000000000E+00 0. -1.
    9000005    1    1    2  501    0 -0.10826202794E+03  0.26601110304E+03 -0.82591495713E+02  0.49930344361E+03  0.40000000000E+03 0. -1.
   -9000005    1    1    2    0  503  0.10826202794E+03 -0.26601110304E+03  0.29938514370E+03  0.57629336097E+03  0.40000000000E+03 0. -1.
<mgrwt>
<rscale>  2 0.49242520E+03</rscale>
<asrwt>0</asrwt>
<pdfrwt beam="1">  1       21 0.99414650E-01 0.49242520E+03</pdfrwt>
<pdfrwt beam="2">  1       21 0.66061781E-01 0.49242520E+03</pdfrwt>
<totfact> 0.14780238E+03</totfact>
</mgrwt>
</event>
<event>
 4    1  0.4991790E-002  0.8405931E+03  0.7818608E-02  0.9503050E-01
         21   -1    0    0  503  502  0.00000000000E+00  0.00000000000E+00  0.30047581402E+03  0.30047581402E+03  0.00000000000E+00 0. -1.
         21   -1    0    0  501  503 -0.00000000000E+00 -0.00000000000E+00 -0.26830512524E+04  0.26830512524E+04  0.00000000000E+00 0.  1.
    9000005    1    1    2  501    0 -0.35942095939E+03  0.64607529610E+03 -0.66696321765E+03  0.10730501610E+04  0.40000000000E+03 0.  1.
   -9000005    1    1    2    0  502  0.35942095939E+03 -0.64607529610E+03 -0.17156122207E+04  0.19104769054E+04  0.40000000000E+03 0. -1.
<mgrwt>
<rscale>  2 0.84059307E+03</rscale>
<asrwt>0</asrwt>
<pdfrwt beam="1">  1       21 0.46227046E-01 0.84059307E+03</pdfrwt>
<pdfrwt beam="2">  1       21 0.41277713E+00 0.84059307E+03</pdfrwt>
<totfact> 0.19254484E+01</totfact>
</mgrwt>
</event>
<event>
 4    1  0.4991790E-002  0.5628358E+03  0.7818608E-02  0.9985658E-01
         21   -1    0    0  501  502  0.00000000000E+00  0.00000000000E+00  0.10668477340E+04  0.10668477340E+04  0.00000000000E+00 0.  1.
         21   -1    0    0  502  503 -0.00000000000E+00 -0.00000000000E+00 -0.39816248067E+03  0.39816248067E+03  0.00000000000E+00 0.  1.
    9000005    1    1    2  501    0 -0.16194746645E+02 -0.39562850041E+03  0.70368591440E+03  0.90108714689E+03  0.40000000000E+03 0.  1.
   -9000005    1    1    2    0  503  0.16194746645E+02  0.39562850041E+03 -0.35000661019E+02  0.56392306783E+03  0.40000000000E+03 0.  1.
<mgrwt>
<rscale>  2 0.56283584E+03</rscale>
<asrwt>0</asrwt>
<pdfrwt beam="1">  1       21 0.16413042E+00 0.56283584E+03</pdfrwt>
<pdfrwt beam="2">  1       21 0.61255767E-01 0.56283584E+03</pdfrwt>
<totfact> 0.46094577E+02</totfact>
</mgrwt>
</event>
<event>
 4    1  0.4991790E-002  0.4914861E+03  0.7818608E-02  0.1016025E+00
         21   -1    0    0  503  502  0.00000000000E+00  0.00000000000E+00  0.49303662274E+03  0.49303662274E+03  0.00000000000E+00 0.  1.
         21   -1    0    0  501  503 -0.00000000000E+00 -0.00000000000E+00 -0.49151691561E+03  0.49151691561E+03  0.00000000000E+00 0.  1.
    9000005    1    1    2  501    0 -0.27688439248E+03 -0.69954703040E+02  0.28638423577E+02  0.49231980113E+03  0.40000000000E+03 0.  1.
   -9000005    1    1    2    0  502  0.27688439248E+03  0.69954703040E+02 -0.27118716454E+02  0.49223373722E+03  0.40000000000E+03 0.  1.
<mgrwt>
<rscale>  2 0.49148614E+03</rscale>
<asrwt>0</asrwt>
<pdfrwt beam="1">  1       21 0.75851788E-01 0.49148614E+03</pdfrwt>
<pdfrwt beam="2">  1       21 0.75617987E-01 0.49148614E+03</pdfrwt>
<totfact> 0.20608723E+03</totfact>
</mgrwt>
</event>
<event>
 4    1  0.4991790E-002  0.4165567E+03  0.7818608E-02  0.1038193E+00
         21   -1    0    0  503  502  0.00000000000E+00  0.00000000000E+00  0.89721306467E+03  0.89721306467E+03  0.00000000000E+00 0.  1.
         21   -1    0    0  501  503 -0.00000000000E+00 -0.00000000000E+00 -0.35702642731E+03  0.35702642731E+03  0.00000000000E+00 0.  1.
    9000005    1    1    2  501    0 -0.46600870579E+02  0.10652609954E+03 -0.15445714400E+03  0.44427070616E+03  0.40000000000E+03 0. -1.
   -9000005    1    1    2    0  502  0.46600870579E+02 -0.10652609954E+03  0.69464378135E+03  0.80996878582E+03  0.40000000000E+03 0. -1.
<mgrwt>
<rscale>  2 0.41655666E+03</rscale>
<asrwt>0</asrwt>
<pdfrwt beam="1">  1       21 0.13803278E+00 0.41655666E+03</pdfrwt>
<pdfrwt beam="2">  1       21 0.54927143E-01 0.41655666E+03</pdfrwt>
<totfact> 0.99692787E+02</totfact>
</mgrwt>
</event>
<event>
 4    1  0.4991790E-002  0.5670925E+03  0.7818608E-02  0.9976133E-01
         21   -1    0    0  503  502  0.00000000000E+00  0.00000000000E+00  0.59333629212E+03  0.59333629212E+03  0.00000000000E+00 0. -1.
         21   -1    0    0  501  503 -0.00000000000E+00 -0.00000000000E+00 -0.81739263805E+03  0.81739263805E+03  0.00000000000E+00 0.  1.
    9000005    1    1    2  501    0 -0.36855313535E+03 -0.16050699472E+03 -0.52144612895E+03  0.77038949521E+03  0.40000000000E+03 0.  1.
   -9000005    1    1    2    0  502  0.36855313535E+03  0.16050699472E+03  0.29738978301E+03  0.64033943497E+03  0.40000000000E+03 0. -1.
<mgrwt>
<rscale>  2 0.56709250E+03</rscale>
<asrwt>0</asrwt>
<pdfrwt beam="1">  1       21 0.91282506E-01 0.56709250E+03</pdfrwt>
<pdfrwt beam="2">  1       21 0.12575271E+00 0.56709250E+03</pdfrwt>
<totfact> 0.37848712E+02</totfact>
</mgrwt>
</event>
<event>
 4    1  0.4991790E-002  0.4150708E+03  0.7818608E-02  0.1038683E+00
         21   -1    0    0  503  502  0.00000000000E+00  0.00000000000E+00  0.46215008340E+03  0.46215008340E+03  0.00000000000E+00 0. -1.
         21   -1    0    0  501  503 -0.00000000000E+00 -0.00000000000E+00 -0.10594025423E+04  0.10594025423E+04  0.00000000000E+00 0. -1.
    9000005    1    1    2  501    0  0.10946173593E+03 -0.17374772768E+02 -0.91109386903E+03  0.10011871916E+04  0.40000000000E+03 0. -1.
   -9000005    1    1    2    0  502 -0.10946173593E+03  0.17374772768E+02  0.31384141012E+03  0.52036543416E+03  0.40000000000E+03 0. -1.
<mgrwt>
<rscale>  2 0.41507078E+03</rscale>
<asrwt>0</asrwt>
<pdfrwt beam="1">  1       21 0.71100014E-01 0.41507078E+03</pdfrwt>
<pdfrwt beam="2">  1       21 0.16298500E+00 0.41507078E+03</pdfrwt>
<totfact> 0.35986043E+02</totfact>
</mgrwt>
</event>
<event>
 4    1  0.4991790E-002  0.4120971E+03  0.7818608E-02  0.1039670E+00
         21   -1    0    0  503  502  0.00000000000E+00  0.00000000000E+00  0.37437059005E+03  0.37437059005E+03  0.00000000000E+00 0.  1.
         21   -1    0    0  501  503 -0.00000000000E+00 -0.00000000000E+00 -0.94058674378E+03  0.94058674378E+03  0.00000000000E+00 0.  1.
    9000005    1    1    2  501    0  0.16233784209E+02  0.97777887710E+02 -0.75618246044E+03  0.86118288682E+03  0.40000000000E+03 0.  1.
   -9000005    1    1    2    0  502 -0.16233784209E+02 -0.97777887710E+02  0.18996630671E+03  0.45377444701E+03  0.40000000000E+03 0.  1.
<mgrwt>
<rscale>  2 0.41209714E+03</rscale>
<asrwt>0</asrwt>
<pdfrwt beam="1">  1       21 0.57595476E-01 0.41209714E+03</pdfrwt>
<pdfrwt beam="2">  1       21 0.14470565E+00 0.41209714E+03</pdfrwt>
<totfact> 0.79510389E+02</totfact>
</mgrwt>
</event>
<event>
 4    1  0.4991790E-002  0.4914471E+03  0.7818608E-02  0.1016036E+00
         21   -1    0    0  503  502  0.00000000000E+00  0.00000000000E+00  0.13658874417E+04  0.13658874417E+04  0.00000000000E+00 0. -1.
         21   -1    0    0  501  503 -0.00000000000E+00 -0.00000000000E+00 -0.31559304001E+03  0.31559304001E+03  0.00000000000E+00 0. -1.
    9000005    1    1    2  501    0 -0.28550948357E+03 -0.21454471685E+01 -0.32354294919E+02  0.49251098318E+03  0.40000000000E+03 0. -1.
   -9000005    1    1    2    0  502  0.28550948357E+03  0.21454471685E+01  0.10826486966E+04  0.11889694985E+04  0.40000000000E+03 0. -1.
<mgrwt>
<rscale>  2 0.49144712E+03</rscale>
<asrwt>0</asrwt>
<pdfrwt beam="1">  1       21 0.21013653E+00 0.49144712E+03</pdfrwt>
<pdfrwt beam="2">  1       21 0.48552776E-01 0.49144712E+03</pdfrwt>
<totfact> 0.37535985E+02</totfact>
</mgrwt>
</event>
<event>
 4    1  0.4991790E-002  0.4164082E+03  0.7818608E-02  0.1038242E+00
         21   -1    0    0  501  502  0.00000000000E+00  0.00000000000E+00  0.28564614275E+03  0.28564614275E+03  0.00000000000E+00 0.  1.
         21   -1    0    0  502  503 -0.00000000000E+00 -0.00000000000E+00 -0.16268383669E+04  0.16268383669E+04  0.00000000000E+00 0.  1.
    9000005    1    1    2  501    0 -0.99456454251E+02  0.59196126424E+02  0.86506981249E+02  0.42529898363E+03  0.40000000000E+03 0.  1.
   -9000005    1    1    2    0  503  0.99456454251E+02 -0.59196126424E+02 -0.14276992055E+04  0.14871855261E+04  0.40000000000E+03 0.  1.
<mgrwt>
<rscale>  2 0.41640817E+03</rscale>
<asrwt>0</asrwt>
<pdfrwt beam="1">  1       21 0.43945561E-01 0.41640817E+03</pdfrwt>
<pdfrwt beam="2">  1       21 0.25028282E+00 0.41640817E+03</pdfrwt>
<totfact> 0.26900272E+02</totfact>
</mgrwt>
</event>
<event>
 4    1  0.4991790E-002  0.4213512E+03  0.7818608E-02  0.1036627E+00
         21   -1    0    0  503  502  0.00000000000E+00  0.00000000000E+00  0.46868048536E+03  0.46868048536E+03  0.00000000000E+00 0.  1.
         21   -1    0    0  501  503 -0.00000000000E+00 -0.00000000000E+00 -0.42088650361E+03  0.42088650361E+03  0.00000000000E+00 0. -1.
    9000005    1    1    2  501    0 -0.11180064979E+02  0.13195397953E+03  0.16454387482E+03  0.45234006379E+03  0.40000000000E+03 0.  1.
   -9000005    1    1    2    0  502  0.11180064979E+02 -0.13195397953E+03 -0.11674989308E+03  0.43722692518E+03  0.40000000000E+03 0. -1.
<mgrwt>
<rscale>  2 0.42135122E+03</rscale>
<asrwt>0</asrwt>
<pdfrwt beam="1">  1       21 0.72104690E-01 0.42135122E+03</pdfrwt>
<pdfrwt beam="2">  1       21 0.64751770E-01 0.42135122E+03</pdfrwt>
<totfact> 0.33631972E+03</totfact>
</mgrwt>
</event>
<event>
 4    1  0.4991790E-002  0.4518585E+03  0.7818608E-02  0.1027169E+00
         21   -1    0    0  503  502  0.00000000000E+00  0.00000000000E+00  0.29298034212E+03  0.29298034212E+03  0.00000000000E+00 0.  1.
         21   -1    0    0  501  503 -0.00000000000E+00 -0.00000000000E+00 -0.71104479831E+03  0.71104479831E+03  0.00000000000E+00 0. -1.
    9000005    1    1    2  501    0 -0.18748392419E+03 -0.95004575096E+02 -0.27985362868E+03  0.53150178232E+03  0.40000000000E+03 0. -1.
   -9000005    1    1    2    0  502  0.18748392419E+03  0.95004575096E+02 -0.13821082751E+03  0.47252335811E+03  0.40000000000E+03 0.  1.
<mgrwt>
<rscale>  2 0.45185849E+03</rscale>
<asrwt>0</asrwt>
<pdfrwt beam="1">  1       21 0.45073899E-01 0.45185849E+03</pdfrwt>
<pdfrwt beam="2">  1       21 0.10939151E+00 0.45185849E+03</pdfrwt>
<totfact> 0.27079913E+03</totfact>
</mgrwt>
</event>
<event>
 4    1  0.4991790E-002  0.4616781E+03  0.7818608E-02  0.1024296E+00
         21   -1    0    0  501  502  0.00000000000E+00  0.00000000000E+00  0.11444090343E+04  0.11444090343E+04  0.00000000000E+00 0. -1.
         21   -1    0    0  502  503 -0.00000000000E+00 -0.00000000000E+00 -0.19259262055E+03  0.19259262055E+03  0.00000000000E+00 0.  1.
    9000005    1    1    2  501    0  0.35036913941E+00  0.23053535684E+03  0.59721966080E+03  0.75486289931E+03  0.40000000000E+03 0. -1.
   -9000005    1    1    2    0  503 -0.35036913941E+00 -0.23053535684E+03  0.35459675300E+03  0.58213875558E+03  0.40000000000E+03 0.  1.
<mgrwt>
<rscale>  2 0.46167811E+03</rscale>
<asrwt>0</asrwt>
<pdfrwt beam="1">  1       21 0.17606292E+00 0.46167811E+03</pdfrwt>
<pdfrwt beam="2">  1       21 0.29629635E-01 0.46167811E+03</pdfrwt>
<totfact> 0.17866497E+03</totfact>
</mgrwt>
</event>
<event>
 4    1  0.4991790E-002  0.5253674E+03  0.7818608E-02  0.1007362E+00
         21   -1    0    0  503  502  0.00000000000E+00  0.00000000000E+00  0.12819088989E+04  0.12819088989E+04  0.00000000000E+00 0. -1.
         21   -1    0    0  501  503 -0.00000000000E+00 -0.00000000000E+00 -0.26259965616E+03  0.26259965616E+03  0.00000000000E+00 0. -1.
    9000005    1    1    2  501    0 -0.33865325315E+03 -0.36398222858E+02  0.83736137625E+03  0.98852664654E+03  0.40000000000E+03 0. -1.
   -9000005    1    1    2    0  502  0.33865325315E+03  0.36398222858E+02  0.18194786652E+03  0.55598190854E+03  0.40000000000E+03 0. -1.
<mgrwt>
<rscale>  2 0.52536735E+03</rscale>
<asrwt>0</asrwt>
<pdfrwt beam="1">  1       21 0.19721675E+00 0.52536735E+03</pdfrwt>
<pdfrwt beam="2">  1       21 0.40399948E-01 0.52536735E+03</pdfrwt>
<totfact> 0.66267150E+02</totfact>
</mgrwt>
</event>
<event>
 4    1  0.4991790E-002  0.5117116E+03  0.7818608E-02  0.1010766E+00
         21   -1    0    0  501  502  0.00000000000E+00  0.00000000000E+00  0.12149430254E+04  0.12149430254E+04  0.00000000000E+00 0. -1.
         21   -1    0    0  502  503 -0.00000000000E+00 -0.00000000000E+00 -0.22793044850E+03  0.22793044850E+03  0.00000000000E+00 0. -1.
    9000005    1    1    2  501    0 -0.31892410591E+03  0.11667665715E+02  0.66182420238E+03  0.83657635313E+03  0.40000000000E+03 0. -1.
   -9000005    1    1    2    0  503  0.31892410591E+03 -0.11667665715E+02  0.32518837456E+03  0.60629712081E+03  0.40000000000E+03 0. -1.
<mgrwt>
<rscale>  2 0.51171156E+03</rscale>
<asrwt>0</asrwt>
<pdfrwt beam="1">  1       21 0.18691431E+00 0.51171156E+03</pdfrwt>
<pdfrwt beam="2">  1       21 0.35066223E-01 0.51171156E+03</pdfrwt>
<totfact> 0.10474697E+03</totfact>
</mgrwt>
</event>
<event>
 4    1  0.4991790E-002  0.4367327E+03  0.7818608E-02  0.1031754E+00
         21   -1    0    0  501  502  0.00000000000E+00  0.00000000000E+00  0.64491568704E+03  0.64491568704E+03  0.00000000000E+00 0.  1.
         21   -1    0    0  502  503 -0.00000000000E+00 -0.00000000000E+00 -0.56417375023E+03  0.56417375023E+03  0.00000000000E+00 0.  1.
    9000005    1    1    2  501    0  0.81331981497E+02  0.15530800250E+03  0.45736552984E+03  0.63239125132E+03  0.40000000000E+03 0.  1.
   -9000005    1    1    2    0  503 -0.81331981497E+02 -0.15530800250E+03 -0.37662359303E+03  0.57669818595E+03  0.40000000000E+03 0.  1.
<mgrwt>
<rscale>  2 0.43673272E+03</rscale>
<asrwt>0</asrwt>
<pdfrwt beam="1">  1       21 0.99217797E-01 0.43673272E+03</pdfrwt>
<pdfrwt beam="2">  1       21 0.86795962E-01 0.43673272E+03</pdfrwt>
<totfact> 0.81299729E+02</totfact>
</mgrwt>
</event>
<event>
 4    1  0.4991790E-002  0.5233703E+03  0.7818608E-02  0.1007853E+00
         21   -1    0    0  501  502  0.00000000000E+00  0.00000000000E+00  0.66400266030E+03  0.66400266030E+03  0.00000000000E+00 0.  1.
         21   -1    0    0  502  503 -0.00000000000E+00 -0.00000000000E+00 -0.61461019022E+03  0.61461019022E+03  0.00000000000E+00 0. -1.
    9000005    1    1    2  501    0  0.31432152561E+03 -0.12295710733E+03 -0.34189191162E+03  0.62514522388E+03  0.40000000000E+03 0. -1.
   -9000005    1    1    2    0  503 -0.31432152561E+03  0.12295710733E+03  0.39128438171E+03  0.65346762664E+03  0.40000000000E+03 0.  1.
<mgrwt>
<rscale>  2 0.52337030E+03</rscale>
<asrwt>0</asrwt>
<pdfrwt beam="1">  1       21 0.10215426E+00 0.52337030E+03</pdfrwt>
<pdfrwt beam="2">  1       21 0.94555414E-01 0.52337030E+03</pdfrwt>
<totfact> 0.59646577E+02</totfact>
</mgrwt>
</event>
<event>
 4    1  0.4991790E-002  0.4650934E+03  0.7818608E-02  0.1023314E+00
         21   -1    0    0  501  502  0.00000000000E+00  0.00000000000E+00  0.90742655624E+03  0.90742655624E+03  0.00000000000E+00 0.  1.
         21   -1    0    0  502  503 -0.00000000000E+00 -0.00000000000E+00 -0.25242120925E+03  0.25242120925E+03  0.00000000000E+00 0. -1.
    9000005    1    1    2  501    0 -0.22259525927E+03  0.82238658414E+02  0.46428147160E+03  0.65716750625E+03  0.40000000000E+03 0.  1.
   -9000005    1    1    2    0  503  0.22259525927E+03 -0.82238658414E+02  0.19072387539E+03  0.50268025924E+03  0.40000000000E+03 0. -1.
<mgrwt>
<rscale>  2 0.46509337E+03</rscale>
<asrwt>0</asrwt>
<pdfrwt beam="1">  1       21 0.13960408E+00 0.46509337E+03</pdfrwt>
<pdfrwt beam="2">  1       21 0.38834033E-01 0.46509337E+03</pdfrwt>
<totfact> 0.19652213E+03</totfact>
</mgrwt>
</event>
<event>
 4    1  0.4991790E-002  0.4221294E+03  0.7818608E-02  0.1036375E+00
         21   -1    0    0  503  502  0.00000000000E+00  0.00000000000E+00  0.22009058371E+03  0.22009058371E+03  0.00000000000E+00 0.  1.
         21   -1    0    0  501  503 -0.00000000000E+00 -0.00000000000E+00 -0.13708463896E+04  0.13708463896E+04  0.00000000000E+00 0.  1.
    9000005    1    1    2  501    0 -0.11876037003E+03  0.63947064084E+02 -0.10843470385E+04  0.11636158097E+04  0.40000000000E+03 0.  1.
   -9000005    1    1    2    0  502  0.11876037003E+03 -0.63947064084E+02 -0.66408767311E+02  0.42732116361E+03  0.40000000000E+03 0.  1.
<mgrwt>
<rscale>  2 0.42212943E+03</rscale>
<asrwt>0</asrwt>
<pdfrwt beam="1">  1       21 0.33860089E-01 0.42212943E+03</pdfrwt>
<pdfrwt beam="2">  1       21 0.21089945E+00 0.42212943E+03</pdfrwt>
<totfact> 0.80817355E+02</totfact>
</mgrwt>
</event>
<event>
 4    1  0.4991790E-002  0.4149030E+03  0.7818608E-02  0.1038738E+00
         21   -1    0    0  503  502  0.00000000000E+00  0.00000000000E+00  0.43139181870E+03  0.43139181870E+03  0.00000000000E+00 0. -1.
         21   -1    0    0  501  503 -0.00000000000E+00 -0.00000000000E+00 -0.65042816859E+03  0.65042816859E+03  0.00000000000E+00 0. -1.
    9000005    1    1    2  501    0  0.27477580609E+02 -0.10672165207E+03  0.22675627652E+03  0.47282442555E+03  0.40000000000E+03 0. -1.
   -9000005    1    1    2    0  502 -0.27477580609E+02  0.10672165207E+03 -0.44579262641E+03  0.60899556174E+03  0.40000000000E+03 0. -1.
<mgrwt>
<rscale>  2 0.41490304E+03</rscale>
<asrwt>0</asrwt>
<pdfrwt beam="1">  1       21 0.66367972E-01 0.41490304E+03</pdfrwt>
<pdfrwt beam="2">  1       21 0.10006587E+00 0.41490304E+03</pdfrwt>
<totfact> 0.14841693E+03</totfact>
</mgrwt>
</event>
<event>
 4    1  0.4991790E-002  0.5086734E+03  0.7818608E-02  0.1011539E+00
         21   -1    0    0  503  502  0.00000000000E+00  0.00000000000E+00  0.95271065636E+03  0.95271065636E+03  0.00000000000E+00 0.  1.
         21   -1    0    0  501  503 -0.00000000000E+00 -0.00000000000E+00 -0.28733764829E+03  0.28733764829E+03  0.00000000000E+00 0.  1.
    9000005    1    1    2  501    0  0.31423474765E+03  0.22807625186E+01  0.18754508322E+03  0.54214558630E+03  0.40000000000E+03 0.  1.
   -9000005    1    1    2    0  502 -0.31423474765E+03 -0.22807625186E+01  0.47782792485E+03  0.69790271834E+03  0.40000000000E+03 0.  1.
<mgrwt>
<rscale>  2 0.50867345E+03</rscale>
<asrwt>0</asrwt>
<pdfrwt beam="1">  1       21 0.14657087E+00 0.50867345E+03</pdfrwt>
<pdfrwt beam="2">  1       21 0.44205792E-01 0.50867345E+03</pdfrwt>
<totfact> 0.12967939E+03</totfact>
</mgrwt>
</event>
<event>
 4    1  0.4991790E-002  0.5961982E+03  0.7818608E-02  0.9913325E-01
         21   -1    0    0  503  502  0.00000000000E+00  0.00000000000E+00  0.14726628215E+04  0.14726628215E+04  0.00000000000E+00 0. -1.
         21   -1    0    0  501  503 -0.00000000000E+00 -0.00000000000E+00 -0.25393940148E+03  0.25393940148E+03  0.00000000000E+00 0.  1.
    9000005    1    1    2  501    0 -0.21005716116E+03  0.38900933441E+03  0.41727133648E+03  0.72771398328E+03  0.40000000000E+03 0.  1.
   -9000005    1    1    2    0  502  0.21005716116E+03 -0.38900933441E+03  0.80145208358E+03  0.99888823974E+03  0.40000000000E+03 0. -1.
<mgrwt>
<rscale>  2 0.59619818E+03</rscale>
<asrwt>0</asrwt>
<pdfrwt beam="1">  1       21 0.22656351E+00 0.59619818E+03</pdfrwt>
<pdfrwt beam="2">  1       21 0.39067601E-01 0.59619818E+03</pdfrwt>
<totfact> 0.44330050E+02</totfact>
</mgrwt>
</event>
<event>
 4    1  0.4991790E-002  0.4079192E+03  0.7818608E-02  0.1041072E+00
         21   -1    0    0  501  502  0.00000000000E+00  0.00000000000E+00  0.10866659854E+04  0.10866659854E+04  0.00000000000E+00 0. -1.
         21   -1    0    0  502  503 -0.00000000000E+00 -0.00000000000E+00 -0.16973716021E+03  0.16973716021E+03  0.00000000000E+00 0. -1.
    9000005    1    1    2  501    0 -0.79705590052E+02  0.67145345148E+01  0.65497931705E+03  0.77161905875E+03  0.40000000000E+03 0.  1.
   -9000005    1    1    2    0  503  0.79705590052E+02 -0.67145345148E+01  0.26194950815E+03  0.48478408687E+03  0.40000000000E+03 0.  1.
<mgrwt>
<rscale>  2 0.40791919E+03</rscale>
<asrwt>0</asrwt>
<pdfrwt beam="1">  1       21 0.16717938E+00 0.40791919E+03</pdfrwt>
<pdfrwt beam="2">  1       21 0.26113410E-01 0.40791919E+03</pdfrwt>
<totfact> 0.27163565E+03</totfact>
</mgrwt>
</event>
<event>
 4    1  0.4991790E-002  0.4457641E+03  0.7818608E-02  0.1028993E+00
         21   -1    0    0  503  502  0.00000000000E+00  0.00000000000E+00  0.40031857071E+03  0.40031857071E+03  0.00000000000E+00 0.  1.
         21   -1    0    0  501  503 -0.00000000000E+00 -0.00000000000E+00 -0.12907539778E+04  0.12907539778E+04  0.00000000000E+00 0.  1.
    9000005    1    1    2  501    0  0.15815850456E+02  0.19610082984E+03 -0.11085422287E+04  0.11948102567E+04  0.40000000000E+03 0.  1.
   -9000005    1    1    2    0  502 -0.15815850456E+02 -0.19610082984E+03  0.21810682168E+03  0.49626229179E+03  0.40000000000E+03 0.  1.
<mgrwt>
<rscale>  2 0.44576415E+03</rscale>
<asrwt>0</asrwt>
<pdfrwt beam="1">  1       21 0.61587472E-01 0.44576415E+03</pdfrwt>
<pdfrwt beam="2">  1       21 0.19857754E+00 0.44576415E+03</pdfrwt>
<totfact> 0.27396794E+02</totfact>
</mgrwt>
</event>
<event>
 4    1  0.4991790E-002  0.5405155E+03  0.7818608E-02  0.1003713E+00
         21   -1    0    0  501  502  0.00000000000E+00  0.00000000000E+00  0.77251360049E+03  0.77251360049E+03  0.00000000000E+00 0.  1.
         21   -1    0    0  502  503 -0.00000000000E+00 -0.00000000000E+00 -0.42380056201E+03  0.42380056201E+03  0.00000000000E+00 0. -1.
    9000005    1    1    2  501    0  0.36352855109E+03  0.20011966374E+01  0.37058706821E+03  0.65535622936E+03  0.40000000000E+03 0. -1.
   -9000005    1    1    2    0  503 -0.36352855109E+03 -0.20011966374E+01 -0.21874029736E+02  0.54095793313E+03  0.40000000000E+03 0.  1.
<mgrwt>
<rscale>  2 0.54051551E+03</rscale>
<asrwt>0</asrwt>
<pdfrwt beam="1">  1       21 0.11884825E+00 0.54051551E+03</pdfrwt>
<pdfrwt beam="2">  1       21 0.65200087E-01 0.54051551E+03</pdfrwt>
<totfact> 0.96036787E+02</totfact>
</mgrwt>
</event>
<event>
 4    1  0.4991790E-002  0.4493731E+03  0.7818608E-02  0.1027909E+00
         21   -1    0    0  503  502  0.00000000000E+00  0.00000000000E+00  0.61165332522E+03  0.61165332522E+03  0.00000000000E+00 0. -1.
         21   -1    0    0  501  503 -0.00000000000E+00 -0.00000000000E+00 -0.33316547483E+03  0.33316547483E+03  0.00000000000E+00 0. -1.
    9000005    1    1    2  501    0 -0.77504688640E+02  0.18954994375E+03  0.94286012734E+02  0.45915793594E+03  0.40000000000E+03 0. -1.
   -9000005    1    1    2    0  502  0.77504688640E+02 -0.18954994375E+03  0.18420183765E+03  0.48566086411E+03  0.40000000000E+03 0. -1.
<mgrwt>
<rscale>  2 0.44937307E+03</rscale>
<asrwt>0</asrwt>
<pdfrwt beam="1">  1       21 0.94100512E-01 0.44937307E+03</pdfrwt>
<pdfrwt beam="2">  1       21 0.51256227E-01 0.44937307E+03</pdfrwt>
<totfact> 0.29814762E+03</totfact>
</mgrwt>
</event>
<event>
 4    1  0.4991790E-002  0.4822647E+03  0.7818608E-02  0.1018515E+00
         21   -1    0    0  503  502  0.00000000000E+00  0.00000000000E+00  0.37473126087E+03  0.37473126087E+03  0.00000000000E+00 0. -1.
         21   -1    0    0  501  503 -0.00000000000E+00 -0.00000000000E+00 -0.70148674694E+03  0.70148674694E+03  0.00000000000E+00 0.  1.
    9000005    1    1    2  501    0 -0.25645094035E+03 -0.82536067438E+02  0.19284267446E+02  0.48265015301E+03  0.40000000000E+03 0. -1.
   -9000005    1    1    2    0  502  0.25645094035E+03  0.82536067438E+02 -0.34603975352E+03  0.59356785480E+03  0.40000000000E+03 0.  1.
<mgrwt>
<rscale>  2 0.48226475E+03</rscale>
<asrwt>0</asrwt>
<pdfrwt beam="1">  1       21 0.57650964E-01 0.48226475E+03</pdfrwt>
<pdfrwt beam="2">  1       21 0.10792104E+00 0.48226475E+03</pdfrwt>
<totfact> 0.16372653E+03</totfact>
</mgrwt>
</event>
<event>
 4    1  0.4991790E-002  0.4619648E+03  0.7818608E-02  0.1024213E+00
         21   -1    0    0  501  502  0.00000000000E+00  0.00000000000E+00  0.22412403121E+03  0.22412403121E+03  0.00000000000E+00 0. -1.
         21   -1    0    0  502  503 -0.00000000000E+00 -0.00000000000E+00 -0.14661555501E+04  0.14661555501E+04  0.00000000000E+00 0. -1.
    9000005    1    1    2  501    0 -0.20291338753E+03  0.11062392029E+03 -0.12063547553E+03  0.47745618913E+03  0.40000000000E+03 0. -1.
   -9000005    1    1    2    0  503  0.20291338753E+03 -0.11062392029E+03 -0.11213960434E+04  0.12128233922E+04  0.40000000000E+03 0. -1.
<mgrwt>
<rscale>  2 0.46196482E+03</rscale>
<asrwt>0</asrwt>
<pdfrwt beam="1">  1       21 0.34480622E-01 0.46196482E+03</pdfrwt>
<pdfrwt beam="2">  1       21 0.22556238E+00 0.46196482E+03</pdfrwt>
<totfact> 0.61510249E+02</totfact>
</mgrwt>
</event>
<event>
 4    1  0.4991790E-002  0.4776048E+03  0.7818608E-02  0.1019796E+00
         21   -1    0    0  501  502  0.00000000000E+00  0.00000000000E+00  0.12359682997E+03  0.12359682997E+03  0.00000000000E+00 0. -1.
         21   -1    0    0  502  503 -0.00000000000E+00 -0.00000000000E+00 -0.19423726683E+04  0.19423726683E+04  0.00000000000E+00 0.  1.
    9000005    1    1    2  501    0  0.19370609717E+03 -0.17488377289E+03 -0.67877947590E+03  0.82996865182E+03  0.40000000000E+03 0.  1.
   -9000005    1    1    2    0  503 -0.19370609717E+03  0.17488377289E+03 -0.11399963625E+04  0.12360008465E+04  0.40000000000E+03 0. -1.
<mgrwt>
<rscale>  2 0.47760484E+03</rscale>
<asrwt>0</asrwt>
<pdfrwt beam="1">  1       21 0.19014899E-01 0.47760484E+03</pdfrwt>
<pdfrwt beam="2">  1       21 0.29882653E+00 0.47760484E+03</pdfrwt>
<totfact> 0.69532842E+02</totfact>
</mgrwt>
</event>
<event>
 4    1  0.4991790E-002  0.4104202E+03  0.7818608E-02  0.1040230E+00
         21   -1    0    0  503  502  0.00000000000E+00  0.00000000000E+00  0.97054300397E+03  0.97054300397E+03  0.00000000000E+00 0. -1.
         21   -1    0    0  501  503 -0.00000000000E+00 -0.00000000000E+00 -0.19278680266E+03  0.19278680266E+03  0.00000000000E+00 0. -1.
    9000005    1    1    2  501    0  0.71668429417E+02  0.57518745592E+02  0.20517399718E+03  0.45884762066E+03  0.40000000000E+03 0. -1.
   -9000005    1    1    2    0  502 -0.71668429417E+02 -0.57518745592E+02  0.57258220413E+03  0.70448218598E+03  0.40000000000E+03 0. -1.
<mgrwt>
<rscale>  2 0.41042024E+03</rscale>
<asrwt>0</asrwt>
<pdfrwt beam="1">  1       21 0.14931431E+00 0.41042024E+03</pdfrwt>
<pdfrwt beam="2">  1       21 0.29659509E-01 0.41042024E+03</pdfrwt>
<totfact> 0.28863759E+03</totfact>
</mgrwt>
</event>
<event>
 4    1  0.4991790E-002  0.4420256E+03  0.7818608E-02  0.1030127E+00
         21   -1    0    0  501  502  0.00000000000E+00  0.00000000000E+00  0.41555615650E+03  0.41555615650E+03  0.00000000000E+00 0.  1.
         21   -1    0    0  502  503 -0.00000000000E+00 -0.00000000000E+00 -0.12609321084E+04  0.12609321084E+04  0.00000000000E+00 0.  1.
    9000005    1    1    2  501    0 -0.86681283977E+02 -0.16695197185E+03  0.24112322628E+03  0.50351466329E+03  0.40000000000E+03 0.  1.
   -9000005    1    1    2    0  503  0.86681283977E+02  0.16695197185E+03 -0.10864991782E+04  0.11729736016E+04  0.40000000000E+03 0.  1.
<mgrwt>
<rscale>  2 0.44202557E+03</rscale>
<asrwt>0</asrwt>
<pdfrwt beam="1">  1       21 0.63931716E-01 0.44202557E+03</pdfrwt>
<pdfrwt beam="2">  1       21 0.19398956E+00 0.44202557E+03</pdfrwt>
<totfact> 0.27140730E+02</totfact>
</mgrwt>
</event>
<event>
 4    1  0.4991790E-002  0.4422372E+03  0.7818608E-02  0.1030063E+00
         21   -1    0    0  501  502  0.00000000000E+00  0.00000000000E+00  0.59538113329E+03  0.59538113329E+03  0.00000000000E+00 0.  1.
         21   -1    0    0  502  503 -0.00000000000E+00 -0.00000000000E+00 -0.33798042902E+03  0.33798042902E+03  0.00000000000E+00 0.  1.
    9000005    1    1    2  501    0  0.16787808905E+03 -0.85968925718E+02  0.20692323901E+03  0.48825294246E+03  0.40000000000E+03 0.  1.
   -9000005    1    1    2    0  503 -0.16787808905E+03  0.85968925718E+02  0.50477465259E+02  0.44510861986E+03  0.40000000000E+03 0.  1.
<mgrwt>
<rscale>  2 0.44223716E+03</rscale>
<asrwt>0</asrwt>
<pdfrwt beam="1">  1       21 0.91597097E-01 0.44223716E+03</pdfrwt>
<pdfrwt beam="2">  1       21 0.51996989E-01 0.44223716E+03</pdfrwt>
<totfact> 0.30913216E+03</totfact>
</mgrwt>
</event>
<event>
 4    1  0.4991790E-002  0.4263810E+03  0.7818608E-02  0.1035009E+00
         21   -1    0    0  503  502  0.00000000000E+00  0.00000000000E+00  0.15635317765E+04  0.15635317765E+04  0.00000000000E+00 0.  1.
         21   -1    0    0  501  503 -0.00000000000E+00 -0.00000000000E+00 -0.35577251376E+03  0.35577251376E+03  0.00000000000E+00 0.  1.
    9000005    1    1    2  501    0 -0.13747757307E+03 -0.53857845997E+02 -0.18348792001E+03  0.46418591907E+03  0.40000000000E+03 0.  1.
   -9000005    1    1    2    0  502  0.13747757307E+03  0.53857845997E+02  0.13912471827E+04  0.14551183712E+04  0.40000000000E+03 0.  1.
<mgrwt>
<rscale>  2 0.42638099E+03</rscale>
<asrwt>0</asrwt>
<pdfrwt beam="1">  1       21 0.24054335E+00 0.42638099E+03</pdfrwt>
<pdfrwt beam="2">  1       21 0.54734234E-01 0.42638099E+03</pdfrwt>
<totfact> 0.19279366E+02</totfact>
</mgrwt>
</event>
<event>
 4    1  0.4991790E-002  0.5027758E+03  0.7818608E-02  0.1013057E+00
         21   -1    0    0  501  502  0.00000000000E+00  0.00000000000E+00  0.40854920830E+03  0.40854920830E+03  0.00000000000E+00 0. -1.
         21   -1    0    0  502  503 -0.00000000000E+00 -0.00000000000E+00 -0.72689754277E+03  0.72689754277E+03  0.00000000000E+00 0. -1.
    9000005    1    1    2  501    0  0.24169604734E+01  0.30459418588E+03 -0.37817197786E+03  0.62912439518E+03  0.40000000000E+03 0. -1.
   -9000005    1    1    2    0  503 -0.24169604734E+01 -0.30459418588E+03  0.59823643391E+02  0.50632235589E+03  0.40000000000E+03 0. -1.
<mgrwt>
<rscale>  2 0.50277575E+03</rscale>
<asrwt>0</asrwt>
<pdfrwt beam="1">  1       21 0.62853725E-01 0.50277575E+03</pdfrwt>
<pdfrwt beam="2">  1       21 0.11183039E+00 0.50277575E+03</pdfrwt>
<totfact> 0.12302811E+03</totfact>
</mgrwt>
</event>
<event>
 4    1  0.4991790E-002  0.4049847E+03  0.7818608E-02  0.1042067E+00
         21   -1    0    0  501  502  0.00000000000E+00  0.00000000000E+00  0.32001329426E+03  0.32001329426E+03  0.00000000000E+00 0.  1.
         21   -1    0    0  502  503 -0.00000000000E+00 -0.00000000000E+00 -0.14095043689E+04  0.14095043689E+04  0.00000000000E+00 0.  1.
    9000005    1    1    2  501    0  0.95290746275E+01 -0.62624625712E+02  0.14510444733E+03  0.43019524363E+03  0.40000000000E+03 0.  1.
   -9000005    1    1    2    0  503 -0.95290746275E+01  0.62624625712E+02 -0.12345955220E+04  0.12993224196E+04  0.40000000000E+03 0.  1.
<mgrwt>
<rscale>  2 0.40498475E+03</rscale>
<asrwt>0</asrwt>
<pdfrwt beam="1">  1       21 0.49232815E-01 0.40498475E+03</pdfrwt>
<pdfrwt beam="2">  1       21 0.21684682E+00 0.40498475E+03</pdfrwt>
<totfact> 0.34498566E+02</totfact>
</mgrwt>
</event>
<event>
 4    1  0.4991790E-002  0.5390689E+03  0.7818608E-02  0.1004056E+00
         21   -1    0    0  503  502  0.00000000000E+00  0.00000000000E+00  0.63099691511E+03  0.63099691511E+03  0.00000000000E+00 0.  1.
         21   -1    0    0  501  503 -0.00000000000E+00 -0.00000000000E+00 -0.62005198361E+03  0.62005198361E+03  0.00000000000E+00 0.  1.
    9000005    1    1    2  501    0 -0.11193119170E+03 -0.34360832629E+03  0.32274729908E+03  0.62830016126E+03  0.40000000000E+03 0.  1.
   -9000005    1    1    2    0  502  0.11193119170E+03  0.34360832629E+03 -0.31180236758E+03  0.62274873745E+03  0.40000000000E+03 0.  1.
<mgrwt>
<rscale>  2 0.53906890E+03</rscale>
<asrwt>0</asrwt>
<pdfrwt beam="1">  1       21 0.97076448E-01 0.53906890E+03</pdfrwt>
<pdfrwt beam="2">  1       21 0.95392613E-01 0.53906890E+03</pdfrwt>
<totfact> 0.65746192E+02</totfact>
</mgrwt>
</event>
<event>
 4    1  0.4991790E-002  0.4419593E+03  0.7818608E-02  0.1030147E+00
         21   -1    0    0  503  502  0.00000000000E+00  0.00000000000E+00  0.21934533943E+03  0.21934533943E+03  0.00000000000E+00 0.  1.
         21   -1    0    0  501  503 -0.00000000000E+00 -0.00000000000E+00 -0.14348431098E+04  0.14348431098E+04  0.00000000000E+00 0.  1.
    9000005    1    1    2  501    0 -0.17335038593E+02 -0.18715638709E+03 -0.11171821980E+04  0.12014258530E+04  0.40000000000E+03 0.  1.
   -9000005    1    1    2    0  502  0.17335038593E+02  0.18715638709E+03 -0.98315572421E+02  0.45276259626E+03  0.40000000000E+03 0.  1.
<mgrwt>
<rscale>  2 0.44195929E+03</rscale>
<asrwt>0</asrwt>
<pdfrwt beam="1">  1       21 0.33745436E-01 0.44195929E+03</pdfrwt>
<pdfrwt beam="2">  1       21 0.22074510E+00 0.44195929E+03</pdfrwt>
<totfact> 0.69624720E+02</totfact>
</mgrwt>
</event>
<event>
 4    1  0.4991790E-002  0.5431152E+03  0.7818608E-02  0.1003100E+00
         21   -1    0    0  501  502  0.00000000000E+00  0.00000000000E+00  0.32010776877E+03  0.32010776877E+03  0.00000000000E+00 0.  1.
         21   -1    0    0  502  503 -0.00000000000E+00 -0.00000000000E+00 -0.92348547753E+03  0.92348547753E+03  0.00000000000E+00 0.  1.
    9000005    1    1    2  501    0  0.22131350486E+03  0.29324808162E+03 -0.27273965181E+03  0.60775078978E+03  0.40000000000E+03 0.  1.
   -9000005    1    1    2    0  503 -0.22131350486E+03 -0.29324808162E+03 -0.33063805694E+03  0.63584245652E+03  0.40000000000E+03 0.  1.
<mgrwt>
<rscale>  2 0.54311519E+03</rscale>
<asrwt>0</asrwt>
<pdfrwt beam="1">  1       21 0.49247349E-01 0.54311519E+03</pdfrwt>
<pdfrwt beam="2">  1       21 0.14207469E+00 0.54311519E+03</pdfrwt>
<totfact> 0.11092755E+03</totfact>
</mgrwt>
</event>
<event>
 4    1  0.4991790E-002  0.4403212E+03  0.7818608E-02  0.1030648E+00
         21   -1    0    0  501  502  0.00000000000E+00  0.00000000000E+00  0.55397748830E+02  0.55397748830E+02  0.00000000000E+00 0. -1.
         21   -1    0    0  502  503 -0.00000000000E+00 -0.00000000000E+00 -0.35019370595E+04  0.35019370595E+04  0.00000000000E+00 0. -1.
    9000005    1    1    2  501    0 -0.61140460547E+02 -0.17362206556E+03 -0.16796541653E+04  0.17364103468E+04  0.40000000000E+03 0. -1.
   -9000005    1    1    2    0  503  0.61140460547E+02  0.17362206556E+03 -0.17668851454E+04  0.18209244615E+04  0.40000000000E+03 0. -1.
<mgrwt>
<rscale>  2 0.44032122E+03</rscale>
<asrwt>0</asrwt>
<pdfrwt beam="1">  1       21 0.85227317E-02 0.44032122E+03</pdfrwt>
<pdfrwt beam="2">  1       21 0.53875948E+00 0.44032122E+03</pdfrwt>
<totfact> 0.80914330E+01</totfact>
</mgrwt>
</event>
<event>
 4    1  0.4991790E-002  0.6287241E+03  0.7818608E-02  0.9847542E-01
         21   -1    0    0  503  502  0.00000000000E+00  0.00000000000E+00  0.69370334701E+03  0.69370334701E+03  0.00000000000E+00 0. -1.
         21   -1    0    0  501  503 -0.00000000000E+00 -0.00000000000E+00 -0.66263733279E+03  0.66263733279E+03  0.00000000000E+00 0.  1.
    9000005    1    1    2  501    0  0.45124696917E+03 -0.17796100239E+03  0.26933131645E+03  0.68398340885E+03  0.40000000000E+03 0. -1.
   -9000005    1    1    2    0  502 -0.45124696917E+03  0.17796100239E+03 -0.23826530223E+03  0.67235727096E+03  0.40000000000E+03 0. -1.
<mgrwt>
<rscale>  2 0.62872406E+03</rscale>
<asrwt>0</asrwt>
<pdfrwt beam="1">  1       21 0.10672359E+00 0.62872406E+03</pdfrwt>
<pdfrwt beam="2">  1       21 0.10194420E+00 0.62872406E+03</pdfrwt>
<totfact> 0.42977974E+02</totfact>
</mgrwt>
</event>
<event>
 4    1  0.4991790E-002  0.4185653E+03  0.7818608E-02  0.1037534E+00
         21   -1    0    0  501  502  0.00000000000E+00  0.00000000000E+00  0.14176575787E+03  0.14176575787E+03  0.00000000000E+00 0. -1.
         21   -1    0    0  502  503 -0.00000000000E+00 -0.00000000000E+00 -0.12489617619E+04  0.12489617619E+04  0.00000000000E+00 0. -1.
    9000005    1    1    2  501    0 -0.10356717622E+03 -0.66863584529E+02 -0.48226815900E+03  0.63857613180E+03  0.40000000000E+03 0. -1.
   -9000005    1    1    2    0  503  0.10356717622E+03  0.66863584529E+02 -0.62492784501E+03  0.75215138795E+03  0.40000000000E+03 0. -1.
<mgrwt>
<rscale>  2 0.41856529E+03</rscale>
<asrwt>0</asrwt>
<pdfrwt beam="1">  1       21 0.21810116E-01 0.41856529E+03</pdfrwt>
<pdfrwt beam="2">  1       21 0.19214797E+00 0.41856529E+03</pdfrwt>
<totfact> 0.25553501E+03</totfact>
</mgrwt>
</event>
<event>
 4    1  0.4991790E-002  0.4010938E+03  0.7818608E-02  0.1043402E+00
         21   -1    0    0  501  502  0.00000000000E+00  0.00000000000E+00  0.97058674538E+03  0.97058674538E+03  0.00000000000E+00 0.  1.
         21   -1    0    0  502  503 -0.00000000000E+00 -0.00000000000E+00 -0.12816999062E+04  0.12816999062E+04  0.00000000000E+00 0.  1.
    9000005    1    1    2  501    0  0.25760570214E+02 -0.14580454845E+02  0.89524943825E+03  0.98099324836E+03  0.40000000000E+03 0.  1.
   -9000005    1    1    2    0  503 -0.25760570214E+02  0.14580454845E+02 -0.12063625991E+04  0.12712934032E+04  0.40000000000E+03 0.  1.
<mgrwt>
<rscale>  2 0.40109375E+03</rscale>
<asrwt>0</asrwt>
<pdfrwt beam="1">  1       21 0.14932104E+00 0.40109375E+03</pdfrwt>
<pdfrwt beam="2">  1       21 0.19718460E+00 0.40109375E+03</pdfrwt>
<totfact> 0.33867081E+01</totfact>
</mgrwt>
</event>
<event>
 4    1  0.4991790E-002  0.4845226E+03  0.7818608E-02  0.1017900E+00
         21   -1    0    0  501  502  0.00000000000E+00  0.00000000000E+00  0.36926914187E+03  0.36926914187E+03  0.00000000000E+00 0.  1.
         21   -1    0    0  502  503 -0.00000000000E+00 -0.00000000000E+00 -0.81589891612E+03  0.81589891612E+03  0.00000000000E+00 0.  1.
    9000005    1    1    2  501    0  0.54958394278E+02 -0.26784643682E+03  0.55136852309E+02  0.48764968092E+03  0.40000000000E+03 0.  1.
   -9000005    1    1    2    0  503 -0.54958394278E+02  0.26784643682E+03 -0.50176662656E+03  0.69751837707E+03  0.40000000000E+03 0.  1.
<mgrwt>
<rscale>  2 0.48452259E+03</rscale>
<asrwt>0</asrwt>
<pdfrwt beam="1">  1       21 0.56810637E-01 0.48452259E+03</pdfrwt>
<pdfrwt beam="2">  1       21 0.12552291E+00 0.48452259E+03</pdfrwt>
<totfact> 0.11536259E+03</totfact>
</mgrwt>
</event>
<event>
 4    1  0.4991790E-002  0.7078899E+03  0.7818608E-02  0.9703834E-01
         21   -1    0    0  501  502  0.00000000000E+00  0.00000000000E+00  0.11924684807E+04  0.11924684807E+04  0.00000000000E+00 0. -1.
         21   -1    0    0  502  503 -0.00000000000E+00 -0.00000000000E+00 -0.42716157407E+03  0.42716157407E+03  0.00000000000E+00 0.  1.
    9000005    1    1    2  501    0 -0.35951196619E+03  0.46028166404E+03  0.48583061372E+03  0.85856825547E+03  0.40000000000E+03 0. -1.
   -9000005    1    1    2    0  503  0.35951196619E+03 -0.46028166404E+03  0.27947629294E+03  0.76106179933E+03  0.40000000000E+03 0.  1.
<mgrwt>
<rscale>  2 0.70788987E+03</rscale>
<asrwt>0</asrwt>
<pdfrwt beam="1">  1       21 0.18345669E+00 0.70788987E+03</pdfrwt>
<pdfrwt beam="2">  1       21 0.65717166E-01 0.70788987E+03</pdfrwt>
<totfact> 0.27126713E+02</totfact>
</mgrwt>
</event>
<event>
 4    1  0.4991790E-002  0.4752441E+03  0.7818608E-02  0.1020450E+00
         21   -1    0    0  501  502  0.00000000000E+00  0.00000000000E+00  0.89983380551E+02  0.89983380551E+02  0.00000000000E+00 0. -1.
         21   -1    0    0  502  503 -0.00000000000E+00 -0.00000000000E+00 -0.25223663881E+04  0.25223663881E+04  0.00000000000E+00 0. -1.
    9000005    1    1    2  501    0  0.23885136410E+03  0.93845715290E+02 -0.13077019779E+04  0.13913811323E+04  0.40000000000E+03 0. -1.
   -9000005    1    1    2    0  503 -0.23885136410E+03 -0.93845715290E+02 -0.11246810296E+04  0.12209686363E+04  0.40000000000E+03 0. -1.
<mgrwt>
<rscale>  2 0.47524414E+03</rscale>
<asrwt>0</asrwt>
<pdfrwt beam="1">  1       21 0.13843594E-01 0.47524414E+03</pdfrwt>
<pdfrwt beam="2">  1       21 0.38805645E+00 0.47524414E+03</pdfrwt>
<totfact> 0.35655141E+02</totfact>
</mgrwt>
</event>
<event>
 4    1  0.4991790E-002  0.8227353E+03  0.7818608E-02  0.9527679E-01
         21   -1    0    0  503  502  0.00000000000E+00  0.00000000000E+00  0.10108299936E+04  0.10108299936E+04  0.00000000000E+00 0. -1.
         21   -1    0    0  501  503 -0.00000000000E+00 -0.00000000000E+00 -0.81721884161E+03  0.81721884161E+03  0.00000000000E+00 0. -1.
    9000005    1    1    2  501    0 -0.44830176459E+03 -0.56206667572E+03 -0.29161200601E+03  0.87288658034E+03  0.40000000000E+03 0. -1.
   -9000005    1    1    2    0  502  0.44830176459E+03  0.56206667572E+03  0.48522315801E+03  0.95516225488E+03  0.40000000000E+03 0. -1.
<mgrwt>
<rscale>  2 0.82273533E+03</rscale>
<asrwt>0</asrwt>
<pdfrwt beam="1">  1       21 0.15551231E+00 0.82273533E+03</pdfrwt>
<pdfrwt beam="2">  1       21 0.12572598E+00 0.82273533E+03</pdfrwt>
<totfact> 0.88402956E+01</totfact>
</mgrwt>
</event>
<event>
 4    1  0.4991790E-002  0.5000444E+03  0.7818608E-02  0.1013767E+00
         21   -1    0    0  503  502  0.00000000000E+00  0.00000000000E+00  0.83305186596E+03  0.83305186596E+03  0.00000000000E+00 0.  1.
         21   -1    0    0  501  503 -0.00000000000E+00 -0.00000000000E+00 -0.34290083911E+03  0.34290083911E+03  0.00000000000E+00 0.  1.
    9000005    1    1    2  501    0 -0.63495353126E+02  0.29327932599E+03  0.37477069378E+02  0.50144686025E+03  0.40000000000E+03 0.  1.
   -9000005    1    1    2    0  502  0.63495353126E+02 -0.29327932599E+03  0.45267395748E+03  0.67450584482E+03  0.40000000000E+03 0.  1.
<mgrwt>
<rscale>  2 0.50004442E+03</rscale>
<asrwt>0</asrwt>
<pdfrwt beam="1">  1       21 0.12816182E+00 0.50004442E+03</pdfrwt>
<pdfrwt beam="2">  1       21 0.52753976E-01 0.50004442E+03</pdfrwt>
<totfact> 0.12755962E+03</totfact>
</mgrwt>
</event>
<event>
 4    1  0.4991790E-002  0.4929986E+03  0.7818608E-02  0.1015623E+00
         21   -1    0    0  503  502  0.00000000000E+00  0.00000000000E+00  0.77444588915E+03  0.77444588915E+03  0.00000000000E+00 0.  1.
         21   -1    0    0  501  503 -0.00000000000E+00 -0.00000000000E+00 -0.47682986171E+03  0.47682986171E+03  0.00000000000E+00 0.  1.
    9000005    1    1    2  501    0  0.28727111455E+03  0.22867110600E+02 -0.21697989567E+03  0.53863519485E+03  0.40000000000E+03 0.  1.
   -9000005    1    1    2    0  502 -0.28727111455E+03 -0.22867110600E+02  0.51459592311E+03  0.71264055602E+03  0.40000000000E+03 0.  1.
<mgrwt>
<rscale>  2 0.49299858E+03</rscale>
<asrwt>0</asrwt>
<pdfrwt beam="1">  1       21 0.11914552E+00 0.49299858E+03</pdfrwt>
<pdfrwt beam="2">  1       21 0.73358440E-01 0.49299858E+03</pdfrwt>
<totfact> 0.74430582E+02</totfact>
</mgrwt>
</event>
<event>
 4    1  0.4991790E-002  0.4919770E+03  0.7818608E-02  0.1015895E+00
         21   -1    0    0  503  502  0.00000000000E+00  0.00000000000E+00  0.41492495840E+03  0.41492495840E+03  0.00000000000E+00 0. -1.
         21   -1    0    0  501  503 -0.00000000000E+00 -0.00000000000E+00 -0.63691676450E+03  0.63691676450E+03  0.00000000000E+00 0. -1.
    9000005    1    1    2  501    0 -0.14644128214E+03  0.24616320123E+03  0.41541596376E+02  0.49372773366E+03  0.40000000000E+03 0. -1.
   -9000005    1    1    2    0  502  0.14644128214E+03 -0.24616320123E+03 -0.26353340247E+03  0.55811398923E+03  0.40000000000E+03 0. -1.
<mgrwt>
<rscale>  2 0.49197700E+03</rscale>
<asrwt>0</asrwt>
<pdfrwt beam="1">  1       21 0.63834609E-01 0.49197700E+03</pdfrwt>
<pdfrwt beam="2">  1       21 0.97987194E-01 0.49197700E+03</pdfrwt>
<totfact> 0.16524761E+03</totfact>
</mgrwt>
</event>
<event>
 4    1  0.4991790E-002  0.5138184E+03  0.7818608E-02  0.1010234E+00
         21   -1    0    0  501  502  0.00000000000E+00  0.00000000000E+00  0.46287730800E+03  0.46287730800E+03  0.00000000000E+00 0. -1.
         21   -1    0    0  502  503 -0.00000000000E+00 -0.00000000000E+00 -0.58264718200E+03  0.58264718200E+03  0.00000000000E+00 0. -1.
    9000005    1    1    2  501    0  0.61372985838E+02  0.31661133382E+03  0.16012172731E+02  0.51406786495E+03  0.40000000000E+03 0. -1.
   -9000005    1    1    2    0  503 -0.61372985838E+02 -0.31661133382E+03 -0.13578204673E+03  0.53145662505E+03  0.40000000000E+03 0. -1.
<mgrwt>
<rscale>  2 0.51381843E+03</rscale>
<asrwt>0</asrwt>
<pdfrwt beam="1">  1       21 0.71211894E-01 0.51381843E+03</pdfrwt>
<pdfrwt beam="2">  1       21 0.89638028E-01 0.51381843E+03</pdfrwt>
<totfact> 0.15888745E+03</totfact>
</mgrwt>
</event>
<event>
 4    1  0.4991790E-002  0.4088306E+03  0.7818608E-02  0.1040764E+00
         21   -1    0    0  501  502  0.00000000000E+00  0.00000000000E+00  0.48696422726E+03  0.48696422726E+03  0.00000000000E+00 0. -1.
         21   -1    0    0  502  503 -0.00000000000E+00 -0.00000000000E+00 -0.86647011223E+03  0.86647011223E+03  0.00000000000E+00 0. -1.
    9000005    1    1    2  501    0  0.42688153107E+02 -0.72939648095E+02  0.33611831619E+03  0.52926174352E+03  0.40000000000E+03 0. -1.
   -9000005    1    1    2    0  503 -0.42688153107E+02  0.72939648095E+02 -0.71562420115E+03  0.82417259597E+03  0.40000000000E+03 0. -1.
<mgrwt>
<rscale>  2 0.40883061E+03</rscale>
<asrwt>0</asrwt>
<pdfrwt beam="1">  1       21 0.74917574E-01 0.40883061E+03</pdfrwt>
<pdfrwt beam="2">  1       21 0.13330309E+00 0.40883061E+03</pdfrwt>
<totfact> 0.55148384E+02</totfact>
</mgrwt>
</event>
<event>
 4    1  0.4991790E-002  0.6028646E+03  0.7818608E-02  0.9899481E-01
         21   -1    0    0  501  502  0.00000000000E+00  0.00000000000E+00  0.39950818842E+03  0.39950818842E+03  0.00000000000E+00 0.  1.
         21   -1    0    0  502  503 -0.00000000000E+00 -0.00000000000E+00 -0.14073397243E+04  0.14073397243E+04  0.00000000000E+00 0. -1.
    9000005    1    1    2  501    0  0.44556266085E+03  0.70139881677E+02  0.33283427421E+02  0.60378263828E+03  0.40000000000E+03 0.  1.
   -9000005    1    1    2    0  503 -0.44556266085E+03 -0.70139881677E+02 -0.10411149633E+04  0.12030652745E+04  0.40000000000E+03 0.  1.
<mgrwt>
<rscale>  2 0.60286457E+03</rscale>
<asrwt>0</asrwt>
<pdfrwt beam="1">  1       21 0.61462798E-01 0.60286457E+03</pdfrwt>
<pdfrwt beam="2">  1       21 0.21651380E+00 0.60286457E+03</pdfrwt>
<totfact> 0.19503385E+02</totfact>
</mgrwt>
</event>
<event>
 4    1  0.4991790E-002  0.5098374E+03  0.7818608E-02  0.1011243E+00
         21   -1    0    0  503  502  0.00000000000E+00  0.00000000000E+00  0.39188617062E+03  0.39188617062E+03  0.00000000000E+00 0.  1.
         21   -1    0    0  501  503 -0.00000000000E+00 -0.00000000000E+00 -0.92614065267E+03  0.92614065267E+03  0.00000000000E+00 0.  1.
    9000005    1    1    2  501    0 -0.10694239863E+03 -0.29748522792E+03 -0.61821072118E+03  0.80132305173E+03  0.40000000000E+03 0.  1.
   -9000005    1    1    2    0  502  0.10694239863E+03  0.29748522792E+03  0.83956239134E+02  0.51670377156E+03  0.40000000000E+03 0.  1.
<mgrwt>
<rscale>  2 0.50983736E+03</rscale>
<asrwt>0</asrwt>
<pdfrwt beam="1">  1       21 0.60290181E-01 0.50983736E+03</pdfrwt>
<pdfrwt beam="2">  1       21 0.14248317E+00 0.50983736E+03</pdfrwt>
<totfact> 0.71909331E+02</totfact>
</mgrwt>
</event>
<event>
 4    1  0.4991790E-002  0.6887180E+03  0.7818608E-02  0.9736723E-01
         21   -1    0    0  501  502  0.00000000000E+00  0.00000000000E+00  0.19614247123E+04  0.19614247123E+04  0.00000000000E+00 0. -1.
         21   -1    0    0  502  503 -0.00000000000E+00 -0.00000000000E+00 -0.24393074512E+03  0.24393074512E+03  0.00000000000E+00 0.  1.
    9000005    1    1    2  501    0  0.54526427918E+03 -0.13045830299E+03  0.96106229255E+03  0.11823591811E+04  0.40000000000E+03 0.  1.
   -9000005    1    1    2    0  503 -0.54526427918E+03  0.13045830299E+03  0.75643167458E+03  0.10229962763E+04  0.40000000000E+03 0. -1.
<mgrwt>
<rscale>  2 0.68871801E+03</rscale>
<asrwt>0</asrwt>
<pdfrwt beam="1">  1       21 0.30175764E+00 0.68871801E+03</pdfrwt>
<pdfrwt beam="2">  1       21 0.37527808E-01 0.68871801E+03</pdfrwt>
<totfact> 0.15884824E+02</totfact>
</mgrwt>
</event>
<event>
 4    1  0.4991790E-002  0.4117023E+03  0.7818608E-02  0.1039801E+00
         21   -1    0    0  503  502  0.00000000000E+00  0.00000000000E+00  0.10216794419E+04  0.10216794419E+04  0.00000000000E+00 0. -1.
         21   -1    0    0  501  503 -0.00000000000E+00 -0.00000000000E+00 -0.17539127941E+03  0.17539127941E+03  0.00000000000E+00 0. -1.
    9000005    1    1    2  501    0  0.83335610111E+01 -0.97104723365E+02  0.28392463357E+03  0.50011196055E+03  0.40000000000E+03 0.  1.
   -9000005    1    1    2    0  502 -0.83335610111E+01  0.97104723365E+02  0.56236352895E+03  0.69695876078E+03  0.40000000000E+03 0.  1.
<mgrwt>
<rscale>  2 0.41170229E+03</rscale>
<asrwt>0</asrwt>
<pdfrwt beam="1">  1       21 0.15718145E+00 0.41170229E+03</pdfrwt>
<pdfrwt beam="2">  1       21 0.26983274E-01 0.41170229E+03</pdfrwt>
<totfact> 0.30213064E+03</totfact>
</mgrwt>
</event>
<event>
 4    1  0.4991790E-002  0.4571482E+03  0.7818608E-02  0.1025612E+00
         21   -1    0    0  503  502  0.00000000000E+00  0.00000000000E+00  0.21302231109E+03  0.21302231109E+03  0.00000000000E+00 0.  1.
         21   -1    0    0  501  503 -0.00000000000E+00 -0.00000000000E+00 -0.12117266233E+04  0.12117266233E+04  0.00000000000E+00 0.  1.
    9000005    1    1    2  501    0  0.18749075378E+03 -0.11760806113E+03 -0.81017481522E+03  0.93025140151E+03  0.40000000000E+03 0.  1.
   -9000005    1    1    2    0  502 -0.18749075378E+03  0.11760806113E+03 -0.18852949700E+03  0.49449753289E+03  0.40000000000E+03 0.  1.
<mgrwt>
<rscale>  2 0.45714816E+03</rscale>
<asrwt>0</asrwt>
<pdfrwt beam="1">  1       21 0.32772663E-01 0.45714816E+03</pdfrwt>
<pdfrwt beam="2">  1       21 0.18641948E+00 0.45714816E+03</pdfrwt>
<totfact> 0.12377674E+03</totfact>
</mgrwt>
</event>
<event>
 4    1  0.4991790E-002  0.4389641E+03  0.7818608E-02  0.1031065E+00
         21   -1    0    0  503  502  0.00000000000E+00  0.00000000000E+00  0.16733259890E+04  0.16733259890E+04  0.00000000000E+00 0.  1.
         21   -1    0    0  501  503 -0.00000000000E+00 -0.00000000000E+00 -0.30962198428E+03  0.30962198428E+03  0.00000000000E+00 0.  1.
    9000005    1    1    2  501    0 -0.12789648487E+03 -0.12779671583E+03 -0.10390802584E+03  0.45109465665E+03  0.40000000000E+03 0.  1.
   -9000005    1    1    2    0  502  0.12789648487E+03  0.12779671583E+03  0.14676120305E+04  0.15318533166E+04  0.40000000000E+03 0.  1.
<mgrwt>
<rscale>  2 0.43896413E+03</rscale>
<asrwt>0</asrwt>
<pdfrwt beam="1">  1       21 0.25743476E+00 0.43896413E+03</pdfrwt>
<pdfrwt beam="2">  1       21 0.47634153E-01 0.43896413E+03</pdfrwt>
<totfact> 0.20268743E+02</totfact>
</mgrwt>
</event>
<event>
 4    1  0.4991790E-002  0.4918617E+03  0.7818608E-02  0.1015925E+00
         21   -1    0    0  501  502  0.00000000000E+00  0.00000000000E+00  0.69793507158E+03  0.69793507158E+03  0.00000000000E+00 0. -1.
         21   -1    0    0  502  503 -0.00000000000E+00 -0.00000000000E+00 -0.78782798586E+03  0.78782798586E+03  0.00000000000E+00 0.  1.
    9000005    1    1    2  501    0  0.19526206886E+03  0.20928600599E+03  0.51098177905E+03  0.70924628047E+03  0.40000000000E+03 0. -1.
   -9000005    1    1    2    0  503 -0.19526206886E+03 -0.20928600599E+03 -0.60087469333E+03  0.77651677697E+03  0.40000000000E+03 0.  1.
<mgrwt>
<rscale>  2 0.49186168E+03</rscale>
<asrwt>0</asrwt>
<pdfrwt beam="1">  1       21 0.10737463E+00 0.49186168E+03</pdfrwt>
<pdfrwt beam="2">  1       21 0.12120431E+00 0.49186168E+03</pdfrwt>
<totfact> 0.28885444E+02</totfact>
</mgrwt>
</event>
<event>
 4    1  0.4991790E-002  0.4150640E+03  0.7818608E-02  0.1038685E+00
         21   -1    0    0  501  502  0.00000000000E+00  0.00000000000E+00  0.14100043463E+04  0.14100043463E+04  0.00000000000E+00 0. -1.
         21   -1    0    0  502  503 -0.00000000000E+00 -0.00000000000E+00 -0.13285974272E+03  0.13285974272E+03  0.00000000000E+00 0. -1.
    9000005    1    1    2  501    0  0.10670222552E+03 -0.29878893237E+02  0.85726124214E+03  0.95245732213E+03  0.40000000000E+03 0.  1.
   -9000005    1    1    2    0  503 -0.10670222552E+03  0.29878893237E+02  0.41988336143E+03  0.59040676690E+03  0.40000000000E+03 0.  1.
<mgrwt>
<rscale>  2 0.41506399E+03</rscale>
<asrwt>0</asrwt>
<pdfrwt beam="1">  1       21 0.21692374E+00 0.41506399E+03</pdfrwt>
<pdfrwt beam="2">  1       21 0.20439961E-01 0.41506399E+03</pdfrwt>
<totfact> 0.19898339E+03</totfact>
</mgrwt>
</event>
<event>
 4    1  0.4991790E-002  0.4336697E+03  0.7818608E-02  0.1032707E+00
         21   -1    0    0  503  502  0.00000000000E+00  0.00000000000E+00  0.32953900270E+03  0.32953900270E+03  0.00000000000E+00 0. -1.
         21   -1    0    0  501  503 -0.00000000000E+00 -0.00000000000E+00 -0.13556879204E+04  0.13556879204E+04  0.00000000000E+00 0. -1.
    9000005    1    1    2  501    0 -0.34673758847E+02 -0.16391210751E+03 -0.11542526240E+04  0.12330322658E+04  0.40000000000E+03 0. -1.
   -9000005    1    1    2    0  502  0.34673758847E+02  0.16391210751E+03  0.12810370628E+03  0.45219465731E+03  0.40000000000E+03 0. -1.
<mgrwt>
<rscale>  2 0.43366975E+03</rscale>
<asrwt>0</asrwt>
<pdfrwt beam="1">  1       21 0.50698307E-01 0.43366975E+03</pdfrwt>
<pdfrwt beam="2">  1       21 0.20856738E+00 0.43366975E+03</pdfrwt>
<totfact> 0.36088611E+02</totfact>
</mgrwt>
</event>
<event>
 4    1  0.4991790E-002  0.4556323E+03  0.7818608E-02  0.1026056E+00
         21   -1    0    0  501  502  0.00000000000E+00  0.00000000000E+00  0.60821157294E+03  0.60821157294E+03  0.00000000000E+00 0.  1.
         21   -1    0    0  502  503 -0.00000000000E+00 -0.00000000000E+00 -0.54166209294E+03  0.54166209294E+03  0.00000000000E+00 0. -1.
    9000005    1    1    2  501    0  0.11469175390E+03  0.18559793175E+03  0.38292293569E+03  0.59517288695E+03  0.40000000000E+03 0.  1.
   -9000005    1    1    2    0  503 -0.11469175390E+03 -0.18559793175E+03 -0.31637345570E+03  0.55470077893E+03  0.40000000000E+03 0. -1.
<mgrwt>
<rscale>  2 0.45563230E+03</rscale>
<asrwt>0</asrwt>
<pdfrwt beam="1">  1       21 0.93571010E-01 0.45563230E+03</pdfrwt>
<pdfrwt beam="2">  1       21 0.83332630E-01 0.45563230E+03</pdfrwt>
<totfact> 0.10213796E+03</totfact>
</mgrwt>
</event>
<event>
 4    1  0.4991790E-002  0.4251792E+03  0.7818608E-02  0.1035394E+00
         21   -1    0    0  501  502  0.00000000000E+00  0.00000000000E+00  0.46848688876E+03  0.46848688876E+03  0.00000000000E+00 0.  1.
         21   -1    0    0  502  503 -0.00000000000E+00 -0.00000000000E+00 -0.63007818078E+03  0.63007818078E+03  0.00000000000E+00 0.  1.
    9000005    1    1    2  501    0 -0.14402547362E+03  0.58297106087E+01  0.26116358653E+03  0.49898270662E+03  0.40000000000E+03 0.  1.
   -9000005    1    1    2    0  503  0.14402547362E+03 -0.58297106087E+01 -0.42275487856E+03  0.59958236292E+03  0.40000000000E+03 0.  1.
<mgrwt>
<rscale>  2 0.42517917E+03</rscale>
<asrwt>0</asrwt>
<pdfrwt beam="1">  1       21 0.72074906E-01 0.42517917E+03</pdfrwt>
<pdfrwt beam="2">  1       21 0.96935105E-01 0.42517917E+03</pdfrwt>
<totfact> 0.13259630E+03</totfact>
</mgrwt>
</event>
<event>
 4    1  0.4991790E-002  0.5848803E+03  0.7818608E-02  0.9937281E-01
         21   -1    0    0  503  502  0.00000000000E+00  0.00000000000E+00  0.55165327990E+03  0.55165327990E+03  0.00000000000E+00 0.  1.
         21   -1    0    0  501  503 -0.00000000000E+00 -0.00000000000E+00 -0.88360828474E+03  0.88360828474E+03  0.00000000000E+00 0. -1.
    9000005    1    1    2  501    0  0.26121484601E+03 -0.33741929582E+03 -0.55786478400E+03  0.80826857801E+03  0.40000000000E+03 0. -1.
   -9000005    1    1    2    0  502 -0.26121484601E+03  0.33741929582E+03  0.22590977916E+03  0.62699298664E+03  0.40000000000E+03 0.  1.
<mgrwt>
<rscale>  2 0.58488031E+03</rscale>
<asrwt>0</asrwt>
<pdfrwt beam="1">  1       21 0.84869736E-01 0.58488031E+03</pdfrwt>
<pdfrwt beam="2">  1       21 0.13593973E+00 0.58488031E+03</pdfrwt>
<totfact> 0.36451511E+02</totfact>
</mgrwt>
</event>
<event>
 4    1  0.4991790E-002  0.4318141E+03  0.7818608E-02  0.1033288E+00
         21   -1    0    0  503  502  0.00000000000E+00  0.00000000000E+00  0.58108985871E+03  0.58108985871E+03  0.00000000000E+00 0.  1.
         21   -1    0    0  501  503 -0.00000000000E+00 -0.00000000000E+00 -0.47207667073E+03  0.47207667073E+03  0.00000000000E+00 0.  1.
    9000005    1    1    2  501    0 -0.16093207264E+03 -0.23754162765E+02 -0.24349857331E+03  0.49573677235E+03  0.40000000000E+03 0.  1.
   -9000005    1    1    2    0  502  0.16093207264E+03  0.23754162765E+02  0.35251176128E+03  0.55742975710E+03  0.40000000000E+03 0.  1.
<mgrwt>
<rscale>  2 0.43181407E+03</rscale>
<asrwt>0</asrwt>
<pdfrwt beam="1">  1       21 0.89398439E-01 0.43181407E+03</pdfrwt>
<pdfrwt beam="2">  1       21 0.72627180E-01 0.43181407E+03</pdfrwt>
<totfact> 0.15762130E+03</totfact>
</mgrwt>
</event>
<event>
 4    1  0.4991790E-002  0.4208270E+03  0.7818608E-02  0.1036797E+00
         21   -1    0    0  503  502  0.00000000000E+00  0.00000000000E+00  0.17218715903E+04  0.17218715903E+04  0.00000000000E+00 0.  1.
         21   -1    0    0  501  503 -0.00000000000E+00 -0.00000000000E+00 -0.11751824792E+03  0.11751824792E+03  0.00000000000E+00 0.  1.
    9000005    1    1    2  501    0 -0.19235674847E+02 -0.12932644302E+03  0.47725926928E+03  0.63629533251E+03  0.40000000000E+03 0.  1.
   -9000005    1    1    2    0  502  0.19235674847E+02  0.12932644302E+03  0.11270940731E+04  0.12030945057E+04  0.40000000000E+03 0.  1.
<mgrwt>
<rscale>  2 0.42082697E+03</rscale>
<asrwt>0</asrwt>
<pdfrwt beam="1">  1       21 0.26490330E+00 0.42082697E+03</pdfrwt>
<pdfrwt beam="2">  1       21 0.18079732E-01 0.42082697E+03</pdfrwt>
<totfact> 0.12622252E+03</totfact>
</mgrwt>
</event>
<event>
 4    1  0.4991790E-002  0.7184473E+03  0.7818608E-02  0.9686195E-01
         21   -1    0    0  501  502  0.00000000000E+00  0.00000000000E+00  0.60003613321E+03  0.60003613321E+03  0.00000000000E+00 0.  1.
         21   -1    0    0  502  503 -0.00000000000E+00 -0.00000000000E+00 -0.92694806093E+03  0.92694806093E+03  0.00000000000E+00 0.  1.
    9000005    1    1    2  501    0 -0.59514851845E+03 -0.44326198981E+02 -0.36829474286E+03  0.80734601538E+03  0.40000000000E+03 0.  1.
   -9000005    1    1    2    0  503  0.59514851845E+03  0.44326198981E+02  0.41382815137E+02  0.71963817875E+03  0.40000000000E+03 0.  1.
<mgrwt>
<rscale>  2 0.71844733E+03</rscale>
<asrwt>0</asrwt>
<pdfrwt beam="1">  1       21 0.92313252E-01 0.71844733E+03</pdfrwt>
<pdfrwt beam="2">  1       21 0.14260739E+00 0.71844733E+03</pdfrwt>
<totfact> 0.25119752E+02</totfact>
</mgrwt>
</event>
<event>
 4    1  0.4991790E-002  0.5294168E+03  0.7818608E-02  0.1006374E+00
         21   -1    0    0  501  502  0.00000000000E+00  0.00000000000E+00  0.32331652380E+03  0.32331652380E+03  0.00000000000E+00 0.  1.
         21   -1    0    0  502  503 -0.00000000000E+00 -0.00000000000E+00 -0.19733543442E+04  0.19733543442E+04  0.00000000000E+00 0.  1.
    9000005    1    1    2  501    0  0.33870682901E+03 -0.74564271038E+02  0.34852585386E+02  0.53056276654E+03  0.40000000000E+03 0.  1.
   -9000005    1    1    2    0  503 -0.33870682901E+03  0.74564271038E+02 -0.16848904057E+04  0.17661081014E+04  0.40000000000E+03 0.  1.
<mgrwt>
<rscale>  2 0.52941680E+03</rscale>
<asrwt>0</asrwt>
<pdfrwt beam="1">  1       21 0.49741004E-01 0.52941680E+03</pdfrwt>
<pdfrwt beam="2">  1       21 0.30359297E+00 0.52941680E+03</pdfrwt>
<totfact> 0.92264757E+01</totfact>
</mgrwt>
</event>
<event>
 4    1  0.4991790E-002  0.4626640E+03  0.7818608E-02  0.1024011E+00
         21   -1    0    0  503  502  0.00000000000E+00  0.00000000000E+00  0.12918280504E+04  0.12918280504E+04  0.00000000000E+00 0. -1.
         21   -1    0    0  501  503 -0.00000000000E+00 -0.00000000000E+00 -0.17712417783E+03  0.17712417783E+03  0.00000000000E+00 0.  1.
    9000005    1    1    2  501    0  0.13488998863E+03  0.18937440704E+03  0.74386996341E+03  0.87601398250E+03  0.40000000000E+03 0.  1.
   -9000005    1    1    2    0  502 -0.13488998863E+03 -0.18937440704E+03  0.37083390920E+03  0.59293824576E+03  0.40000000000E+03 0.  1.
<mgrwt>
<rscale>  2 0.46266400E+03</rscale>
<asrwt>0</asrwt>
<pdfrwt beam="1">  1       21 0.19874277E+00 0.46266400E+03</pdfrwt>
<pdfrwt beam="2">  1       21 0.27249874E-01 0.46266400E+03</pdfrwt>
<totfact> 0.14690079E+03</totfact>
</mgrwt>
</event>
<event>
 4    1  0.4991790E-002  0.5626840E+03  0.7818608E-02  0.9986000E-01
         21   -1    0    0  501  502  0.00000000000E+00  0.00000000000E+00  0.77028530663E+03  0.77028530663E+03  0.00000000000E+00 0. -1.
         21   -1    0    0  502  503 -0.00000000000E+00 -0.00000000000E+00 -0.80084372687E+03  0.80084372687E+03  0.00000000000E+00 0.  1.
    9000005    1    1    2  501    0  0.22835614288E+03 -0.32321312811E+03 -0.56334721247E+03  0.79622442563E+03  0.40000000000E+03 0.  1.
   -9000005    1    1    2    0  503 -0.22835614288E+03  0.32321312811E+03  0.53278879223E+03  0.77490460787E+03  0.40000000000E+03 0. -1.
<mgrwt>
<rscale>  2 0.56268397E+03</rscale>
<asrwt>0</asrwt>
<pdfrwt beam="1">  1       21 0.11850543E+00 0.56268397E+03</pdfrwt>
<pdfrwt beam="2">  1       21 0.12320673E+00 0.56268397E+03</pdfrwt>
<totfact> 0.21007032E+02</totfact>
</mgrwt>
</event>
<event>
 4    1  0.4991790E-002  0.4558320E+03  0.7818608E-02  0.1025997E+00
         21   -1    0    0  503  502  0.00000000000E+00  0.00000000000E+00  0.18328111489E+04  0.18328111489E+04  0.00000000000E+00 0. -1.
         21   -1    0    0  501  503 -0.00000000000E+00 -0.00000000000E+00 -0.11518173137E+03  0.11518173137E+03  0.00000000000E+00 0. -1.
    9000005    1    1    2  501    0 -0.12316401692E+03 -0.18059198730E+03  0.73660494948E+03  0.86623881957E+03  0.40000000000E+03 0. -1.
   -9000005    1    1    2    0  502  0.12316401692E+03  0.18059198730E+03  0.98102446808E+03  0.10817540607E+04  0.40000000000E+03 0. -1.
<mgrwt>
<rscale>  2 0.45583203E+03</rscale>
<asrwt>0</asrwt>
<pdfrwt beam="1">  1       21 0.28197093E+00 0.45583203E+03</pdfrwt>
<pdfrwt beam="2">  1       21 0.17720268E-01 0.45583203E+03</pdfrwt>
<totfact> 0.10152152E+03</totfact>
</mgrwt>
</event>
<event>
 4    1  0.4991790E-002  0.5423841E+03  0.7818608E-02  0.1003272E+00
         21   -1    0    0  503  502  0.00000000000E+00  0.00000000000E+00  0.15733294347E+04  0.15733294347E+04  0.00000000000E+00 0. -1.
         21   -1    0    0  501  503 -0.00000000000E+00 -0.00000000000E+00 -0.20135967247E+03  0.20135967247E+03  0.00000000000E+00 0.  1.
    9000005    1    1    2  501    0 -0.83248605149E+02  0.35672142633E+03  0.92311493365E+03  0.10706641336E+04  0.40000000000E+03 0.  1.
   -9000005    1    1    2    0  502  0.83248605149E+02 -0.35672142633E+03  0.44885482858E+03  0.70402497356E+03  0.40000000000E+03 0.  1.
<mgrwt>
<rscale>  2 0.54238409E+03</rscale>
<asrwt>0</asrwt>
<pdfrwt beam="1">  1       21 0.24205068E+00 0.54238409E+03</pdfrwt>
<pdfrwt beam="2">  1       21 0.30978412E-01 0.54238409E+03</pdfrwt>
<totfact> 0.57943576E+02</totfact>
</mgrwt>
</event>
<event>
 4    1  0.4991790E-002  0.4238613E+03  0.7818608E-02  0.1035817E+00
         21   -1    0    0  501  502  0.00000000000E+00  0.00000000000E+00  0.16239332475E+03  0.16239332475E+03  0.00000000000E+00 0. -1.
         21   -1    0    0  502  503 -0.00000000000E+00 -0.00000000000E+00 -0.12618471269E+04  0.12618471269E+04  0.00000000000E+00 0. -1.
    9000005    1    1    2  501    0  0.82287190511E+02  0.11352199642E+03 -0.29971664887E+03  0.51912281303E+03  0.40000000000E+03 0. -1.
   -9000005    1    1    2    0  503 -0.82287190511E+02 -0.11352199642E+03 -0.79973715324E+03  0.90511763858E+03  0.40000000000E+03 0. -1.
<mgrwt>
<rscale>  2 0.42386133E+03</rscale>
<asrwt>0</asrwt>
<pdfrwt beam="1">  1       21 0.24983588E-01 0.42386133E+03</pdfrwt>
<pdfrwt beam="2">  1       21 0.19413033E+00 0.42386133E+03</pdfrwt>
<totfact> 0.19017444E+03</totfact>
</mgrwt>
</event>
<event>
 4    1  0.4991790E-002  0.5387505E+03  0.7818608E-02  0.1004132E+00
         21   -1    0    0  501  502  0.00000000000E+00  0.00000000000E+00  0.10661216905E+04  0.10661216905E+04  0.00000000000E+00 0. -1.
         21   -1    0    0  502  503 -0.00000000000E+00 -0.00000000000E+00 -0.33123087465E+03  0.33123087465E+03  0.00000000000E+00 0. -1.
    9000005    1    1    2  501    0 -0.21036701614E+03 -0.29325381606E+03  0.66227063314E+03  0.85372974274E+03  0.40000000000E+03 0. -1.
   -9000005    1    1    2    0  503  0.21036701614E+03  0.29325381606E+03  0.72620182720E+02  0.54362282242E+03  0.40000000000E+03 0. -1.
<mgrwt>
<rscale>  2 0.53875048E+03</rscale>
<asrwt>0</asrwt>
<pdfrwt beam="1">  1       21 0.16401872E+00 0.53875048E+03</pdfrwt>
<pdfrwt beam="2">  1       21 0.50958597E-01 0.53875048E+03</pdfrwt>
<totfact> 0.69539436E+02</totfact>
</mgrwt>
</event>
<event>
 4    1  0.4991790E-002  0.4424314E+03  0.7818608E-02  0.1030003E+00
         21   -1    0    0  501  502  0.00000000000E+00  0.00000000000E+00  0.12817552489E+03  0.12817552489E+03  0.00000000000E+00 0. -1.
         21   -1    0    0  502  503 -0.00000000000E+00 -0.00000000000E+00 -0.17316757458E+04  0.17316757458E+04  0.00000000000E+00 0. -1.
    9000005    1    1    2  501    0  0.16060930192E+03 -0.99750747310E+02 -0.48217730268E+03  0.65440087918E+03  0.40000000000E+03 0. -1.
   -9000005    1    1    2    0  503 -0.16060930192E+03  0.99750747310E+02 -0.11213229182E+04  0.12054503915E+04  0.40000000000E+03 0. -1.
<mgrwt>
<rscale>  2 0.44243142E+03</rscale>
<asrwt>0</asrwt>
<pdfrwt beam="1">  1       21 0.19719312E-01 0.44243142E+03</pdfrwt>
<pdfrwt beam="2">  1       21 0.26641165E+00 0.44243142E+03</pdfrwt>
<totfact> 0.10370448E+03</totfact>
</mgrwt>
</event>
<event>
 4    1  0.4991790E-002  0.4304567E+03  0.7818608E-02  0.1033716E+00
         21   -1    0    0  501  502  0.00000000000E+00  0.00000000000E+00  0.14812460903E+04  0.14812460903E+04  0.00000000000E+00 0. -1.
         21   -1    0    0  502  503 -0.00000000000E+00 -0.00000000000E+00 -0.13094044682E+03  0.13094044682E+03  0.00000000000E+00 0.  1.
    9000005    1    1    2  501    0 -0.14365930022E+03  0.68227654520E+02  0.84550367209E+03  0.94877261074E+03  0.40000000000E+03 0. -1.
   -9000005    1    1    2    0  503  0.14365930022E+03 -0.68227654520E+02  0.50480197136E+03  0.66341392635E+03  0.40000000000E+03 0.  1.
<mgrwt>
<rscale>  2 0.43045674E+03</rscale>
<asrwt>0</asrwt>
<pdfrwt beam="1">  1       21 0.22788400E+00 0.43045674E+03</pdfrwt>
<pdfrwt beam="2">  1       21 0.20144685E-01 0.43045674E+03</pdfrwt>
<totfact> 0.17301836E+03</totfact>
</mgrwt>
</event>
<event>
 4    1  0.4991790E-002  0.5024372E+03  0.7818608E-02  0.1013145E+00
         21   -1    0    0  503  502  0.00000000000E+00  0.00000000000E+00  0.31328446989E+03  0.31328446989E+03  0.00000000000E+00 0. -1.
         21   -1    0    0  501  503 -0.00000000000E+00 -0.00000000000E+00 -0.81107130175E+03  0.81107130175E+03  0.00000000000E+00 0.  1.
    9000005    1    1    2  501    0  0.29896434413E+03  0.55348182367E+02 -0.29423572940E+03  0.58225232057E+03  0.40000000000E+03 0.  1.
   -9000005    1    1    2    0  502 -0.29896434413E+03 -0.55348182367E+02 -0.20355110246E+03  0.54210345107E+03  0.40000000000E+03 0.  1.
<mgrwt>
<rscale>  2 0.50243716E+03</rscale>
<asrwt>0</asrwt>
<pdfrwt beam="1">  1       21 0.48197610E-01 0.50243716E+03</pdfrwt>
<pdfrwt beam="2">  1       21 0.12478020E+00 0.50243716E+03</pdfrwt>
<totfact> 0.16563263E+03</totfact>
</mgrwt>
</event>
<event>
 4    1  0.4991790E-002  0.4261232E+03  0.7818608E-02  0.1035092E+00
         21   -1    0    0  503  502  0.00000000000E+00  0.00000000000E+00  0.11310100505E+03  0.11310100505E+03  0.00000000000E+00 0. -1.
         21   -1    0    0  501  503 -0.00000000000E+00 -0.00000000000E+00 -0.17570442496E+04  0.17570442496E+04  0.00000000000E+00 0. -1.
    9000005    1    1    2  501    0 -0.13749470728E+03  0.51732074451E+02 -0.10966076079E+04  0.11764902242E+04  0.40000000000E+03 0. -1.
   -9000005    1    1    2    0  502  0.13749470728E+03 -0.51732074451E+02 -0.54733563671E+03  0.69365503045E+03  0.40000000000E+03 0. -1.
<mgrwt>
<rscale>  2 0.42612322E+03</rscale>
<asrwt>0</asrwt>
<pdfrwt beam="1">  1       21 0.17400154E-01 0.42612322E+03</pdfrwt>
<pdfrwt beam="2">  1       21 0.27031451E+00 0.42612322E+03</pdfrwt>
<totfact> 0.12545025E+03</totfact>
</mgrwt>
</event>
<event>
 4    1  0.4991790E-002  0.4935338E+03  0.7818608E-02  0.1015481E+00
         21   -1    0    0  501  502  0.00000000000E+00  0.00000000000E+00  0.41255098085E+03  0.41255098085E+03  0.00000000000E+00 0. -1.
         21   -1    0    0  502  503 -0.00000000000E+00 -0.00000000000E+00 -0.11521705659E+04  0.11521705659E+04  0.00000000000E+00 0. -1.
    9000005    1    1    2  501    0 -0.13818816633E+03  0.25392841035E+03 -0.91609948824E+03  0.10405834321E+04  0.40000000000E+03 0. -1.
   -9000005    1    1    2    0  503  0.13818816633E+03 -0.25392841035E+03  0.17647990324E+03  0.52413811457E+03  0.40000000000E+03 0. -1.
<mgrwt>
<rscale>  2 0.49353380E+03</rscale>
<asrwt>0</asrwt>
<pdfrwt beam="1">  1       21 0.63469382E-01 0.49353380E+03</pdfrwt>
<pdfrwt beam="2">  1       21 0.17725701E+00 0.49353380E+03</pdfrwt>
<totfact> 0.35139624E+02</totfact>
</mgrwt>
</event>
<event>
 4    1  0.4991790E-002  0.4231567E+03  0.7818608E-02  0.1036044E+00
         21   -1    0    0  501  502  0.00000000000E+00  0.00000000000E+00  0.71730044895E+03  0.71730044895E+03  0.00000000000E+00 0.  1.
         21   -1    0    0  502  503 -0.00000000000E+00 -0.00000000000E+00 -0.43158565990E+03  0.43158565990E+03  0.00000000000E+00 0.  1.
    9000005    1    1    2  501    0 -0.13806049949E+03  0.93694772176E+00  0.51584393128E+03  0.66720052520E+03  0.40000000000E+03 0.  1.
   -9000005    1    1    2    0  503  0.13806049949E+03 -0.93694772176E+00 -0.23012914223E+03  0.48168558365E+03  0.40000000000E+03 0.  1.
<mgrwt>
<rscale>  2 0.42315668E+03</rscale>
<asrwt>0</asrwt>
<pdfrwt beam="1">  1       21 0.11035392E+00 0.42315668E+03</pdfrwt>
<pdfrwt beam="2">  1       21 0.66397794E-01 0.42315668E+03</pdfrwt>
<totfact> 0.11617780E+03</totfact>
</mgrwt>
</event>
<event>
 4    1  0.4991790E-002  0.4446897E+03  0.7818608E-02  0.1029318E+00
         21   -1    0    0  503  502  0.00000000000E+00  0.00000000000E+00  0.89298655810E+03  0.89298655810E+03  0.00000000000E+00 0. -1.
         21   -1    0    0  501  503 -0.00000000000E+00 -0.00000000000E+00 -0.33576819507E+03  0.33576819507E+03  0.00000000000E+00 0. -1.
    9000005    1    1    2  501    0 -0.15312754617E+03  0.11958617866E+03 -0.79882796617E+02  0.45180765899E+03  0.40000000000E+03 0. -1.
   -9000005    1    1    2    0  502  0.15312754617E+03 -0.11958617866E+03  0.63710115966E+03  0.77694709418E+03  0.40000000000E+03 0. -1.
<mgrwt>
<rscale>  2 0.44468967E+03</rscale>
<asrwt>0</asrwt>
<pdfrwt beam="1">  1       21 0.13738255E+00 0.44468967E+03</pdfrwt>
<pdfrwt beam="2">  1       21 0.51656646E-01 0.44468967E+03</pdfrwt>
<totfact> 0.11374709E+03</totfact>
</mgrwt>
</event>
<event>
 4    1  0.4991790E-002  0.4742300E+03  0.7818608E-02  0.1020733E+00
         21   -1    0    0  503  502  0.00000000000E+00  0.00000000000E+00  0.95708042584E+03  0.95708042584E+03  0.00000000000E+00 0.  1.
         21   -1    0    0  501  503 -0.00000000000E+00 -0.00000000000E+00 -0.23562063910E+03  0.23562063910E+03  0.00000000000E+00 0. -1.
    9000005    1    1    2  501    0  0.52799692645E+02  0.24921132592E+03  0.32961721562E+03  0.57753060641E+03  0.40000000000E+03 0. -1.
   -9000005    1    1    2    0  502 -0.52799692645E+02 -0.24921132592E+03  0.39184257112E+03  0.61517045853E+03  0.40000000000E+03 0.  1.
<mgrwt>
<rscale>  2 0.47423000E+03</rscale>
<asrwt>0</asrwt>
<pdfrwt beam="1">  1       21 0.14724314E+00 0.47423000E+03</pdfrwt>
<pdfrwt beam="2">  1       21 0.36249330E-01 0.47423000E+03</pdfrwt>
<totfact> 0.19540224E+03</totfact>
</mgrwt>
</event>
<event>
 4    1  0.4991790E-002  0.6456283E+03  0.7818608E-02  0.9815017E-01
         21   -1    0    0  503  502  0.00000000000E+00  0.00000000000E+00  0.12943209996E+04  0.12943209996E+04  0.00000000000E+00 0.  1.
         21   -1    0    0  501  503 -0.00000000000E+00 -0.00000000000E+00 -0.32291206665E+03  0.32291206665E+03  0.00000000000E+00 0. -1.
    9000005    1    1    2  501    0  0.34721230761E+03  0.36916053822E+03  0.44392070203E+03  0.78351865276E+03  0.40000000000E+03 0.  1.
   -9000005    1    1    2    0  502 -0.34721230761E+03 -0.36916053822E+03  0.52748823096E+03  0.83371441353E+03  0.40000000000E+03 0. -1.
<mgrwt>
<rscale>  2 0.64562829E+03</rscale>
<asrwt>0</asrwt>
<pdfrwt beam="1">  1       21 0.19912630E+00 0.64562829E+03</pdfrwt>
<pdfrwt beam="2">  1       21 0.49678780E-01 0.64562829E+03</pdfrwt>
<totfact> 0.39820257E+02</totfact>
</mgrwt>
</event>
<event>
 4    1  0.4991790E-002  0.5357246E+03  0.7818608E-02  0.1004853E+00
         21   -1    0    0  503  502  0.00000000000E+00  0.00000000000E+00  0.15322899840E+04  0.15322899840E+04  0.00000000000E+00 0.  1.
         21   -1    0    0  501  503 -0.00000000000E+00 -0.00000000000E+00 -0.18741659320E+03  0.18741659320E+03  0.00000000000E+00 0.  1.
    9000005    1    1    2  501    0 -0.35528092040E+03 -0.27862720503E+02  0.65116794809E+03  0.84322035092E+03  0.40000000000E+03 0.  1.
   -9000005    1    1    2    0  502  0.35528092040E+03  0.27862720503E+02  0.69370544267E+03  0.87648622624E+03  0.40000000000E+03 0.  1.
<mgrwt>
<rscale>  2 0.53572462E+03</rscale>
<asrwt>0</asrwt>
<pdfrwt beam="1">  1       21 0.23573691E+00 0.53572462E+03</pdfrwt>
<pdfrwt beam="2">  1       21 0.28833323E-01 0.53572462E+03</pdfrwt>
<totfact> 0.73435748E+02</totfact>
</mgrwt>
</event>
<event>
 4    1  0.4991790E-002  0.4858676E+03  0.7818608E-02  0.1017535E+00
         21   -1    0    0  503  502  0.00000000000E+00  0.00000000000E+00  0.40141154063E+03  0.40141154063E+03  0.00000000000E+00 0.  1.
         21   -1    0    0  501  503 -0.00000000000E+00 -0.00000000000E+00 -0.68197609931E+03  0.68197609931E+03  0.00000000000E+00 0.  1.
    9000005    1    1    2  501    0  0.46920256115E+02 -0.27178258087E+03 -0.34126708077E+03  0.59374279121E+03  0.40000000000E+03 0.  1.
   -9000005    1    1    2    0  502 -0.46920256115E+02  0.27178258087E+03  0.60702522096E+02  0.48964484873E+03  0.40000000000E+03 0.  1.
<mgrwt>
<rscale>  2 0.48586756E+03</rscale>
<asrwt>0</asrwt>
<pdfrwt beam="1">  1       21 0.61755622E-01 0.48586756E+03</pdfrwt>
<pdfrwt beam="2">  1       21 0.10491940E+00 0.48586756E+03</pdfrwt>
<totfact> 0.15076868E+03</totfact>
</mgrwt>
</event>
<event>
 4    1  0.4991790E-002  0.5077808E+03  0.7818608E-02  0.1011768E+00
         21   -1    0    0  503  502  0.00000000000E+00  0.00000000000E+00  0.73523779583E+03  0.73523779583E+03  0.00000000000E+00 0.  1.
         21   -1    0    0  501  503 -0.00000000000E+00 -0.00000000000E+00 -0.39420488893E+03  0.39420488893E+03  0.00000000000E+00 0.  1.
    9000005    1    1    2  501    0  0.30812156187E+03  0.53874363475E+02  0.35813972274E+03  0.62137380451E+03  0.40000000000E+03 0.  1.
   -9000005    1    1    2    0  502 -0.30812156187E+03 -0.53874363475E+02 -0.17106815833E+02  0.50806888025E+03  0.40000000000E+03 0.  1.
<mgrwt>
<rscale>  2 0.50778080E+03</rscale>
<asrwt>0</asrwt>
<pdfrwt beam="1">  1       21 0.11311351E+00 0.50778080E+03</pdfrwt>
<pdfrwt beam="2">  1       21 0.60646906E-01 0.50778080E+03</pdfrwt>
<totfact> 0.12916235E+03</totfact>
</mgrwt>
</event>
<event>
 4    1  0.4991790E-002  0.6220381E+03  0.7818608E-02  0.9860710E-01
         21   -1    0    0  503  502  0.00000000000E+00  0.00000000000E+00  0.84173991817E+03  0.84173991817E+03  0.00000000000E+00 0.  1.
         21   -1    0    0  501  503 -0.00000000000E+00 -0.00000000000E+00 -0.51920477572E+03  0.51920477572E+03  0.00000000000E+00 0. -1.
    9000005    1    1    2  501    0  0.45818209728E+03 -0.13038604447E+03 -0.69135631591E+02  0.62586826922E+03  0.40000000000E+03 0. -1.
   -9000005    1    1    2    0  502 -0.45818209728E+03  0.13038604447E+03  0.39167077404E+03  0.73507642467E+03  0.40000000000E+03 0.  1.
<mgrwt>
<rscale>  2 0.62203807E+03</rscale>
<asrwt>0</asrwt>
<pdfrwt beam="1">  1       21 0.12949845E+00 0.62203807E+03</pdfrwt>
<pdfrwt beam="2">  1       21 0.79877658E-01 0.62203807E+03</pdfrwt>
<totfact> 0.47134233E+02</totfact>
</mgrwt>
</event>
<event>
 4    1  0.4991790E-002  0.4147120E+03  0.7818608E-02  0.1038801E+00
         21   -1    0    0  503  502  0.00000000000E+00  0.00000000000E+00  0.19964378966E+04  0.19964378966E+04  0.00000000000E+00 0. -1.
         21   -1    0    0  501  503 -0.00000000000E+00 -0.00000000000E+00 -0.93945403975E+02  0.93945403975E+02  0.00000000000E+00 0. -1.
    9000005    1    1    2  501    0 -0.79794532647E+02 -0.74959038728E+02  0.65010065079E+03  0.77111405193E+03  0.40000000000E+03 0. -1.
   -9000005    1    1    2    0  502  0.79794532647E+02  0.74959038728E+02  0.12523918418E+04  0.13192692487E+04  0.40000000000E+03 0. -1.
<mgrwt>
<rscale>  2 0.41471198E+03</rscale>
<asrwt>0</asrwt>
<pdfrwt beam="1">  1       21 0.30714426E+00 0.41471198E+03</pdfrwt>
<pdfrwt beam="2">  1       21 0.14453141E-01 0.41471198E+03</pdfrwt>
<totfact> 0.10717576E+03</totfact>
</mgrwt>
</event>
<event>
 4    1  0.4991790E-002  0.4890927E+03  0.7818608E-02  0.1016666E+00
         21   -1    0    0  501  502  0.00000000000E+00  0.00000000000E+00  0.12542305742E+04  0.12542305742E+04  0.00000000000E+00 0.  1.
         21   -1    0    0  502  503 -0.00000000000E+00 -0.00000000000E+00 -0.19450928731E+03  0.19450928731E+03  0.00000000000E+00 0.  1.
    9000005    1    1    2  501    0  0.65758873226E+02  0.27365568506E+03  0.42880764357E+03  0.65045188797E+03  0.40000000000E+03 0.  1.
   -9000005    1    1    2    0  503 -0.65758873226E+02 -0.27365568506E+03  0.63091364332E+03  0.79828797354E+03  0.40000000000E+03 0.  1.
<mgrwt>
<rscale>  2 0.48909269E+03</rscale>
<asrwt>0</asrwt>
<pdfrwt beam="1">  1       21 0.19295855E+00 0.48909269E+03</pdfrwt>
<pdfrwt beam="2">  1       21 0.29924506E-01 0.48909269E+03</pdfrwt>
<totfact> 0.13208825E+03</totfact>
</mgrwt>
</event>
<event>
 4    1  0.4991790E-002  0.7612275E+03  0.7818608E-02  0.9617899E-01
         21   -1    0    0  503  502  0.00000000000E+00  0.00000000000E+00  0.17877947790E+04  0.17877947790E+04  0.00000000000E+00 0.  1.
         21   -1    0    0  501  503 -0.00000000000E+00 -0.00000000000E+00 -0.47652002886E+03  0.47652002886E+03  0.00000000000E+00 0.  1.
    9000005    1    1    2  501    0 -0.41946948091E+02 -0.64630316431E+03  0.12958923350E+04  0.15029318915E+04  0.40000000000E+03 0.  1.
   -9000005    1    1    2    0  502  0.41946948091E+02  0.64630316431E+03  0.15382415189E+02  0.76138291637E+03  0.40000000000E+03 0.  1.
<mgrwt>
<rscale>  2 0.76122751E+03</rscale>
<asrwt>0</asrwt>
<pdfrwt beam="1">  1       21 0.27504535E+00 0.76122751E+03</pdfrwt>
<pdfrwt beam="2">  1       21 0.73310775E-01 0.76122751E+03</pdfrwt>
<totfact> 0.52755577E+01</totfact>
</mgrwt>
</event>
<event>
 4    1  0.4991790E-002  0.4003904E+03  0.7818608E-02  0.1043645E+00
         21   -1    0    0  503  502  0.00000000000E+00  0.00000000000E+00  0.38751206016E+03  0.38751206016E+03  0.00000000000E+00 0.  1.
         21   -1    0    0  501  503 -0.00000000000E+00 -0.00000000000E+00 -0.52637266629E+03  0.52637266629E+03  0.00000000000E+00 0.  1.
    9000005    1    1    2  501    0 -0.92753629619E+01 -0.15047284168E+02 -0.28084269569E+03  0.48906550976E+03  0.40000000000E+03 0. -1.
   -9000005    1    1    2    0  502  0.92753629619E+01  0.15047284168E+02  0.14198208955E+03  0.42481921669E+03  0.40000000000E+03 0. -1.
<mgrwt>
<rscale>  2 0.40039038E+03</rscale>
<asrwt>0</asrwt>
<pdfrwt beam="1">  1       21 0.59617240E-01 0.40039038E+03</pdfrwt>
<pdfrwt beam="2">  1       21 0.80980410E-01 0.40039038E+03</pdfrwt>
<totfact> 0.31191214E+03</totfact>
</mgrwt>
</event>
<event>
 4    1  0.4991790E-002  0.4042480E+03  0.7818608E-02  0.1042319E+00
         21   -1    0    0  503  502  0.00000000000E+00  0.00000000000E+00  0.65402653039E+03  0.65402653039E+03  0.00000000000E+00 0.  1.
         21   -1    0    0  501  503 -0.00000000000E+00 -0.00000000000E+00 -0.33726794984E+03  0.33726794984E+03  0.00000000000E+00 0.  1.
    9000005    1    1    2  501    0 -0.47327205800E+02 -0.34301742591E+02  0.41070138751E+03  0.57627433020E+03  0.40000000000E+03 0.  1.
   -9000005    1    1    2    0  502  0.47327205800E+02  0.34301742591E+02 -0.93942806957E+02  0.41502015003E+03  0.40000000000E+03 0.  1.
<mgrwt>
<rscale>  2 0.40424804E+03</rscale>
<asrwt>0</asrwt>
<pdfrwt beam="1">  1       21 0.10061947E+00 0.40424804E+03</pdfrwt>
<pdfrwt beam="2">  1       21 0.51887377E-01 0.40424804E+03</pdfrwt>
<totfact> 0.25149462E+03</totfact>
</mgrwt>
</event>
<event>
 4    1  0.4991790E-002  0.4237912E+03  0.7818608E-02  0.1035839E+00
         21   -1    0    0  501  502  0.00000000000E+00  0.00000000000E+00  0.11421713226E+04  0.11421713226E+04  0.00000000000E+00 0.  1.
         21   -1    0    0  502  503 -0.00000000000E+00 -0.00000000000E+00 -0.72416815118E+03  0.72416815118E+03  0.00000000000E+00 0.  1.
    9000005    1    1    2  501    0 -0.13657210148E+03 -0.30774543659E+02  0.10346660778E+04  0.11180934236E+04  0.40000000000E+03 0.  1.
   -9000005    1    1    2    0  503  0.13657210148E+03  0.30774543659E+02 -0.61666290638E+03  0.74824605014E+03  0.40000000000E+03 0.  1.
<mgrwt>
<rscale>  2 0.42379124E+03</rscale>
<asrwt>0</asrwt>
<pdfrwt beam="1">  1       21 0.17571867E+00 0.42379124E+03</pdfrwt>
<pdfrwt beam="2">  1       21 0.11141048E+00 0.42379124E+03</pdfrwt>
<totfact> 0.10006725E+02</totfact>
</mgrwt>
</event>
<event>
 4    1  0.4991790E-002  0.4020133E+03  0.7818608E-02  0.1043085E+00
         21   -1    0    0  501  502  0.00000000000E+00  0.00000000000E+00  0.93511789280E+03  0.93511789280E+03  0.00000000000E+00 0.  1.
         21   -1    0    0  502  503 -0.00000000000E+00 -0.00000000000E+00 -0.30509693032E+03  0.30509693032E+03  0.00000000000E+00 0.  1.
    9000005    1    1    2  501    0  0.11396939713E+02  0.38533002458E+02  0.72330796189E+03  0.82751984281E+03  0.40000000000E+03 0.  1.
   -9000005    1    1    2    0  503 -0.11396939713E+02 -0.38533002458E+02 -0.93286999402E+02  0.41269498031E+03  0.40000000000E+03 0.  1.
<mgrwt>
<rscale>  2 0.40201329E+03</rscale>
<asrwt>0</asrwt>
<pdfrwt beam="1">  1       21 0.14386429E+00 0.40201329E+03</pdfrwt>
<pdfrwt beam="2">  1       21 0.46937990E-01 0.40201329E+03</pdfrwt>
<totfact> 0.12562777E+03</totfact>
</mgrwt>
</event>
<event>
 4    1  0.4991790E-002  0.5778926E+03  0.7818608E-02  0.9952364E-01
         21   -1    0    0  503  502  0.00000000000E+00  0.00000000000E+00  0.18126081305E+04  0.18126081305E+04  0.00000000000E+00 0.  1.
         21   -1    0    0  501  503 -0.00000000000E+00 -0.00000000000E+00 -0.30471055710E+03  0.30471055710E+03  0.00000000000E+00 0. -1.
    9000005    1    1    2  501    0 -0.12212305328E+03  0.39880543991E+03  0.88295510380E+02  0.58459893619E+03  0.40000000000E+03 0. -1.
   -9000005    1    1    2    0  502  0.12212305328E+03 -0.39880543991E+03  0.14196020631E+04  0.15327197514E+04  0.40000000000E+03 0.  1.
<mgrwt>
<rscale>  2 0.57789257E+03</rscale>
<asrwt>0</asrwt>
<pdfrwt beam="1">  1       21 0.27886278E+00 0.57789257E+03</pdfrwt>
<pdfrwt beam="2">  1       21 0.46878548E-01 0.57789257E+03</pdfrwt>
<totfact> 0.14431922E+02</totfact>
</mgrwt>
</event>
<event>
 4    1  0.4991790E-002  0.4693315E+03  0.7818608E-02  0.1022109E+00
         21   -1    0    0  501  502  0.00000000000E+00  0.00000000000E+00  0.73437322551E+03  0.73437322551E+03  0.00000000000E+00 0. -1.
         21   -1    0    0  502  503 -0.00000000000E+00 -0.00000000000E+00 -0.32541251295E+03  0.32541251295E+03  0.00000000000E+00 0. -1.
    9000005    1    1    2  501    0  0.80128461597E+02  0.23205916733E+03  0.35271816605E+03  0.58709635679E+03  0.40000000000E+03 0. -1.
   -9000005    1    1    2    0  503 -0.80128461597E+02 -0.23205916733E+03  0.56242546508E+02  0.47268938166E+03  0.40000000000E+03 0. -1.
<mgrwt>
<rscale>  2 0.46933147E+03</rscale>
<asrwt>0</asrwt>
<pdfrwt beam="1">  1       21 0.11298050E+00 0.46933147E+03</pdfrwt>
<pdfrwt beam="2">  1       21 0.50063464E-01 0.46933147E+03</pdfrwt>
<totfact> 0.19892216E+03</totfact>
</mgrwt>
</event>
<event>
 4    1  0.4991790E-002  0.5495785E+03  0.7818608E-02  0.1001592E+00
         21   -1    0    0  503  502  0.00000000000E+00  0.00000000000E+00  0.77133853925E+03  0.77133853925E+03  0.00000000000E+00 0.  1.
         21   -1    0    0  501  503 -0.00000000000E+00 -0.00000000000E+00 -0.40878123414E+03  0.40878123414E+03  0.00000000000E+00 0. -1.
    9000005    1    1    2  501    0  0.22832616285E+03  0.29983941784E+03  0.30233837453E+03  0.62725194766E+03  0.40000000000E+03 0.  1.
   -9000005    1    1    2    0  502 -0.22832616285E+03 -0.29983941784E+03  0.60218930581E+02  0.55286782573E+03  0.40000000000E+03 0. -1.
<mgrwt>
<rscale>  2 0.54957849E+03</rscale>
<asrwt>0</asrwt>
<pdfrwt beam="1">  1       21 0.11866747E+00 0.54957849E+03</pdfrwt>
<pdfrwt beam="2">  1       21 0.62889421E-01 0.54957849E+03</pdfrwt>
<totfact> 0.10415404E+03</totfact>
</mgrwt>
</event>
<event>
 4    1  0.4991790E-002  0.5038599E+03  0.7818608E-02  0.1012776E+00
         21   -1    0    0  503  502  0.00000000000E+00  0.00000000000E+00  0.13643363232E+03  0.13643363232E+03  0.00000000000E+00 0.  1.
         21   -1    0    0  501  503 -0.00000000000E+00 -0.00000000000E+00 -0.18642915982E+04  0.18642915982E+04  0.00000000000E+00 0.  1.
    9000005    1    1    2  501    0  0.26602940736E+03 -0.15199723350E+03 -0.82059567685E+03  0.96293928647E+03  0.40000000000E+03 0.  1.
   -9000005    1    1    2    0  502 -0.26602940736E+03  0.15199723350E+03 -0.90726228902E+03  0.10377859440E+04  0.40000000000E+03 0.  1.
<mgrwt>
<rscale>  2 0.50385991E+03</rscale>
<asrwt>0</asrwt>
<pdfrwt beam="1">  1       21 0.20989792E-01 0.50385991E+03</pdfrwt>
<pdfrwt beam="2">  1       21 0.28681406E+00 0.50385991E+03</pdfrwt>
<totfact> 0.67168338E+02</totfact>
</mgrwt>
</event>
<event>
 4    1  0.4991790E-002  0.4675540E+03  0.7818608E-02  0.1022613E+00
         21   -1    0    0  501  502  0.00000000000E+00  0.00000000000E+00  0.19020154803E+03  0.19020154803E+03  0.00000000000E+00 0. -1.
         21   -1    0    0  502  503 -0.00000000000E+00 -0.00000000000E+00 -0.11799906782E+04  0.11799906782E+04  0.00000000000E+00 0.  1.
    9000005    1    1    2  501    0 -0.21958096602E+03 -0.10193607775E+03 -0.38448340128E+03  0.60533812902E+03  0.40000000000E+03 0. -1.
   -9000005    1    1    2    0  503  0.21958096602E+03  0.10193607775E+03 -0.60530572892E+03  0.76485409723E+03  0.40000000000E+03 0.  1.
<mgrwt>
<rscale>  2 0.46755402E+03</rscale>
<asrwt>0</asrwt>
<pdfrwt beam="1">  1       21 0.29261777E-01 0.46755402E+03</pdfrwt>
<pdfrwt beam="2">  1       21 0.18153702E+00 0.46755402E+03</pdfrwt>
<totfact> 0.16709330E+03</totfact>
</mgrwt>
</event>
<event>
 4    1  0.4991790E-002  0.6288004E+03  0.7818608E-02  0.9847392E-01
         21   -1    0    0  501  502  0.00000000000E+00  0.00000000000E+00  0.40286486139E+03  0.40286486139E+03  0.00000000000E+00 0.  1.
         21   -1    0    0  502  503 -0.00000000000E+00 -0.00000000000E+00 -0.10052107503E+04  0.10052107503E+04  0.00000000000E+00 0. -1.
    9000005    1    1    2  501    0  0.29143420008E+03 -0.38788669295E+03 -0.40942519435E+03  0.75034589978E+03  0.40000000000E+03 0. -1.
   -9000005    1    1    2    0  503 -0.29143420008E+03  0.38788669295E+03 -0.19292069457E+03  0.65772971192E+03  0.40000000000E+03 0.  1.
<mgrwt>
<rscale>  2 0.62880043E+03</rscale>
<asrwt>0</asrwt>
<pdfrwt beam="1">  1       21 0.61979209E-01 0.62880043E+03</pdfrwt>
<pdfrwt beam="2">  1       21 0.15464781E+00 0.62880043E+03</pdfrwt>
<totfact> 0.51886362E+02</totfact>
</mgrwt>
</event>
<event>
 4    1  0.4991790E-002  0.6156378E+03  0.7818608E-02  0.9873483E-01
         21   -1    0    0  503  502  0.00000000000E+00  0.00000000000E+00  0.77196080266E+03  0.77196080266E+03  0.00000000000E+00 0. -1.
         21   -1    0    0  501  503 -0.00000000000E+00 -0.00000000000E+00 -0.49133690196E+03  0.49133690196E+03  0.00000000000E+00 0.  1.
    9000005    1    1    2  501    0  0.46499398873E+03 -0.52825169667E+02  0.15756322034E+03  0.63548098044E+03  0.40000000000E+03 0.  1.
   -9000005    1    1    2    0  502 -0.46499398873E+03  0.52825169667E+02  0.12306068036E+03  0.62781672417E+03  0.40000000000E+03 0. -1.
<mgrwt>
<rscale>  2 0.61563781E+03</rscale>
<asrwt>0</asrwt>
<pdfrwt beam="1">  1       21 0.11876320E+00 0.61563781E+03</pdfrwt>
<pdfrwt beam="2">  1       21 0.75590293E-01 0.61563781E+03</pdfrwt>
<totfact> 0.67146948E+02</totfact>
</mgrwt>
</event>
<event>
 4    1  0.4991790E-002  0.5355174E+03  0.7818608E-02  0.1004903E+00
         21   -1    0    0  501  502  0.00000000000E+00  0.00000000000E+00  0.17450556556E+03  0.17450556556E+03  0.00000000000E+00 0.  1.
         21   -1    0    0  502  503 -0.00000000000E+00 -0.00000000000E+00 -0.16445491183E+04  0.16445491183E+04  0.00000000000E+00 0. -1.
    9000005    1    1    2  501    0  0.35454888575E+03  0.32772087325E+02 -0.75927435938E+03  0.92912672704E+03  0.40000000000E+03 0.  1.
   -9000005    1    1    2    0  503 -0.35454888575E+03 -0.32772087325E+02 -0.71076919332E+03  0.88992795678E+03  0.40000000000E+03 0. -1.
<mgrwt>
<rscale>  2 0.53551743E+03</rscale>
<asrwt>0</asrwt>
<pdfrwt beam="1">  1       21 0.26847011E-01 0.53551743E+03</pdfrwt>
<pdfrwt beam="2">  1       21 0.25300755E+00 0.53551743E+03</pdfrwt>
<totfact> 0.66018192E+02</totfact>
</mgrwt>
</event>
<event>
 4    1  0.4991790E-002  0.6730778E+03  0.7818608E-02  0.9764414E-01
         21   -1    0    0  501  502  0.00000000000E+00  0.00000000000E+00  0.66808820240E+03  0.66808820240E+03  0.00000000000E+00 0.  1.
         21   -1    0    0  502  503 -0.00000000000E+00 -0.00000000000E+00 -0.69633972824E+03  0.69633972824E+03  0.00000000000E+00 0. -1.
    9000005    1    1    2  501    0 -0.51573988231E+03  0.16445703494E+03  0.96272787966E+02  0.67992807873E+03  0.40000000000E+03 0.  1.
   -9000005    1    1    2    0  503  0.51573988231E+03 -0.16445703494E+03 -0.12452431380E+03  0.68449985192E+03  0.40000000000E+03 0.  1.
<mgrwt>
<rscale>  2 0.67307781E+03</rscale>
<asrwt>0</asrwt>
<pdfrwt beam="1">  1       21 0.10278280E+00 0.67307781E+03</pdfrwt>
<pdfrwt beam="2">  1       21 0.10712919E+00 0.67307781E+03</pdfrwt>
<totfact> 0.41153479E+02</totfact>
</mgrwt>
</event>
<event>
 4    1  0.4991790E-002  0.4329121E+03  0.7818608E-02  0.1032944E+00
         21   -1    0    0  501  502  0.00000000000E+00  0.00000000000E+00  0.10479680125E+04  0.10479680125E+04  0.00000000000E+00 0.  1.
         21   -1    0    0  502  503 -0.00000000000E+00 -0.00000000000E+00 -0.18443547971E+03  0.18443547971E+03  0.00000000000E+00 0.  1.
    9000005    1    1    2  501    0  0.53065428107E+02  0.15683414763E+03  0.32438446332E+03  0.54096041405E+03  0.40000000000E+03 0.  1.
   -9000005    1    1    2    0  503 -0.53065428107E+02 -0.15683414763E+03  0.53914806949E+03  0.69144307818E+03  0.40000000000E+03 0.  1.
<mgrwt>
<rscale>  2 0.43291210E+03</rscale>
<asrwt>0</asrwt>
<pdfrwt beam="1">  1       21 0.16122584E+00 0.43291210E+03</pdfrwt>
<pdfrwt beam="2">  1       21 0.28374690E-01 0.43291210E+03</pdfrwt>
<totfact> 0.25285347E+03</totfact>
</mgrwt>
</event>
<event>
 4    1  0.4991790E-002  0.5447186E+03  0.7818608E-02  0.1002724E+00
         21   -1    0    0  503  502  0.00000000000E+00  0.00000000000E+00  0.34428591631E+03  0.34428591631E+03  0.00000000000E+00 0.  1.
         21   -1    0    0  501  503 -0.00000000000E+00 -0.00000000000E+00 -0.87956805394E+03  0.87956805394E+03  0.00000000000E+00 0. -1.
    9000005    1    1    2  501    0 -0.16901780900E+01  0.36975062877E+03 -0.18075890458E+03  0.57392696902E+03  0.40000000000E+03 0.  1.
   -9000005    1    1    2    0  502  0.16901780900E+01 -0.36975062877E+03 -0.35452323305E+03  0.64992700124E+03  0.40000000000E+03 0.  1.
<mgrwt>
<rscale>  2 0.54471863E+03</rscale>
<asrwt>0</asrwt>
<pdfrwt beam="1">  1       21 0.52967065E-01 0.54471863E+03</pdfrwt>
<pdfrwt beam="2">  1       21 0.13531816E+00 0.54471863E+03</pdfrwt>
<totfact> 0.10801287E+03</totfact>
</mgrwt>
</event>
<event>
 4    1  0.4991790E-002  0.5705596E+03  0.7818608E-02  0.9968441E-01
         21   -1    0    0  501  502  0.00000000000E+00  0.00000000000E+00  0.88964895739E+03  0.88964895739E+03  0.00000000000E+00 0. -1.
         21   -1    0    0  502  503 -0.00000000000E+00 -0.00000000000E+00 -0.36737377184E+03  0.36737377184E+03  0.00000000000E+00 0.  1.
    9000005    1    1    2  501    0  0.50057549900E+02  0.40377287479E+03  0.22156889721E+03  0.61207113061E+03  0.40000000000E+03 0.  1.
   -9000005    1    1    2    0  503 -0.50057549900E+02 -0.40377287479E+03  0.30070628835E+03  0.64495159862E+03  0.40000000000E+03 0. -1.
<mgrwt>
<rscale>  2 0.57055963E+03</rscale>
<asrwt>0</asrwt>
<pdfrwt beam="1">  1       21 0.13686907E+00 0.57055963E+03</pdfrwt>
<pdfrwt beam="2">  1       21 0.56519042E-01 0.57055963E+03</pdfrwt>
<totfact> 0.90267473E+02</totfact>
</mgrwt>
</event>
<event>
 4    1  0.4991790E-002  0.4374097E+03  0.7818608E-02  0.1031545E+00
         21   -1    0    0  503  502  0.00000000000E+00  0.00000000000E+00  0.11423922833E+03  0.11423922833E+03  0.00000000000E+00 0. -1.
         21   -1    0    0  501  503 -0.00000000000E+00 -0.00000000000E+00 -0.17472090681E+04  0.17472090681E+04  0.00000000000E+00 0.  1.
    9000005    1    1    2  501    0 -0.14074519211E+03 -0.10732218039E+03 -0.10059637857E+04  0.10969459410E+04  0.40000000000E+03 0. -1.
   -9000005    1    1    2    0  502  0.14074519211E+03  0.10732218039E+03 -0.62700605413E+03  0.76450235541E+03  0.40000000000E+03 0. -1.
<mgrwt>
<rscale>  2 0.43740972E+03</rscale>
<asrwt>0</asrwt>
<pdfrwt beam="1">  1       21 0.17575267E-01 0.43740972E+03</pdfrwt>
<pdfrwt beam="2">  1       21 0.26880138E+00 0.43740972E+03</pdfrwt>
<totfact> 0.12499635E+03</totfact>
</mgrwt>
</event>
<event>
 4    1  0.4991790E-002  0.7318847E+03  0.7818608E-02  0.9664207E-01
         21   -1    0    0  501  502  0.00000000000E+00  0.00000000000E+00  0.31632604812E+03  0.31632604812E+03  0.00000000000E+00 0. -1.
         21   -1    0    0  502  503 -0.00000000000E+00 -0.00000000000E+00 -0.26598882222E+04  0.26598882222E+04  0.00000000000E+00 0. -1.
    9000005    1    1    2  501    0  0.22049228838E+03  0.57187272748E+03 -0.27474732453E+03  0.78175530571E+03  0.40000000000E+03 0. -1.
   -9000005    1    1    2    0  503 -0.22049228838E+03 -0.57187272748E+03 -0.20688148495E+04  0.21944589646E+04  0.40000000000E+03 0. -1.
<mgrwt>
<rscale>  2 0.73188474E+03</rscale>
<asrwt>0</asrwt>
<pdfrwt beam="1">  1       21 0.48665548E-01 0.73188474E+03</pdfrwt>
<pdfrwt beam="2">  1       21 0.40921355E+00 0.73188474E+03</pdfrwt>
<totfact> 0.19048144E+01</totfact>
</mgrwt>
</event>
<event>
 4    1  0.4991790E-002  0.7061296E+03  0.7818608E-02  0.9706807E-01
         21   -1    0    0  503  502  0.00000000000E+00  0.00000000000E+00  0.87321431476E+03  0.87321431476E+03  0.00000000000E+00 0.  1.
         21   -1    0    0  501  503 -0.00000000000E+00 -0.00000000000E+00 -0.65041617830E+03  0.65041617830E+03  0.00000000000E+00 0.  1.
    9000005    1    1    2  501    0 -0.58079207826E+03 -0.36049852743E+02  0.37757312160E+03  0.80073746772E+03  0.40000000000E+03 0.  1.
   -9000005    1    1    2    0  502  0.58079207826E+03  0.36049852743E+02 -0.15477498515E+03  0.72289302534E+03  0.40000000000E+03 0.  1.
<mgrwt>
<rscale>  2 0.70612961E+03</rscale>
<asrwt>0</asrwt>
<pdfrwt beam="1">  1       21 0.13434066E+00 0.70612961E+03</pdfrwt>
<pdfrwt beam="2">  1       21 0.10006403E+00 0.70612961E+03</pdfrwt>
<totfact> 0.24332384E+02</totfact>
</mgrwt>
</event>
<event>
 4    1  0.4991790E-002  0.4520396E+03  0.7818608E-02  0.1027116E+00
         21   -1    0    0  503  502  0.00000000000E+00  0.00000000000E+00  0.70614082175E+03  0.70614082175E+03  0.00000000000E+00 0. -1.
         21   -1    0    0  501  503 -0.00000000000E+00 -0.00000000000E+00 -0.40875390278E+03  0.40875390278E+03  0.00000000000E+00 0.  1.
    9000005    1    1    2  501    0 -0.11852951432E+03 -0.17404176426E+03 -0.15256272813E+03  0.47709031376E+03  0.40000000000E+03 0.  1.
   -9000005    1    1    2    0  502  0.11852951432E+03  0.17404176426E+03  0.44994964710E+03  0.63780441077E+03  0.40000000000E+03 0. -1.
<mgrwt>
<rscale>  2 0.45203958E+03</rscale>
<asrwt>0</asrwt>
<pdfrwt beam="1">  1       21 0.10863705E+00 0.45203958E+03</pdfrwt>
<pdfrwt beam="2">  1       21 0.62885216E-01 0.45203958E+03</pdfrwt>
<totfact> 0.13463707E+03</totfact>
</mgrwt>
</event>
<event>
 4    1  0.4991790E-002  0.4970103E+03  0.7818608E-02  0.1014562E+00
         21   -1    0    0  501  502  0.00000000000E+00  0.00000000000E+00  0.72459851061E+03  0.72459851061E+03  0.00000000000E+00 0. -1.
         21   -1    0    0  502  503 -0.00000000000E+00 -0.00000000000E+00 -0.37181392024E+03  0.37181392024E+03  0.00000000000E+00 0.  1.
    9000005    1    1    2  501    0  0.23226423372E+03  0.18185867714E+03  0.18331896110E+02  0.49734827951E+03  0.40000000000E+03 0.  1.
   -9000005    1    1    2    0  503 -0.23226423372E+03 -0.18185867714E+03  0.33445269426E+03  0.59906415134E+03  0.40000000000E+03 0. -1.
<mgrwt>
<rscale>  2 0.49701031E+03</rscale>
<asrwt>0</asrwt>
<pdfrwt beam="1">  1       21 0.11147669E+00 0.49701031E+03</pdfrwt>
<pdfrwt beam="2">  1       21 0.57202142E-01 0.49701031E+03</pdfrwt>
<totfact> 0.15283123E+03</totfact>
</mgrwt>
</event>
<event>
 4    1  0.4991790E-002  0.4255758E+03  0.7818608E-02  0.1035267E+00
         21   -1    0    0  503  502  0.00000000000E+00  0.00000000000E+00  0.98803624876E+03  0.98803624876E+03  0.00000000000E+00 0. -1.
         21   -1    0    0  501  503 -0.00000000000E+00 -0.00000000000E+00 -0.35558556069E+03  0.35558556069E+03  0.00000000000E+00 0. -1.
    9000005    1    1    2  501    0  0.14511539004E+03 -0.75037258699E+01 -0.15139086799E+03  0.45170120350E+03  0.40000000000E+03 0. -1.
   -9000005    1    1    2    0  502 -0.14511539004E+03  0.75037258699E+01  0.78384155605E+03  0.89192060596E+03  0.40000000000E+03 0. -1.
<mgrwt>
<rscale>  2 0.42557582E+03</rscale>
<asrwt>0</asrwt>
<pdfrwt beam="1">  1       21 0.15200558E+00 0.42557582E+03</pdfrwt>
<pdfrwt beam="2">  1       21 0.54705471E-01 0.42557582E+03</pdfrwt>
<totfact> 0.77324160E+02</totfact>
</mgrwt>
</event>
<event>
 4    1  0.4991790E-002  0.5175106E+03  0.7818608E-02  0.1009307E+00
         21   -1    0    0  501  502  0.00000000000E+00  0.00000000000E+00  0.57899681443E+03  0.57899681443E+03  0.00000000000E+00 0. -1.
         21   -1    0    0  502  503 -0.00000000000E+00 -0.00000000000E+00 -0.46298702471E+03  0.46298702471E+03  0.00000000000E+00 0. -1.
    9000005    1    1    2  501    0  0.18351512303E+03 -0.27228564060E+03  0.73938792090E+02  0.52276592796E+03  0.40000000000E+03 0. -1.
   -9000005    1    1    2    0  503 -0.18351512303E+03  0.27228564060E+03  0.42070997630E+02  0.51921791119E+03  0.40000000000E+03 0. -1.
<mgrwt>
<rscale>  2 0.51751065E+03</rscale>
<asrwt>0</asrwt>
<pdfrwt beam="1">  1       21 0.89076433E-01 0.51751065E+03</pdfrwt>
<pdfrwt beam="2">  1       21 0.71228773E-01 0.51751065E+03</pdfrwt>
<totfact> 0.16099115E+03</totfact>
</mgrwt>
</event>
<event>
 4    1  0.4991790E-002  0.4913059E+03  0.7818608E-02  0.1016073E+00
         21   -1    0    0  503  502  0.00000000000E+00  0.00000000000E+00  0.88202820696E+03  0.88202820696E+03  0.00000000000E+00 0.  1.
         21   -1    0    0  501  503 -0.00000000000E+00 -0.00000000000E+00 -0.41551780975E+03  0.41551780975E+03  0.00000000000E+00 0.  1.
    9000005    1    1    2  501    0 -0.31638324466E+02 -0.28351455739E+03 -0.14581074968E+03  0.51248635353E+03  0.40000000000E+03 0.  1.
   -9000005    1    1    2    0  502  0.31638324466E+02  0.28351455739E+03  0.61232114689E+03  0.78505966318E+03  0.40000000000E+03 0.  1.
<mgrwt>
<rscale>  2 0.49130590E+03</rscale>
<asrwt>0</asrwt>
<pdfrwt beam="1">  1       21 0.13569665E+00 0.49130590E+03</pdfrwt>
<pdfrwt beam="2">  1       21 0.63925817E-01 0.49130590E+03</pdfrwt>
<totfact> 0.72471239E+02</totfact>
</mgrwt>
</event>
<event>
 4    1  0.4991790E-002  0.4180999E+03  0.7818608E-02  0.1037686E+00
         21   -1    0    0  503  502  0.00000000000E+00  0.00000000000E+00  0.33860051145E+03  0.33860051145E+03  0.00000000000E+00 0. -1.
         21   -1    0    0  501  503 -0.00000000000E+00 -0.00000000000E+00 -0.58805339695E+03  0.58805339695E+03  0.00000000000E+00 0. -1.
    9000005    1    1    2  501    0 -0.56975953467E+02 -0.10752345329E+03  0.37158582218E+02  0.41974791544E+03  0.40000000000E+03 0. -1.
   -9000005    1    1    2    0  502  0.56975953467E+02  0.10752345329E+03 -0.28661146772E+03  0.50690599297E+03  0.40000000000E+03 0. -1.
<mgrwt>
<rscale>  2 0.41809993E+03</rscale>
<asrwt>0</asrwt>
<pdfrwt beam="1">  1       21 0.52092387E-01 0.41809993E+03</pdfrwt>
<pdfrwt beam="2">  1       21 0.90469753E-01 0.41809993E+03</pdfrwt>
<totfact> 0.31993807E+03</totfact>
</mgrwt>
</event>
<event>
 4    1  0.4991790E-002  0.4112565E+03  0.7818608E-02  0.1039950E+00
         21   -1    0    0  503  502  0.00000000000E+00  0.00000000000E+00  0.69217572334E+03  0.69217572334E+03  0.00000000000E+00 0.  1.
         21   -1    0    0  501  503 -0.00000000000E+00 -0.00000000000E+00 -0.35701440721E+03  0.35701440721E+03  0.00000000000E+00 0.  1.
    9000005    1    1    2  501    0 -0.11244229713E+02 -0.94897097011E+02 -0.12711800667E+03  0.43045427091E+03  0.40000000000E+03 0.  1.
   -9000005    1    1    2    0  502  0.11244229713E+02  0.94897097011E+02  0.46227932279E+03  0.61873585964E+03  0.40000000000E+03 0.  1.
<mgrwt>
<rscale>  2 0.41125648E+03</rscale>
<asrwt>0</asrwt>
<pdfrwt beam="1">  1       21 0.10648857E+00 0.41125648E+03</pdfrwt>
<pdfrwt beam="2">  1       21 0.54925294E-01 0.41125648E+03</pdfrwt>
<totfact> 0.19320181E+03</totfact>
</mgrwt>
</event>
<event>
 4    1  0.4991790E-002  0.5103796E+03  0.7818608E-02  0.1011105E+00
         21   -1    0    0  503  502  0.00000000000E+00  0.00000000000E+00  0.24398271683E+03  0.24398271683E+03  0.00000000000E+00 0.  1.
         21   -1    0    0  501  503 -0.00000000000E+00 -0.00000000000E+00 -0.13017986415E+04  0.13017986415E+04  0.00000000000E+00 0. -1.
    9000005    1    1    2  501    0 -0.19678851089E+03  0.24851885357E+03 -0.85669747844E+03  0.99720504821E+03  0.40000000000E+03 0. -1.
   -9000005    1    1    2    0  502  0.19678851089E+03 -0.24851885357E+03 -0.20111844621E+03  0.54857631010E+03  0.40000000000E+03 0.  1.
<mgrwt>
<rscale>  2 0.51037960E+03</rscale>
<asrwt>0</asrwt>
<pdfrwt beam="1">  1       21 0.37535802E-01 0.51037960E+03</pdfrwt>
<pdfrwt beam="2">  1       21 0.20027672E+00 0.51037960E+03</pdfrwt>
<totfact> 0.73970401E+02</totfact>
</mgrwt>
</event>
<event>
 4    1  0.4991790E-002  0.5170513E+03  0.7818608E-02  0.1009422E+00
         21   -1    0    0  503  502  0.00000000000E+00  0.00000000000E+00  0.21900317574E+03  0.21900317574E+03  0.00000000000E+00 0. -1.
         21   -1    0    0  501  503 -0.00000000000E+00 -0.00000000000E+00 -0.12961264236E+04  0.12961264236E+04  0.00000000000E+00 0. -1.
    9000005    1    1    2  501    0 -0.36473376110E+02 -0.32559437912E+03 -0.72128510341E+03  0.88746504567E+03  0.40000000000E+03 0. -1.
   -9000005    1    1    2    0  502  0.36473376110E+02  0.32559437912E+03 -0.35583814442E+03  0.62766455364E+03  0.40000000000E+03 0. -1.
<mgrwt>
<rscale>  2 0.51705126E+03</rscale>
<asrwt>0</asrwt>
<pdfrwt beam="1">  1       21 0.33692796E-01 0.51705126E+03</pdfrwt>
<pdfrwt beam="2">  1       21 0.19940407E+00 0.51705126E+03</pdfrwt>
<totfact> 0.93140957E+02</totfact>
</mgrwt>
</event>
<event>
 4    1  0.4991790E-002  0.4310088E+03  0.7818608E-02  0.1033542E+00
         21   -1    0    0  503  502  0.00000000000E+00  0.00000000000E+00  0.73881073454E+02  0.73881073454E+02  0.00000000000E+00 0.  1.
         21   -1    0    0  501  503 -0.00000000000E+00 -0.00000000000E+00 -0.25787136499E+04  0.25787136499E+04  0.00000000000E+00 0.  1.
    9000005    1    1    2  501    0 -0.27178119555E+01  0.16050307143E+03 -0.14618261633E+04  0.15240421104E+04  0.40000000000E+03 0.  1.
   -9000005    1    1    2    0  502  0.27178119555E+01 -0.16050307143E+03 -0.10430064132E+04  0.11285526130E+04  0.40000000000E+03 0.  1.
<mgrwt>
<rscale>  2 0.43100884E+03</rscale>
<asrwt>0</asrwt>
<pdfrwt beam="1">  1       21 0.11366320E-01 0.43100884E+03</pdfrwt>
<pdfrwt beam="2">  1       21 0.39672513E+00 0.43100884E+03</pdfrwt>
<totfact> 0.46315983E+02</totfact>
</mgrwt>
</event>
<event>
 4    1  0.4991790E-002  0.6359010E+03  0.7818608E-02  0.9833601E-01
         21   -1    0    0  503  502  0.00000000000E+00  0.00000000000E+00  0.27905261708E+03  0.27905261708E+03  0.00000000000E+00 0. -1.
         21   -1    0    0  501  503 -0.00000000000E+00 -0.00000000000E+00 -0.15027613181E+04  0.15027613181E+04  0.00000000000E+00 0.  1.
    9000005    1    1    2  501    0 -0.35502548357E+03 -0.34398694873E+03 -0.78023453679E+03  0.10065465947E+04  0.40000000000E+03 0. -1.
   -9000005    1    1    2    0  502  0.35502548357E+03  0.34398694873E+03 -0.44347416420E+03  0.77526734046E+03  0.40000000000E+03 0.  1.
<mgrwt>
<rscale>  2 0.63590103E+03</rscale>
<asrwt>0</asrwt>
<pdfrwt beam="1">  1       21 0.42931172E-01 0.63590103E+03</pdfrwt>
<pdfrwt beam="2">  1       21 0.23119405E+00 0.63590103E+03</pdfrwt>
<totfact> 0.33539777E+02</totfact>
</mgrwt>
</event>
<event>
 4    1  0.4991790E-002  0.5250645E+03  0.7818608E-02  0.1007436E+00
         21   -1    0    0  503  502  0.00000000000E+00  0.00000000000E+00  0.11198414322E+03  0.11198414322E+03  0.00000000000E+00 0.  1.
         21   -1    0    0  501  503 -0.00000000000E+00 -0.00000000000E+00 -0.29492869790E+04  0.29492869790E+04  0.00000000000E+00 0.  1.
    9000005    1    1    2  501    0  0.33051670032E+03  0.80320892362E+02 -0.20408862666E+04  0.21073465515E+04  0.40000000000E+03 0.  1.
   -9000005    1    1    2    0  502 -0.33051670032E+03 -0.80320892362E+02 -0.79641656912E+03  0.95392457066E+03  0.40000000000E+03 0.  1.
<mgrwt>
<rscale>  2 0.52506451E+03</rscale>
<asrwt>0</asrwt>
<pdfrwt beam="1">  1       21 0.17228329E-01 0.52506451E+03</pdfrwt>
<pdfrwt beam="2">  1       21 0.45373649E+00 0.52506451E+03</pdfrwt>
<totfact> 0.85097941E+01</totfact>
</mgrwt>
</event>
<event>
 4    1  0.4991790E-002  0.4073712E+03  0.7818608E-02  0.1041257E+00
         21   -1    0    0  503  502  0.00000000000E+00  0.00000000000E+00  0.18166423927E+04  0.18166423927E+04  0.00000000000E+00 0.  1.
         21   -1    0    0  501  503 -0.00000000000E+00 -0.00000000000E+00 -0.10588720976E+03  0.10588720976E+03  0.00000000000E+00 0.  1.
    9000005    1    1    2  501    0  0.74426652688E+02  0.20297823741E+02  0.12115442139E+04  0.12781982282E+04  0.40000000000E+03 0. -1.
   -9000005    1    1    2    0  502 -0.74426652688E+02 -0.20297823741E+02  0.49921096903E+03  0.64433137428E+03  0.40000000000E+03 0. -1.
<mgrwt>
<rscale>  2 0.40737124E+03</rscale>
<asrwt>0</asrwt>
<pdfrwt beam="1">  1       21 0.27948342E+00 0.40737124E+03</pdfrwt>
<pdfrwt beam="2">  1       21 0.16290341E-01 0.40737124E+03</pdfrwt>
<totfact> 0.12625679E+03</totfact>
</mgrwt>
</event>
<event>
 4    1  0.4991790E-002  0.4274893E+03  0.7818608E-02  0.1034656E+00
         21   -1    0    0  501  502  0.00000000000E+00  0.00000000000E+00  0.51433455129E+03  0.51433455129E+03  0.00000000000E+00 0.  1.
         21   -1    0    0  502  503 -0.00000000000E+00 -0.00000000000E+00 -0.91609998939E+03  0.91609998939E+03  0.00000000000E+00 0.  1.
    9000005    1    1    2  501    0  0.14973546992E+03 -0.18067097185E+02  0.35870412022E+03  0.55804639307E+03  0.40000000000E+03 0.  1.
   -9000005    1    1    2    0  503 -0.14973546992E+03  0.18067097185E+02 -0.76046955832E+03  0.87238814761E+03  0.40000000000E+03 0.  1.
<mgrwt>
<rscale>  2 0.42748933E+03</rscale>
<asrwt>0</asrwt>
<pdfrwt beam="1">  1       21 0.79128394E-01 0.42748933E+03</pdfrwt>
<pdfrwt beam="2">  1       21 0.14093846E+00 0.42748933E+03</pdfrwt>
<totfact> 0.41638914E+02</totfact>
</mgrwt>
</event>
<event>
 4    1  0.4991790E-002  0.4742595E+03  0.7818608E-02  0.1020725E+00
         21   -1    0    0  501  502  0.00000000000E+00  0.00000000000E+00  0.84237096588E+03  0.84237096588E+03  0.00000000000E+00 0.  1.
         21   -1    0    0  502  503 -0.00000000000E+00 -0.00000000000E+00 -0.26746245672E+03  0.26746245672E+03  0.00000000000E+00 0.  1.
    9000005    1    1    2  501    0  0.16219836712E+03 -0.19650390157E+03  0.31025926250E+03  0.56673000944E+03  0.40000000000E+03 0.  1.
   -9000005    1    1    2    0  503 -0.16219836712E+03  0.19650390157E+03  0.26464924666E+03  0.54310341316E+03  0.40000000000E+03 0.  1.
<mgrwt>
<rscale>  2 0.47425952E+03</rscale>
<asrwt>0</asrwt>
<pdfrwt beam="1">  1       21 0.12959553E+00 0.47425952E+03</pdfrwt>
<pdfrwt beam="2">  1       21 0.41148071E-01 0.47425952E+03</pdfrwt>
<totfact> 0.21129271E+03</totfact>
</mgrwt>
</event>
<event>
 4    1  0.4991790E-002  0.5271722E+03  0.7818608E-02  0.1006920E+00
         21   -1    0    0  501  502  0.00000000000E+00  0.00000000000E+00  0.13260864282E+04  0.13260864282E+04  0.00000000000E+00 0. -1.
         21   -1    0    0  502  503 -0.00000000000E+00 -0.00000000000E+00 -0.29642034727E+03  0.29642034727E+03  0.00000000000E+00 0.  1.
    9000005    1    1    2  501    0 -0.30931188831E+03 -0.14911958970E+03  0.75712791729E+02  0.53258137699E+03  0.40000000000E+03 0.  1.
   -9000005    1    1    2    0  503  0.30931188831E+03  0.14911958970E+03  0.95395328915E+03  0.10899253984E+04  0.40000000000E+03 0. -1.
<mgrwt>
<rscale>  2 0.52717217E+03</rscale>
<asrwt>0</asrwt>
<pdfrwt beam="1">  1       21 0.20401329E+00 0.52717217E+03</pdfrwt>
<pdfrwt beam="2">  1       21 0.45603131E-01 0.52717217E+03</pdfrwt>
<totfact> 0.46297662E+02</totfact>
</mgrwt>
</event>
<event>
 4    1  0.4991790E-002  0.4863842E+03  0.7818608E-02  0.1017395E+00
         21   -1    0    0  503  502  0.00000000000E+00  0.00000000000E+00  0.45626484250E+03  0.45626484250E+03  0.00000000000E+00 0. -1.
         21   -1    0    0  501  503 -0.00000000000E+00 -0.00000000000E+00 -0.76113782051E+03  0.76113782051E+03  0.00000000000E+00 0. -1.
    9000005    1    1    2  501    0  0.18119591881E+03  0.20913532984E+03 -0.49612043850E+03  0.69476977242E+03  0.40000000000E+03 0. -1.
   -9000005    1    1    2    0  502 -0.18119591881E+03 -0.20913532984E+03  0.19124746048E+03  0.52263289058E+03  0.40000000000E+03 0. -1.
<mgrwt>
<rscale>  2 0.48638416E+03</rscale>
<asrwt>0</asrwt>
<pdfrwt beam="1">  1       21 0.70194592E-01 0.48638416E+03</pdfrwt>
<pdfrwt beam="2">  1       21 0.11709813E+00 0.48638416E+03</pdfrwt>
<totfact> 0.86165008E+02</totfact>
</mgrwt>
</event>
<event>
 4    1  0.4991790E-002  0.4088919E+03  0.7818608E-02  0.1040743E+00
         21   -1    0    0  503  502  0.00000000000E+00  0.00000000000E+00  0.20467066470E+04  0.20467066470E+04  0.00000000000E+00 0. -1.
         21   -1    0    0  501  503 -0.00000000000E+00 -0.00000000000E+00 -0.42927115487E+03  0.42927115487E+03  0.00000000000E+00 0. -1.
    9000005    1    1    2  501    0  0.80501958125E+02 -0.26683488264E+02 -0.30526866061E+03  0.51027593414E+03  0.40000000000E+03 0. -1.
   -9000005    1    1    2    0  502 -0.80501958125E+02  0.26683488264E+02  0.19227041527E+04  0.19657018677E+04  0.40000000000E+03 0. -1.
<mgrwt>
<rscale>  2 0.40889189E+03</rscale>
<asrwt>0</asrwt>
<pdfrwt beam="1">  1       21 0.31487794E+00 0.40889189E+03</pdfrwt>
<pdfrwt beam="2">  1       21 0.66041717E-01 0.40889189E+03</pdfrwt>
<totfact> 0.45999862E+01</totfact>
</mgrwt>
</event>
<event>
 4    1  0.4991790E-002  0.5273574E+03  0.7818608E-02  0.1006875E+00
         21   -1    0    0  501  502  0.00000000000E+00  0.00000000000E+00  0.35174766887E+03  0.35174766887E+03  0.00000000000E+00 0. -1.
         21   -1    0    0  502  503 -0.00000000000E+00 -0.00000000000E+00 -0.11027365003E+04  0.11027365003E+04  0.00000000000E+00 0. -1.
    9000005    1    1    2  501    0  0.33013205390E+03 -0.95491643064E+02  0.11395561097E+02  0.52748050743E+03  0.40000000000E+03 0. -1.
   -9000005    1    1    2    0  503 -0.33013205390E+03  0.95491643064E+02 -0.76238439250E+03  0.92700366171E+03  0.40000000000E+03 0. -1.
<mgrwt>
<rscale>  2 0.52735740E+03</rscale>
<asrwt>0</asrwt>
<pdfrwt beam="1">  1       21 0.54115026E-01 0.52735740E+03</pdfrwt>
<pdfrwt beam="2">  1       21 0.16965177E+00 0.52735740E+03</pdfrwt>
<totfact> 0.55752063E+02</totfact>
</mgrwt>
</event>
<event>
 4    1  0.4991790E-002  0.6336318E+03  0.7818608E-02  0.9837987E-01
         21   -1    0    0  501  502  0.00000000000E+00  0.00000000000E+00  0.39670336319E+03  0.39670336319E+03  0.00000000000E+00 0.  1.
         21   -1    0    0  502  503 -0.00000000000E+00 -0.00000000000E+00 -0.10941030153E+04  0.10941030153E+04  0.00000000000E+00 0. -1.
    9000005    1    1    2  501    0  0.38824055982E+03  0.30126154185E+03 -0.14458620717E+03  0.64991877968E+03  0.40000000000E+03 0. -1.
   -9000005    1    1    2    0  503 -0.38824055982E+03 -0.30126154185E+03 -0.55281344491E+03  0.84088759877E+03  0.40000000000E+03 0.  1.
<mgrwt>
<rscale>  2 0.63363179E+03</rscale>
<asrwt>0</asrwt>
<pdfrwt beam="1">  1       21 0.61031287E-01 0.63363179E+03</pdfrwt>
<pdfrwt beam="2">  1       21 0.16832354E+00 0.63363179E+03</pdfrwt>
<totfact> 0.42185226E+02</totfact>
</mgrwt>
</event>
<event>
 4    1  0.4991790E-002  0.4444678E+03  0.7818608E-02  0.1029385E+00
         21   -1    0    0  503  502  0.00000000000E+00  0.00000000000E+00  0.92316975400E+02  0.92316975400E+02  0.00000000000E+00 0.  1.
         21   -1    0    0  501  503 -0.00000000000E+00 -0.00000000000E+00 -0.24196542826E+04  0.24196542826E+04  0.00000000000E+00 0. -1.
    9000005    1    1    2  501    0  0.96311188639E+02 -0.16815399967E+03 -0.15907152044E+04  0.16516435675E+04  0.40000000000E+03 0. -1.
   -9000005    1    1    2    0  502 -0.96311188639E+02  0.16815399967E+03 -0.73662210286E+03  0.86032769052E+03  0.40000000000E+03 0. -1.
<mgrwt>
<rscale>  2 0.44446779E+03</rscale>
<asrwt>0</asrwt>
<pdfrwt beam="1">  1       21 0.14202612E-01 0.44446779E+03</pdfrwt>
<pdfrwt beam="2">  1       21 0.37225449E+00 0.44446779E+03</pdfrwt>
<totfact> 0.43595407E+02</totfact>
</mgrwt>
</event>
<event>
 4    1  0.4991790E-002  0.4956147E+03  0.7818608E-02  0.1014930E+00
         21   -1    0    0  501  502  0.00000000000E+00  0.00000000000E+00  0.60858273596E+03  0.60858273596E+03  0.00000000000E+00 0. -1.
         21   -1    0    0  502  503 -0.00000000000E+00 -0.00000000000E+00 -0.63332413953E+03  0.63332413953E+03  0.00000000000E+00 0. -1.
    9000005    1    1    2  501    0  0.27277408148E+02  0.29135862899E+03  0.36159685793E+03  0.61350321543E+03  0.40000000000E+03 0. -1.
   -9000005    1    1    2    0  503 -0.27277408148E+02 -0.29135862899E+03 -0.38633826150E+03  0.62840366006E+03  0.40000000000E+03 0. -1.
<mgrwt>
<rscale>  2 0.49561468E+03</rscale>
<asrwt>0</asrwt>
<pdfrwt beam="1">  1       21 0.93628113E-01 0.49561468E+03</pdfrwt>
<pdfrwt beam="2">  1       21 0.97434483E-01 0.49561468E+03</pdfrwt>
<totfact> 0.69258836E+02</totfact>
</mgrwt>
</event>
<event>
 4    1  0.4991790E-002  0.4073742E+03  0.7818608E-02  0.1041256E+00
         21   -1    0    0  501  502  0.00000000000E+00  0.00000000000E+00  0.25060553848E+03  0.25060553848E+03  0.00000000000E+00 0. -1.
         21   -1    0    0  502  503 -0.00000000000E+00 -0.00000000000E+00 -0.76535251796E+03  0.76535251796E+03  0.00000000000E+00 0. -1.
    9000005    1    1    2  501    0 -0.68433459421E+02  0.35645385710E+02 -0.70893649524E+02  0.41349684574E+03  0.40000000000E+03 0. -1.
   -9000005    1    1    2    0  503  0.68433459421E+02 -0.35645385710E+02 -0.44385332996E+03  0.60246121071E+03  0.40000000000E+03 0. -1.
<mgrwt>
<rscale>  2 0.40737419E+03</rscale>
<asrwt>0</asrwt>
<pdfrwt beam="1">  1       21 0.38554699E-01 0.40737419E+03</pdfrwt>
<pdfrwt beam="2">  1       21 0.11774654E+00 0.40737419E+03</pdfrwt>
<totfact> 0.31680992E+03</totfact>
</mgrwt>
</event>
<event>
 4    1  0.4991790E-002  0.5032255E+03  0.7818608E-02  0.1012940E+00
         21   -1    0    0  501  502  0.00000000000E+00  0.00000000000E+00  0.11438730563E+04  0.11438730563E+04  0.00000000000E+00 0.  1.
         21   -1    0    0  502  503 -0.00000000000E+00 -0.00000000000E+00 -0.39135624926E+03  0.39135624926E+03  0.00000000000E+00 0. -1.
    9000005    1    1    2  501    0 -0.26341300313E+03 -0.15443270038E+03  0.88213591672E+03  0.10155784779E+04  0.40000000000E+03 0. -1.
   -9000005    1    1    2    0  503  0.26341300313E+03  0.15443270038E+03 -0.12961910964E+03  0.51965082772E+03  0.40000000000E+03 0. -1.
<mgrwt>
<rscale>  2 0.50322547E+03</rscale>
<asrwt>0</asrwt>
<pdfrwt beam="1">  1       21 0.17598047E+00 0.50322547E+03</pdfrwt>
<pdfrwt beam="2">  1       21 0.60208654E-01 0.50322547E+03</pdfrwt>
<totfact> 0.40150421E+02</totfact>
</mgrwt>
</event>
<event>
 4    1  0.4991790E-002  0.4544681E+03  0.7818608E-02  0.1026398E+00
         21   -1    0    0  501  502  0.00000000000E+00  0.00000000000E+00  0.19932476636E+03  0.19932476636E+03  0.00000000000E+00 0.  1.
         21   -1    0    0  502  503 -0.00000000000E+00 -0.00000000000E+00 -0.13018595857E+04  0.13018595857E+04  0.00000000000E+00 0. -1.
    9000005    1    1    2  501    0  0.12863238574E+03  0.17319063784E+03 -0.89033068231E+03  0.99961493164E+03  0.40000000000E+03 0. -1.
   -9000005    1    1    2    0  503 -0.12863238574E+03 -0.17319063784E+03 -0.21220413699E+03  0.50156942037E+03  0.40000000000E+03 0.  1.
<mgrwt>
<rscale>  2 0.45446814E+03</rscale>
<asrwt>0</asrwt>
<pdfrwt beam="1">  1       21 0.30665348E-01 0.45446814E+03</pdfrwt>
<pdfrwt beam="2">  1       21 0.20028609E+00 0.45446814E+03</pdfrwt>
<totfact> 0.11396279E+03</totfact>
</mgrwt>
</event>
<event>
 4    1  0.4991790E-002  0.4526201E+03  0.7818608E-02  0.1026944E+00
         21   -1    0    0  501  502  0.00000000000E+00  0.00000000000E+00  0.21191805623E+03  0.21191805623E+03  0.00000000000E+00 0.  1.
         21   -1    0    0  502  503 -0.00000000000E+00 -0.00000000000E+00 -0.10769113315E+04  0.10769113315E+04  0.00000000000E+00 0.  1.
    9000005    1    1    2  501    0 -0.20919569506E+03 -0.33197766451E+02 -0.22636067814E+03  0.50606727531E+03  0.40000000000E+03 0.  1.
   -9000005    1    1    2    0  503  0.20919569506E+03  0.33197766451E+02 -0.63863259709E+03  0.78276211239E+03  0.40000000000E+03 0.  1.
<mgrwt>
<rscale>  2 0.45262007E+03</rscale>
<asrwt>0</asrwt>
<pdfrwt beam="1">  1       21 0.32602778E-01 0.45262007E+03</pdfrwt>
<pdfrwt beam="2">  1       21 0.16567866E+00 0.45262007E+03</pdfrwt>
<totfact> 0.17626720E+03</totfact>
</mgrwt>
</event>
<event>
 4    1  0.4991790E-002  0.6555457E+03  0.7818608E-02  0.9796428E-01
         21   -1    0    0  501  502  0.00000000000E+00  0.00000000000E+00  0.12673520828E+04  0.12673520828E+04  0.00000000000E+00 0.  1.
         21   -1    0    0  502  503 -0.00000000000E+00 -0.00000000000E+00 -0.62859905549E+03  0.62859905549E+03  0.00000000000E+00 0.  1.
    9000005    1    1    2  501    0  0.49830811273E+03 -0.14638712027E+03  0.96272318783E+03  0.11647214691E+04  0.40000000000E+03 0.  1.
   -9000005    1    1    2    0  503 -0.49830811273E+03  0.14638712027E+03 -0.32397016052E+03  0.73122966919E+03  0.40000000000E+03 0.  1.
<mgrwt>
<rscale>  2 0.65554570E+03</rscale>
<asrwt>0</asrwt>
<pdfrwt beam="1">  1       21 0.19497724E+00 0.65554570E+03</pdfrwt>
<pdfrwt beam="2">  1       21 0.96707547E-01 0.65554570E+03</pdfrwt>
<totfact> 0.93191847E+01</totfact>
</mgrwt>
</event>
<event>
 4    1  0.4991790E-002  0.4870328E+03  0.7818608E-02  0.1017220E+00
         21   -1    0    0  503  502  0.00000000000E+00  0.00000000000E+00  0.39093345865E+03  0.39093345865E+03  0.00000000000E+00 0.  1.
         21   -1    0    0  501  503 -0.00000000000E+00 -0.00000000000E+00 -0.61353541511E+03  0.61353541511E+03  0.00000000000E+00 0. -1.
    9000005    1    1    2  501    0  0.26697414208E+03  0.76978667025E+02 -0.58504068644E+02  0.49053402916E+03  0.40000000000E+03 0.  1.
   -9000005    1    1    2    0  502 -0.26697414208E+03 -0.76978667025E+02 -0.16409788781E+03  0.51393484460E+03  0.40000000000E+03 0. -1.
<mgrwt>
<rscale>  2 0.48703276E+03</rscale>
<asrwt>0</asrwt>
<pdfrwt beam="1">  1       21 0.60143609E-01 0.48703276E+03</pdfrwt>
<pdfrwt beam="2">  1       21 0.94390063E-01 0.48703276E+03</pdfrwt>
<totfact> 0.20660272E+03</totfact>
</mgrwt>
</event>
<event>
 4    1  0.4991790E-002  0.5446113E+03  0.7818608E-02  0.1002749E+00
         21   -1    0    0  503  502  0.00000000000E+00  0.00000000000E+00  0.37947803336E+03  0.37947803336E+03  0.00000000000E+00 0.  1.
         21   -1    0    0  501  503 -0.00000000000E+00 -0.00000000000E+00 -0.10230399068E+04  0.10230399068E+04  0.00000000000E+00 0. -1.
    9000005    1    1    2  501    0  0.14113009736E+03 -0.34158999201E+03 -0.66245052087E+03  0.85757922061E+03  0.40000000000E+03 0. -1.
   -9000005    1    1    2    0  502 -0.14113009736E+03  0.34158999201E+03  0.18888647475E+02  0.54493871951E+03  0.40000000000E+03 0.  1.
<mgrwt>
<rscale>  2 0.54461126E+03</rscale>
<asrwt>0</asrwt>
<pdfrwt beam="1">  1       21 0.58381237E-01 0.54461126E+03</pdfrwt>
<pdfrwt beam="2">  1       21 0.15739075E+00 0.54461126E+03</pdfrwt>
<totfact> 0.58042016E+02</totfact>
</mgrwt>
</event>
<event>
 4    1  0.4991790E-002  0.4368696E+03  0.7818608E-02  0.1031712E+00
         21   -1    0    0  503  502  0.00000000000E+00  0.00000000000E+00  0.10740696756E+04  0.10740696756E+04  0.00000000000E+00 0. -1.
         21   -1    0    0  501  503 -0.00000000000E+00 -0.00000000000E+00 -0.21613625995E+03  0.21613625995E+03  0.00000000000E+00 0. -1.
    9000005    1    1    2  501    0  0.17436646575E+03 -0.21245405982E+02  0.15690126100E+03  0.46419073381E+03  0.40000000000E+03 0. -1.
   -9000005    1    1    2    0  502 -0.17436646575E+03  0.21245405982E+02  0.70103215465E+03  0.82601520174E+03  0.40000000000E+03 0. -1.
<mgrwt>
<rscale>  2 0.43686958E+03</rscale>
<asrwt>0</asrwt>
<pdfrwt beam="1">  1       21 0.16524149E+00 0.43686958E+03</pdfrwt>
<pdfrwt beam="2">  1       21 0.33251733E-01 0.43686958E+03</pdfrwt>
<totfact> 0.17181508E+03</totfact>
</mgrwt>
</event>
<event>
 4    1  0.4991790E-002  0.4400530E+03  0.7818608E-02  0.1030731E+00
         21   -1    0    0  501  502  0.00000000000E+00  0.00000000000E+00  0.21628881026E+03  0.21628881026E+03  0.00000000000E+00 0.  1.
         21   -1    0    0  502  503 -0.00000000000E+00 -0.00000000000E+00 -0.95763519250E+03  0.95763519250E+03  0.00000000000E+00 0.  1.
    9000005    1    1    2  501    0 -0.12225224101E+03 -0.13675176158E+03 -0.52040832312E+03  0.68152144317E+03  0.40000000000E+03 0.  1.
   -9000005    1    1    2    0  503  0.12225224101E+03  0.13675176158E+03 -0.22093805911E+03  0.49240255959E+03  0.40000000000E+03 0.  1.
<mgrwt>
<rscale>  2 0.44005301E+03</rscale>
<asrwt>0</asrwt>
<pdfrwt beam="1">  1       21 0.33275201E-01 0.44005301E+03</pdfrwt>
<pdfrwt beam="2">  1       21 0.14732849E+00 0.44005301E+03</pdfrwt>
<totfact> 0.23506194E+03</totfact>
</mgrwt>
</event>
<event>
 4    1  0.4991790E-002  0.4902168E+03  0.7818608E-02  0.1016364E+00
         21   -1    0    0  501  502  0.00000000000E+00  0.00000000000E+00  0.23297985358E+03  0.23297985358E+03  0.00000000000E+00 0.  1.
         21   -1    0    0  502  503 -0.00000000000E+00 -0.00000000000E+00 -0.14528194458E+04  0.14528194458E+04  0.00000000000E+00 0.  1.
    9000005    1    1    2  501    0 -0.20204340858E+03  0.19872326208E+03 -0.15598903057E+03  0.51443663507E+03  0.40000000000E+03 0.  1.
   -9000005    1    1    2    0  503  0.20204340858E+03 -0.19872326208E+03 -0.10638505616E+04  0.11713626643E+04  0.40000000000E+03 0.  1.
<mgrwt>
<rscale>  2 0.49021676E+03</rscale>
<asrwt>0</asrwt>
<pdfrwt beam="1">  1       21 0.35843054E-01 0.49021676E+03</pdfrwt>
<pdfrwt beam="2">  1       21 0.22351068E+00 0.49021676E+03</pdfrwt>
<totfact> 0.57810368E+02</totfact>
</mgrwt>
</event>
<event>
 4    1  0.4991790E-002  0.4072627E+03  0.7818608E-02  0.1041293E+00
         21   -1    0    0  501  502  0.00000000000E+00  0.00000000000E+00  0.19280150090E+03  0.19280150090E+03  0.00000000000E+00 0. -1.
         21   -1    0    0  502  503 -0.00000000000E+00 -0.00000000000E+00 -0.95952675188E+03  0.95952675188E+03  0.00000000000E+00 0. -1.
    9000005    1    1    2  501    0 -0.21339022826E+02 -0.73535915680E+02 -0.56866468747E+03  0.69945865608E+03  0.40000000000E+03 0. -1.
   -9000005    1    1    2    0  503  0.21339022826E+02  0.73535915680E+02 -0.19806056351E+03  0.45286959669E+03  0.40000000000E+03 0. -1.
<mgrwt>
<rscale>  2 0.40726267E+03</rscale>
<asrwt>0</asrwt>
<pdfrwt beam="1">  1       21 0.29661769E-01 0.40726267E+03</pdfrwt>
<pdfrwt beam="2">  1       21 0.14761950E+00 0.40726267E+03</pdfrwt>
<totfact> 0.29801804E+03</totfact>
</mgrwt>
</event>
<event>
 4    1  0.4991790E-002  0.5884595E+03  0.7818608E-02  0.9929643E-01
         21   -1    0    0  503  502  0.00000000000E+00  0.00000000000E+00  0.98895107147E+03  0.98895107147E+03  0.00000000000E+00 0.  1.
         21   -1    0    0  501  503 -0.00000000000E+00 -0.00000000000E+00 -0.55187007505E+03  0.55187007505E+03  0.00000000000E+00 0. -1.
    9000005    1    1    2  501    0  0.29886829966E+03 -0.31138767065E+03 -0.24723297817E+03  0.63828574124E+03  0.40000000000E+03 0. -1.
   -9000005    1    1    2    0  502 -0.29886829966E+03  0.31138767065E+03  0.68431397459E+03  0.90253540528E+03  0.40000000000E+03 0.  1.
<mgrwt>
<rscale>  2 0.58845947E+03</rscale>
<asrwt>0</asrwt>
<pdfrwt beam="1">  1       21 0.15214632E+00 0.58845947E+03</pdfrwt>
<pdfrwt beam="2">  1       21 0.84903089E-01 0.58845947E+03</pdfrwt>
<totfact> 0.26818017E+02</totfact>
</mgrwt>
</event>
<event>
 4    1  0.4991790E-002  0.4611465E+03  0.7818608E-02  0.1024449E+00
         21   -1    0    0  503  502  0.00000000000E+00  0.00000000000E+00  0.49066418082E+03  0.49066418082E+03  0.00000000000E+00 0.  1.
         21   -1    0    0  501  503 -0.00000000000E+00 -0.00000000000E+00 -0.49207430006E+03  0.49207430006E+03  0.00000000000E+00 0.  1.
    9000005    1    1    2  501    0 -0.16480871797E+03 -0.15966904238E+03 -0.17037289981E+03  0.49161269471E+03  0.40000000000E+03 0.  1.
   -9000005    1    1    2    0  502  0.16480871797E+03  0.15966904238E+03  0.16896278058E+03  0.49112578616E+03  0.40000000000E+03 0.  1.
<mgrwt>
<rscale>  2 0.46114652E+03</rscale>
<asrwt>0</asrwt>
<pdfrwt beam="1">  1       21 0.75486797E-01 0.46114652E+03</pdfrwt>
<pdfrwt beam="2">  1       21 0.75703739E-01 0.46114652E+03</pdfrwt>
<totfact> 0.21007566E+03</totfact>
</mgrwt>
</event>
<event>
 4    1  0.4991790E-002  0.5023412E+03  0.7818608E-02  0.1013170E+00
         21   -1    0    0  501  502  0.00000000000E+00  0.00000000000E+00  0.16965463469E+03  0.16965463469E+03  0.00000000000E+00 0. -1.
         21   -1    0    0  502  503 -0.00000000000E+00 -0.00000000000E+00 -0.15084295347E+04  0.15084295347E+04  0.00000000000E+00 0. -1.
    9000005    1    1    2  501    0  0.90240763152E+02  0.29017800786E+03 -0.57035172317E+03  0.76003142020E+03  0.40000000000E+03 0. -1.
   -9000005    1    1    2    0  503 -0.90240763152E+02 -0.29017800786E+03 -0.76842317688E+03  0.91805274922E+03  0.40000000000E+03 0. -1.
<mgrwt>
<rscale>  2 0.50234119E+03</rscale>
<asrwt>0</asrwt>
<pdfrwt beam="1">  1       21 0.26100714E-01 0.50234119E+03</pdfrwt>
<pdfrwt beam="2">  1       21 0.23206607E+00 0.50234119E+03</pdfrwt>
<totfact> 0.95579391E+02</totfact>
</mgrwt>
</event>
<event>
 4    1  0.4991790E-002  0.5632044E+03  0.7818608E-02  0.9984830E-01
         21   -1    0    0  501  502  0.00000000000E+00  0.00000000000E+00  0.11844948840E+04  0.11844948840E+04  0.00000000000E+00 0.  1.
         21   -1    0    0  502  503 -0.00000000000E+00 -0.00000000000E+00 -0.27035972225E+03  0.27035972225E+03  0.00000000000E+00 0.  1.
    9000005    1    1    2  501    0  0.39622310568E+03 -0.14366760310E+02  0.52794834789E+03  0.77196412567E+03  0.40000000000E+03 0.  1.
   -9000005    1    1    2    0  503 -0.39622310568E+03  0.14366760310E+02  0.38618681389E+03  0.68289048061E+03  0.40000000000E+03 0.  1.
<mgrwt>
<rscale>  2 0.56320436E+03</rscale>
<asrwt>0</asrwt>
<pdfrwt beam="1">  1       21 0.18222998E+00 0.56320436E+03</pdfrwt>
<pdfrwt beam="2">  1       21 0.41593804E-01 0.56320436E+03</pdfrwt>
<totfact> 0.78023996E+02</totfact>
</mgrwt>
</event>
<event>
 4    1  0.4991790E-002  0.4402827E+03  0.7818608E-02  0.1030660E+00
         21   -1    0    0  501  502  0.00000000000E+00  0.00000000000E+00  0.58956826806E+03  0.58956826806E+03  0.00000000000E+00 0. -1.
         21   -1    0    0  502  503 -0.00000000000E+00 -0.00000000000E+00 -0.62178061347E+03  0.62178061347E+03  0.00000000000E+00 0.  1.
    9000005    1    1    2  501    0  0.13354535409E+03  0.12654839439E+03  0.39965276579E+03  0.59461852555E+03  0.40000000000E+03 0. -1.
   -9000005    1    1    2    0  503 -0.13354535409E+03 -0.12654839439E+03 -0.43186511120E+03  0.61673035599E+03  0.40000000000E+03 0.  1.
<mgrwt>
<rscale>  2 0.44028270E+03</rscale>
<asrwt>0</asrwt>
<pdfrwt beam="1">  1       21 0.90702810E-01 0.44028270E+03</pdfrwt>
<pdfrwt beam="2">  1       21 0.95658556E-01 0.44028270E+03</pdfrwt>
<totfact> 0.79894629E+02</totfact>
</mgrwt>
</event>
<event>
 4    1  0.4991790E-002  0.5413769E+03  0.7818608E-02  0.1003510E+00
         21   -1    0    0  501  502  0.00000000000E+00  0.00000000000E+00  0.11432970580E+04  0.11432970580E+04  0.00000000000E+00 0.  1.
         21   -1    0    0  502  503 -0.00000000000E+00 -0.00000000000E+00 -0.25721227289E+03  0.25721227289E+03  0.00000000000E+00 0.  1.
    9000005    1    1    2  501    0 -0.29346846228E+03  0.21671452405E+03  0.48348971970E+03  0.72584518483E+03  0.40000000000E+03 0.  1.
   -9000005    1    1    2    0  503  0.29346846228E+03 -0.21671452405E+03  0.40259506540E+03  0.67466414605E+03  0.40000000000E+03 0.  1.
<mgrwt>
<rscale>  2 0.54137688E+03</rscale>
<asrwt>0</asrwt>
<pdfrwt beam="1">  1       21 0.17589185E+00 0.54137688E+03</pdfrwt>
<pdfrwt beam="2">  1       21 0.39571120E-01 0.54137688E+03</pdfrwt>
<totfact> 0.96771950E+02</totfact>
</mgrwt>
</event>
<event>
 4    1  0.4991790E-002  0.4407845E+03  0.7818608E-02  0.1030506E+00
         21   -1    0    0  503  502  0.00000000000E+00  0.00000000000E+00  0.25354810383E+03  0.25354810383E+03  0.00000000000E+00 0.  1.
         21   -1    0    0  501  503 -0.00000000000E+00 -0.00000000000E+00 -0.82521879336E+03  0.82521879336E+03  0.00000000000E+00 0.  1.
    9000005    1    1    2  501    0 -0.33428857007E+02 -0.18213589380E+03 -0.42997474451E+03  0.61576720699E+03  0.40000000000E+03 0.  1.
   -9000005    1    1    2    0  502  0.33428857007E+02  0.18213589380E+03 -0.14169594502E+03  0.46299969020E+03  0.40000000000E+03 0.  1.
<mgrwt>
<rscale>  2 0.44078450E+03</rscale>
<asrwt>0</asrwt>
<pdfrwt beam="1">  1       21 0.39007401E-01 0.44078450E+03</pdfrwt>
<pdfrwt beam="2">  1       21 0.12695674E+00 0.44078450E+03</pdfrwt>
<totfact> 0.25193013E+03</totfact>
</mgrwt>
</event>
<event>
 4    1  0.4991790E-002  0.4320323E+03  0.7818608E-02  0.1033220E+00
         21   -1    0    0  501  502  0.00000000000E+00  0.00000000000E+00  0.27189116641E+03  0.27189116641E+03  0.00000000000E+00 0.  1.
         21   -1    0    0  502  503 -0.00000000000E+00 -0.00000000000E+00 -0.71793655020E+03  0.71793655020E+03  0.00000000000E+00 0.  1.
    9000005    1    1    2  501    0  0.16195844968E+03  0.20527788305E+02 -0.32659376504E+03  0.54158601983E+03  0.40000000000E+03 0.  1.
   -9000005    1    1    2    0  503 -0.16195844968E+03 -0.20527788305E+02 -0.11945161875E+03  0.44824169678E+03  0.40000000000E+03 0.  1.
<mgrwt>
<rscale>  2 0.43203232E+03</rscale>
<asrwt>0</asrwt>
<pdfrwt beam="1">  1       21 0.41829411E-01 0.43203232E+03</pdfrwt>
<pdfrwt beam="2">  1       21 0.11045178E+00 0.43203232E+03</pdfrwt>
<totfact> 0.31119164E+03</totfact>
</mgrwt>
</event>
<event>
 4    1  0.4991790E-002  0.5626347E+03  0.7818608E-02  0.9986111E-01
         21   -1    0    0  503  502  0.00000000000E+00  0.00000000000E+00  0.24411393777E+03  0.24411393777E+03  0.00000000000E+00 0.  1.
         21   -1    0    0  501  503 -0.00000000000E+00 -0.00000000000E+00 -0.13849626840E+04  0.13849626840E+04  0.00000000000E+00 0.  1.
    9000005    1    1    2  501    0 -0.26896388159E+03  0.29020031233E+03 -0.77597902972E+03  0.95848904294E+03  0.40000000000E+03 0.  1.
   -9000005    1    1    2    0  502  0.26896388159E+03 -0.29020031233E+03 -0.36486971655E+03  0.67058757887E+03  0.40000000000E+03 0.  1.
<mgrwt>
<rscale>  2 0.56263469E+03</rscale>
<asrwt>0</asrwt>
<pdfrwt beam="1">  1       21 0.37555991E-01 0.56263469E+03</pdfrwt>
<pdfrwt beam="2">  1       21 0.21307118E+00 0.56263469E+03</pdfrwt>
<totfact> 0.59553593E+02</totfact>
</mgrwt>
</event>
<event>
 4    1  0.4991790E-002  0.7464580E+03  0.7818608E-02  0.9640924E-01
         21   -1    0    0  501  502  0.00000000000E+00  0.00000000000E+00  0.74319732441E+03  0.74319732441E+03  0.00000000000E+00 0.  1.
         21   -1    0    0  502  503 -0.00000000000E+00 -0.00000000000E+00 -0.13423840706E+04  0.13423840706E+04  0.00000000000E+00 0.  1.
    9000005    1    1    2  501    0  0.32445851689E+03 -0.54030192909E+03  0.39328709258E+03  0.84372640171E+03  0.40000000000E+03 0.  1.
   -9000005    1    1    2    0  503 -0.32445851689E+03  0.54030192909E+03 -0.99247383875E+03  0.12418549933E+04  0.40000000000E+03 0.  1.
<mgrwt>
<rscale>  2 0.74645797E+03</rscale>
<asrwt>0</asrwt>
<pdfrwt beam="1">  1       21 0.11433805E+00 0.74645797E+03</pdfrwt>
<pdfrwt beam="2">  1       21 0.20652063E+00 0.74645797E+03</pdfrwt>
<totfact> 0.49633929E+01</totfact>
</mgrwt>
</event>
<event>
 4    1  0.4991790E-002  0.4992577E+03  0.7818608E-02  0.1013973E+00
         21   -1    0    0  501  502  0.00000000000E+00  0.00000000000E+00  0.83066336789E+03  0.83066336789E+03  0.00000000000E+00 0.  1.
         21   -1    0    0  502  503 -0.00000000000E+00 -0.00000000000E+00 -0.30571792851E+03  0.30571792851E+03  0.00000000000E+00 0.  1.
    9000005    1    1    2  501    0 -0.28398444864E+03 -0.92796091152E+02  0.18525336727E+03  0.53251956930E+03  0.40000000000E+03 0.  1.
   -9000005    1    1    2    0  503  0.28398444864E+03  0.92796091152E+02  0.33969207211E+03  0.60386172710E+03  0.40000000000E+03 0.  1.
<mgrwt>
<rscale>  2 0.49925773E+03</rscale>
<asrwt>0</asrwt>
<pdfrwt beam="1">  1       21 0.12779436E+00 0.49925773E+03</pdfrwt>
<pdfrwt beam="2">  1       21 0.47033528E-01 0.49925773E+03</pdfrwt>
<totfact> 0.16417038E+03</totfact>
</mgrwt>
</event>
<event>
 4    1  0.4991790E-002  0.4662512E+03  0.7818608E-02  0.1022984E+00
         21   -1    0    0  501  502  0.00000000000E+00  0.00000000000E+00  0.91490650013E+03  0.91490650013E+03  0.00000000000E+00 0.  1.
         21   -1    0    0  502  503 -0.00000000000E+00 -0.00000000000E+00 -0.43364463921E+03  0.43364463921E+03  0.00000000000E+00 0. -1.
    9000005    1    1    2  501    0  0.19140005936E+03 -0.14407007389E+03  0.69398526063E+03  0.83606561398E+03  0.40000000000E+03 0.  1.
   -9000005    1    1    2    0  503 -0.19140005936E+03  0.14407007389E+03 -0.21272339971E+03  0.51248552535E+03  0.40000000000E+03 0. -1.
<mgrwt>
<rscale>  2 0.46625119E+03</rscale>
<asrwt>0</asrwt>
<pdfrwt beam="1">  1       21 0.14075485E+00 0.46625119E+03</pdfrwt>
<pdfrwt beam="2">  1       21 0.66714560E-01 0.46625119E+03</pdfrwt>
<totfact> 0.60430420E+02</totfact>
</mgrwt>
</event>
<event>
 4    1  0.4991790E-002  0.5563347E+03  0.7818608E-02  0.1000038E+00
         21   -1    0    0  503  502  0.00000000000E+00  0.00000000000E+00  0.37923058352E+03  0.37923058352E+03  0.00000000000E+00 0.  1.
         21   -1    0    0  501  503 -0.00000000000E+00 -0.00000000000E+00 -0.86183826514E+03  0.86183826514E+03  0.00000000000E+00 0.  1.
    9000005    1    1    2  501    0 -0.31105236674E+03  0.22968391114E+03 -0.38418170088E+03  0.67609455935E+03  0.40000000000E+03 0.  1.
   -9000005    1    1    2    0  502  0.31105236674E+03 -0.22968391114E+03 -0.98425980740E+02  0.56497428931E+03  0.40000000000E+03 0.  1.
<mgrwt>
<rscale>  2 0.55633468E+03</rscale>
<asrwt>0</asrwt>
<pdfrwt beam="1">  1       21 0.58343167E-01 0.55633468E+03</pdfrwt>
<pdfrwt beam="2">  1       21 0.13259050E+00 0.55633468E+03</pdfrwt>
<totfact> 0.92002954E+02</totfact>
</mgrwt>
</event>
<event>
 4    1  0.4991790E-002  0.4294708E+03  0.7818608E-02  0.1034027E+00
         21   -1    0    0  503  502  0.00000000000E+00  0.00000000000E+00  0.10001385036E+03  0.10001385036E+03  0.00000000000E+00 0. -1.
         21   -1    0    0  501  503 -0.00000000000E+00 -0.00000000000E+00 -0.24201064954E+04  0.24201064954E+04  0.00000000000E+00 0. -1.
    9000005    1    1    2  501    0  0.11740760836E+03  0.10325049095E+03 -0.54536320110E+03  0.69416585302E+03  0.40000000000E+03 0. -1.
   -9000005    1    1    2    0  502 -0.11740760836E+03 -0.10325049095E+03 -0.17747294440E+04  0.18259544928E+04  0.40000000000E+03 0. -1.
<mgrwt>
<rscale>  2 0.42947085E+03</rscale>
<asrwt>0</asrwt>
<pdfrwt beam="1">  1       21 0.15386746E-01 0.42947085E+03</pdfrwt>
<pdfrwt beam="2">  1       21 0.37232409E+00 0.42947085E+03</pdfrwt>
<totfact> 0.37912811E+02</totfact>
</mgrwt>
</event>
<event>
 4    1  0.4991790E-002  0.6456129E+03  0.7818608E-02  0.9815046E-01
         21   -1    0    0  503  502  0.00000000000E+00  0.00000000000E+00  0.36135074418E+03  0.36135074418E+03  0.00000000000E+00 0. -1.
         21   -1    0    0  501  503 -0.00000000000E+00 -0.00000000000E+00 -0.11782730134E+04  0.11782730134E+04  0.00000000000E+00 0. -1.
    9000005    1    1    2  501    0  0.14037008758E+03  0.48694179071E+03 -0.52009601713E+03  0.82904519543E+03  0.40000000000E+03 0. -1.
   -9000005    1    1    2    0  502 -0.14037008758E+03 -0.48694179071E+03 -0.29682625206E+03  0.71057856212E+03  0.40000000000E+03 0. -1.
<mgrwt>
<rscale>  2 0.64561294E+03</rscale>
<asrwt>0</asrwt>
<pdfrwt beam="1">  1       21 0.55592423E-01 0.64561294E+03</pdfrwt>
<pdfrwt beam="2">  1       21 0.18127277E+00 0.64561294E+03</pdfrwt>
<totfact> 0.41543511E+02</totfact>
</mgrwt>
</event>
<event>
 4    1  0.4991790E-002  0.4390721E+03  0.7818608E-02  0.1031032E+00
         21   -1    0    0  501  502  0.00000000000E+00  0.00000000000E+00  0.11709378768E+03  0.11709378768E+03  0.00000000000E+00 0. -1.
         21   -1    0    0  502  503 -0.00000000000E+00 -0.00000000000E+00 -0.18080552485E+04  0.18080552485E+04  0.00000000000E+00 0.  1.
    9000005    1    1    2  501    0  0.18105147827E+03  0.21673121108E+01 -0.11332938148E+04  0.12153761581E+04  0.40000000000E+03 0.  1.
   -9000005    1    1    2    0  503 -0.18105147827E+03 -0.21673121108E+01 -0.55766764598E+03  0.70977287804E+03  0.40000000000E+03 0. -1.
<mgrwt>
<rscale>  2 0.43907213E+03</rscale>
<asrwt>0</asrwt>
<pdfrwt beam="1">  1       21 0.18014430E-01 0.43907213E+03</pdfrwt>
<pdfrwt beam="2">  1       21 0.27816233E+00 0.43907213E+03</pdfrwt>
<totfact> 0.10467748E+03</totfact>
</mgrwt>
</event>
<event>
 4    1  0.4991790E-002  0.4100923E+03  0.7818608E-02  0.1040340E+00
         21   -1    0    0  501  502  0.00000000000E+00  0.00000000000E+00  0.41552099223E+03  0.41552099223E+03  0.00000000000E+00 0. -1.
         21   -1    0    0  502  503 -0.00000000000E+00 -0.00000000000E+00 -0.41953595686E+03  0.41953595686E+03  0.00000000000E+00 0. -1.
    9000005    1    1    2  501    0 -0.74082058135E+02 -0.51841709752E+02 -0.80432127931E+02  0.41790554125E+03  0.40000000000E+03 0.  1.
   -9000005    1    1    2    0  503  0.74082058135E+02  0.51841709752E+02  0.76417163305E+02  0.41715140783E+03  0.40000000000E+03 0.  1.
<mgrwt>
<rscale>  2 0.41009232E+03</rscale>
<asrwt>0</asrwt>
<pdfrwt beam="1">  1       21 0.63926306E-01 0.41009232E+03</pdfrwt>
<pdfrwt beam="2">  1       21 0.64543994E-01 0.41009232E+03</pdfrwt>
<totfact> 0.44517090E+03</totfact>
</mgrwt>
</event>
<event>
 4    1  0.4991790E-002  0.4649515E+03  0.7818608E-02  0.1023355E+00
         21   -1    0    0  501  502  0.00000000000E+00  0.00000000000E+00  0.12570293918E+04  0.12570293918E+04  0.00000000000E+00 0.  1.
         21   -1    0    0  502  503 -0.00000000000E+00 -0.00000000000E+00 -0.18650791124E+03  0.18650791124E+03  0.00000000000E+00 0.  1.
    9000005    1    1    2  501    0 -0.21067582293E+03 -0.10860732409E+03  0.33379589954E+03  0.57236313278E+03  0.40000000000E+03 0.  1.
   -9000005    1    1    2    0  503  0.21067582293E+03  0.10860732409E+03  0.73672558103E+03  0.87117417028E+03  0.40000000000E+03 0.  1.
<mgrwt>
<rscale>  2 0.46495145E+03</rscale>
<asrwt>0</asrwt>
<pdfrwt beam="1">  1       21 0.19338913E+00 0.46495145E+03</pdfrwt>
<pdfrwt beam="2">  1       21 0.28693526E-01 0.46495145E+03</pdfrwt>
<totfact> 0.14404856E+03</totfact>
</mgrwt>
</event>
<event>
 4    1  0.4991790E-002  0.4558826E+03  0.7818608E-02  0.1025982E+00
         21   -1    0    0  503  502  0.00000000000E+00  0.00000000000E+00  0.73531750442E+03  0.73531750442E+03  0.00000000000E+00 0.  1.
         21   -1    0    0  501  503 -0.00000000000E+00 -0.00000000000E+00 -0.28280300522E+03  0.28280300522E+03  0.00000000000E+00 0.  1.
    9000005    1    1    2  501    0  0.17106186123E+03  0.13625991006E+03  0.21397381517E+03  0.50360075162E+03  0.40000000000E+03 0.  1.
   -9000005    1    1    2    0  502 -0.17106186123E+03 -0.13625991006E+03  0.23854068402E+03  0.51451975802E+03  0.40000000000E+03 0.  1.
<mgrwt>
<rscale>  2 0.45588258E+03</rscale>
<asrwt>0</asrwt>
<pdfrwt beam="1">  1       21 0.11312577E+00 0.45588258E+03</pdfrwt>
<pdfrwt beam="2">  1       21 0.43508155E-01 0.45588258E+03</pdfrwt>
<totfact> 0.26782811E+03</totfact>
</mgrwt>
</event>
<event>
 4    1  0.4991790E-002  0.4819323E+03  0.7818608E-02  0.1018605E+00
         21   -1    0    0  503  502  0.00000000000E+00  0.00000000000E+00  0.99786394915E+03  0.99786394915E+03  0.00000000000E+00 0. -1.
         21   -1    0    0  501  503 -0.00000000000E+00 -0.00000000000E+00 -0.23851592531E+03  0.23851592531E+03  0.00000000000E+00 0.  1.
    9000005    1    1    2  501    0  0.11502901536E+02 -0.26856371168E+03  0.47574075751E+03  0.67719129671E+03  0.40000000000E+03 0. -1.
   -9000005    1    1    2    0  502 -0.11502901536E+02  0.26856371168E+03  0.28360726633E+03  0.55918857776E+03  0.40000000000E+03 0.  1.
<mgrwt>
<rscale>  2 0.48193234E+03</rscale>
<asrwt>0</asrwt>
<pdfrwt beam="1">  1       21 0.15351753E+00 0.48193234E+03</pdfrwt>
<pdfrwt beam="2">  1       21 0.36694758E-01 0.48193234E+03</pdfrwt>
<totfact> 0.16963492E+03</totfact>
</mgrwt>
</event>
<event>
 4    1  0.4991790E-002  0.7593527E+03  0.7818608E-02  0.9620791E-01
         21   -1    0    0  503  502  0.00000000000E+00  0.00000000000E+00  0.76046248545E+03  0.76046248545E+03  0.00000000000E+00 0. -1.
         21   -1    0    0  501  503 -0.00000000000E+00 -0.00000000000E+00 -0.83515519174E+03  0.83515519174E+03  0.00000000000E+00 0.  1.
    9000005    1    1    2  501    0  0.98257493485E+02  0.63793569372E+03  0.20476137731E+03  0.78647549612E+03  0.40000000000E+03 0. -1.
   -9000005    1    1    2    0  502 -0.98257493485E+02 -0.63793569372E+03 -0.27945408360E+03  0.80914218107E+03  0.40000000000E+03 0.  1.
<mgrwt>
<rscale>  2 0.75935267E+03</rscale>
<asrwt>0</asrwt>
<pdfrwt beam="1">  1       21 0.11699423E+00 0.75935267E+03</pdfrwt>
<pdfrwt beam="2">  1       21 0.12848542E+00 0.75935267E+03</pdfrwt>
<totfact> 0.18210496E+02</totfact>
</mgrwt>
</event>
<event>
 4    1  0.4991790E-002  0.4872025E+03  0.7818608E-02  0.1017174E+00
         21   -1    0    0  501  502  0.00000000000E+00  0.00000000000E+00  0.13112883366E+04  0.13112883366E+04  0.00000000000E+00 0. -1.
         21   -1    0    0  502  503 -0.00000000000E+00 -0.00000000000E+00 -0.19043264917E+03  0.19043264917E+03  0.00000000000E+00 0.  1.
    9000005    1    1    2  501    0  0.91055902492E+02  0.26282144471E+03  0.39347282969E+03  0.62624847854E+03  0.40000000000E+03 0.  1.
   -9000005    1    1    2    0  503 -0.91055902492E+02 -0.26282144471E+03  0.72738285780E+03  0.87547250727E+03  0.40000000000E+03 0. -1.
<mgrwt>
<rscale>  2 0.48720251E+03</rscale>
<asrwt>0</asrwt>
<pdfrwt beam="1">  1       21 0.20173666E+00 0.48720251E+03</pdfrwt>
<pdfrwt beam="2">  1       21 0.29297331E-01 0.48720251E+03</pdfrwt>
<totfact> 0.12031407E+03</totfact>
</mgrwt>
</event>
<event>
 4    1  0.4991790E-002  0.4028662E+03  0.7818608E-02  0.1042792E+00
         21   -1    0    0  503  502  0.00000000000E+00  0.00000000000E+00  0.18455308393E+03  0.18455308393E+03  0.00000000000E+00 0. -1.
         21   -1    0    0  501  503 -0.00000000000E+00 -0.00000000000E+00 -0.94827681194E+03  0.94827681194E+03  0.00000000000E+00 0. -1.
    9000005    1    1    2  501    0 -0.47562503437E+02  0.62407468340E+01 -0.53448330550E+03  0.66930825672E+03  0.40000000000E+03 0. -1.
   -9000005    1    1    2    0  502  0.47562503437E+02 -0.62407468340E+01 -0.22924042251E+03  0.46352163916E+03  0.40000000000E+03 0. -1.
<mgrwt>
<rscale>  2 0.40286615E+03</rscale>
<asrwt>0</asrwt>
<pdfrwt beam="1">  1       21 0.28392782E-01 0.40286615E+03</pdfrwt>
<pdfrwt beam="2">  1       21 0.14588874E+00 0.40286615E+03</pdfrwt>
<totfact> 0.33599092E+03</totfact>
</mgrwt>
</event>
<event>
 4    1  0.4991790E-002  0.5439051E+03  0.7818608E-02  0.1002915E+00
         21   -1    0    0  501  502  0.00000000000E+00  0.00000000000E+00  0.51082326699E+03  0.51082326699E+03  0.00000000000E+00 0.  1.
         21   -1    0    0  502  503 -0.00000000000E+00 -0.00000000000E+00 -0.64040325124E+03  0.64040325124E+03  0.00000000000E+00 0. -1.
    9000005    1    1    2  501    0  0.35093112170E+03 -0.11260589822E+03 -0.24283993288E+03  0.59565423989E+03  0.40000000000E+03 0. -1.
   -9000005    1    1    2    0  503 -0.35093112170E+03  0.11260589822E+03  0.11325994863E+03  0.55557227834E+03  0.40000000000E+03 0. -1.
<mgrwt>
<rscale>  2 0.54390508E+03</rscale>
<asrwt>0</asrwt>
<pdfrwt beam="1">  1       21 0.78588195E-01 0.54390508E+03</pdfrwt>
<pdfrwt beam="2">  1       21 0.98523577E-01 0.54390508E+03</pdfrwt>
<totfact> 0.10004320E+03</totfact>
</mgrwt>
</event>
<event>
 4    1  0.4991790E-002  0.5445625E+03  0.7818608E-02  0.1002760E+00
         21   -1    0    0  503  502  0.00000000000E+00  0.00000000000E+00  0.85226350842E+03  0.85226350842E+03  0.00000000000E+00 0. -1.
         21   -1    0    0  501  503 -0.00000000000E+00 -0.00000000000E+00 -0.37114917511E+03  0.37114917511E+03  0.00000000000E+00 0.  1.
    9000005    1    1    2  501    0 -0.10800238596E+03 -0.35338895877E+03  0.39347918986E+03  0.67184383930E+03  0.40000000000E+03 0. -1.
   -9000005    1    1    2    0  502  0.10800238596E+03  0.35338895877E+03  0.87635143448E+02  0.55156884423E+03  0.40000000000E+03 0.  1.
<mgrwt>
<rscale>  2 0.54456246E+03</rscale>
<asrwt>0</asrwt>
<pdfrwt beam="1">  1       21 0.13111746E+00 0.54456246E+03</pdfrwt>
<pdfrwt beam="2">  1       21 0.57099873E-01 0.54456246E+03</pdfrwt>
<totfact> 0.99703806E+02</totfact>
</mgrwt>
</event>
<event>
 4    1  0.4991790E-002  0.4814063E+03  0.7818608E-02  0.1018749E+00
         21   -1    0    0  501  502  0.00000000000E+00  0.00000000000E+00  0.16957786458E+04  0.16957786458E+04  0.00000000000E+00 0. -1.
         21   -1    0    0  502  503 -0.00000000000E+00 -0.00000000000E+00 -0.20755973194E+03  0.20755973194E+03  0.00000000000E+00 0.  1.
    9000005    1    1    2  501    0 -0.94123765299E+02 -0.25078419641E+03  0.13003009174E+04  0.13865548933E+04  0.40000000000E+03 0. -1.
   -9000005    1    1    2    0  503  0.94123765299E+02  0.25078419641E+03  0.18791799640E+03  0.51678348439E+03  0.40000000000E+03 0.  1.
<mgrwt>
<rscale>  2 0.48140627E+03</rscale>
<asrwt>0</asrwt>
<pdfrwt beam="1">  1       21 0.26088901E+00 0.48140627E+03</pdfrwt>
<pdfrwt beam="2">  1       21 0.31932268E-01 0.48140627E+03</pdfrwt>
<totfact> 0.42906933E+02</totfact>
</mgrwt>
</event>
<event>
 4    1  0.4991790E-002  0.4193507E+03  0.7818608E-02  0.1037278E+00
         21   -1    0    0  503  502  0.00000000000E+00  0.00000000000E+00  0.46771513554E+03  0.46771513554E+03  0.00000000000E+00 0.  1.
         21   -1    0    0  501  503 -0.00000000000E+00 -0.00000000000E+00 -0.44671257576E+03  0.44671257576E+03  0.00000000000E+00 0.  1.
    9000005    1    1    2  501    0  0.10710094314E+03  0.66214866504E+02 -0.17142362709E+03  0.45303540755E+03  0.40000000000E+03 0.  1.
   -9000005    1    1    2    0  502 -0.10710094314E+03 -0.66214866504E+02  0.19242618687E+03  0.46139230375E+03  0.40000000000E+03 0.  1.
<mgrwt>
<rscale>  2 0.41935071E+03</rscale>
<asrwt>0</asrwt>
<pdfrwt beam="1">  1       21 0.71956175E-01 0.41935071E+03</pdfrwt>
<pdfrwt beam="2">  1       21 0.68725012E-01 0.41935071E+03</pdfrwt>
<totfact> 0.29610954E+03</totfact>
</mgrwt>
</event>
<event>
 4    1  0.4991790E-002  0.6172489E+03  0.7818608E-02  0.9870252E-01
         21   -1    0    0  501  502  0.00000000000E+00  0.00000000000E+00  0.96522853017E+03  0.96522853017E+03  0.00000000000E+00 0.  1.
         21   -1    0    0  502  503 -0.00000000000E+00 -0.00000000000E+00 -0.62061280556E+03  0.62061280556E+03  0.00000000000E+00 0. -1.
    9000005    1    1    2  501    0 -0.46266787552E+03  0.83274435106E+02  0.65068386689E+03  0.89687551489E+03  0.40000000000E+03 0.  1.
   -9000005    1    1    2    0  503  0.46266787552E+03 -0.83274435106E+02 -0.30606814227E+03  0.68896582085E+03  0.40000000000E+03 0. -1.
<mgrwt>
<rscale>  2 0.61724889E+03</rscale>
<asrwt>0</asrwt>
<pdfrwt beam="1">  1       21 0.14849670E+00 0.61724889E+03</pdfrwt>
<pdfrwt beam="2">  1       21 0.95478893E-01 0.61724889E+03</pdfrwt>
<totfact> 0.21436578E+02</totfact>
</mgrwt>
</event>
<event>
 4    1  0.4991790E-002  0.4555894E+03  0.7818608E-02  0.1026068E+00
         21   -1    0    0  501  502  0.00000000000E+00  0.00000000000E+00  0.31337821854E+03  0.31337821854E+03  0.00000000000E+00 0. -1.
         21   -1    0    0  502  503 -0.00000000000E+00 -0.00000000000E+00 -0.66839229316E+03  0.66839229316E+03  0.00000000000E+00 0. -1.
    9000005    1    1    2  501    0 -0.96072815956E+02  0.19578492586E+03 -0.13078064056E+03  0.47398871200E+03  0.40000000000E+03 0. -1.
   -9000005    1    1    2    0  503  0.96072815956E+02 -0.19578492586E+03 -0.22423343406E+03  0.50778179970E+03  0.40000000000E+03 0. -1.
<mgrwt>
<rscale>  2 0.45558942E+03</rscale>
<asrwt>0</asrwt>
<pdfrwt beam="1">  1       21 0.48212034E-01 0.45558942E+03</pdfrwt>
<pdfrwt beam="2">  1       21 0.10282958E+00 0.45558942E+03</pdfrwt>
<totfact> 0.27337466E+03</totfact>
</mgrwt>
</event>
<event>
 4    1  0.4991790E-002  0.4074101E+03  0.7818608E-02  0.1041244E+00
         21   -1    0    0  503  502  0.00000000000E+00  0.00000000000E+00  0.16833683994E+03  0.16833683994E+03  0.00000000000E+00 0. -1.
         21   -1    0    0  501  503 -0.00000000000E+00 -0.00000000000E+00 -0.98778026339E+03  0.98778026339E+03  0.00000000000E+00 0.  1.
    9000005    1    1    2  501    0 -0.56313085062E+02 -0.53026533122E+02 -0.38529826561E+03  0.56074747458E+03  0.40000000000E+03 0.  1.
   -9000005    1    1    2    0  502  0.56313085062E+02  0.53026533122E+02 -0.43414515784E+03  0.59536962875E+03  0.40000000000E+03 0.  1.
<mgrwt>
<rscale>  2 0.40741008E+03</rscale>
<asrwt>0</asrwt>
<pdfrwt beam="1">  1       21 0.25897975E-01 0.40741008E+03</pdfrwt>
<pdfrwt beam="2">  1       21 0.15196619E+00 0.40741008E+03</pdfrwt>
<totfact> 0.35966999E+03</totfact>
</mgrwt>
</event>
<event>
 4    1  0.4991790E-002  0.4309510E+03  0.7818608E-02  0.1033560E+00
         21   -1    0    0  503  502  0.00000000000E+00  0.00000000000E+00  0.44066357695E+03  0.44066357695E+03  0.00000000000E+00 0.  1.
         21   -1    0    0  501  503 -0.00000000000E+00 -0.00000000000E+00 -0.53396165029E+03  0.53396165029E+03  0.00000000000E+00 0.  1.
    9000005    1    1    2  501    0 -0.13745841151E+03  0.82607014104E+02 -0.27033909572E+03  0.50872582041E+03  0.40000000000E+03 0.  1.
   -9000005    1    1    2    0  502  0.13745841151E+03 -0.82607014104E+02  0.17704102239E+03  0.46589940683E+03  0.40000000000E+03 0.  1.
<mgrwt>
<rscale>  2 0.43095096E+03</rscale>
<asrwt>0</asrwt>
<pdfrwt beam="1">  1       21 0.67794397E-01 0.43095096E+03</pdfrwt>
<pdfrwt beam="2">  1       21 0.82147946E-01 0.43095096E+03</pdfrwt>
<totfact> 0.22443150E+03</totfact>
</mgrwt>
</event>
<event>
 4    1  0.4991790E-002  0.6038573E+03  0.7818608E-02  0.9897436E-01
         21   -1    0    0  501  502  0.00000000000E+00  0.00000000000E+00  0.70417901709E+03  0.70417901709E+03  0.00000000000E+00 0.  1.
         21   -1    0    0  502  503 -0.00000000000E+00 -0.00000000000E+00 -0.63308335925E+03  0.63308335925E+03  0.00000000000E+00 0.  1.
    9000005    1    1    2  501    0  0.38085005657E+03  0.24412474448E+03 -0.24974222220E+03  0.65346372050E+03  0.40000000000E+03 0.  1.
   -9000005    1    1    2    0  503 -0.38085005657E+03 -0.24412474448E+03  0.32083788004E+03  0.68379865584E+03  0.40000000000E+03 0.  1.
<mgrwt>
<rscale>  2 0.60385731E+03</rscale>
<asrwt>0</asrwt>
<pdfrwt beam="1">  1       21 0.10833523E+00 0.60385731E+03</pdfrwt>
<pdfrwt beam="2">  1       21 0.97397440E-01 0.60385731E+03</pdfrwt>
<totfact> 0.46665562E+02</totfact>
</mgrwt>
</event>
<event>
 4    1  0.4991790E-002  0.4700166E+03  0.7818608E-02  0.1021916E+00
         21   -1    0    0  503  502  0.00000000000E+00  0.00000000000E+00  0.32229524343E+04  0.32229524343E+04  0.00000000000E+00 0.  1.
         21   -1    0    0  501  503 -0.00000000000E+00 -0.00000000000E+00 -0.11390811841E+03  0.11390811841E+03  0.00000000000E+00 0. -1.
    9000005    1    1    2  501    0 -0.99707284912E+01 -0.24660934625E+03  0.50162807891E+03  0.68742004236E+03  0.40000000000E+03 0. -1.
   -9000005    1    1    2    0  502  0.99707284912E+01  0.24660934625E+03  0.26074162370E+04  0.26494405103E+04  0.40000000000E+03 0.  1.
<mgrwt>
<rscale>  2 0.47001658E+03</rscale>
<asrwt>0</asrwt>
<pdfrwt beam="1">  1       21 0.49583877E+00 0.47001658E+03</pdfrwt>
<pdfrwt beam="2">  1       21 0.17524328E-01 0.47001658E+03</pdfrwt>
<totfact> 0.43497155E+01</totfact>
</mgrwt>
</event>
<event>
 4    1  0.4991790E-002  0.5131814E+03  0.7818608E-02  0.1010395E+00
         21   -1    0    0  503  502  0.00000000000E+00  0.00000000000E+00  0.22815122659E+03  0.22815122659E+03  0.00000000000E+00 0. -1.
         21   -1    0    0  501  503 -0.00000000000E+00 -0.00000000000E+00 -0.13930871057E+04  0.13930871057E+04  0.00000000000E+00 0.  1.
    9000005    1    1    2  501    0 -0.31549445079E+03 -0.61793567164E+02 -0.91807588987E+03  0.10517692394E+04  0.40000000000E+03 0.  1.
   -9000005    1    1    2    0  502  0.31549445079E+03  0.61793567164E+02 -0.24685998921E+03  0.56946909283E+03  0.40000000000E+03 0. -1.
<mgrwt>
<rscale>  2 0.51318144E+03</rscale>
<asrwt>0</asrwt>
<pdfrwt beam="1">  1       21 0.35100189E-01 0.51318144E+03</pdfrwt>
<pdfrwt beam="2">  1       21 0.21432109E+00 0.51318144E+03</pdfrwt>
<totfact> 0.68442919E+02</totfact>
</mgrwt>
</event>
<event>
 4    1  0.4991790E-002  0.4550339E+03  0.7818608E-02  0.1026231E+00
         21   -1    0    0  501  502  0.00000000000E+00  0.00000000000E+00  0.85363508666E+03  0.85363508666E+03  0.00000000000E+00 0.  1.
         21   -1    0    0  502  503 -0.00000000000E+00 -0.00000000000E+00 -0.24654626749E+03  0.24654626749E+03  0.00000000000E+00 0. -1.
    9000005    1    1    2  501    0  0.21245473688E+03  0.43804327375E+02  0.23357809329E+03  0.51148270742E+03  0.40000000000E+03 0. -1.
   -9000005    1    1    2    0  503 -0.21245473688E+03 -0.43804327375E+02  0.37351072588E+03  0.58869864673E+03  0.40000000000E+03 0.  1.
<mgrwt>
<rscale>  2 0.45503388E+03</rscale>
<asrwt>0</asrwt>
<pdfrwt beam="1">  1       21 0.13132847E+00 0.45503388E+03</pdfrwt>
<pdfrwt beam="2">  1       21 0.37930195E-01 0.45503388E+03</pdfrwt>
<totfact> 0.24308660E+03</totfact>
</mgrwt>
</event>
<event>
 4    1  0.4991790E-002  0.5256000E+03  0.7818608E-02  0.1007305E+00
         21   -1    0    0  503  502  0.00000000000E+00  0.00000000000E+00  0.44260948603E+03  0.44260948603E+03  0.00000000000E+00 0. -1.
         21   -1    0    0  501  503 -0.00000000000E+00 -0.00000000000E+00 -0.64032906017E+03  0.64032906017E+03  0.00000000000E+00 0. -1.
    9000005    1    1    2  501    0  0.11913003781E+03 -0.31947370190E+03 -0.18492498771E+03  0.55718279155E+03  0.40000000000E+03 0. -1.
   -9000005    1    1    2    0  502 -0.11913003781E+03  0.31947370190E+03 -0.12794586424E+02  0.52575575466E+03  0.40000000000E+03 0. -1.
<mgrwt>
<rscale>  2 0.52560005E+03</rscale>
<asrwt>0</asrwt>
<pdfrwt beam="1">  1       21 0.68093768E-01 0.52560005E+03</pdfrwt>
<pdfrwt beam="2">  1       21 0.98512162E-01 0.52560005E+03</pdfrwt>
<totfact> 0.13959947E+03</totfact>
</mgrwt>
</event>
<event>
 4    1  0.4991790E-002  0.4748157E+03  0.7818608E-02  0.1020570E+00
         21   -1    0    0  501  502  0.00000000000E+00  0.00000000000E+00  0.27924522781E+03  0.27924522781E+03  0.00000000000E+00 0. -1.
         21   -1    0    0  502  503 -0.00000000000E+00 -0.00000000000E+00 -0.80931457903E+03  0.80931457903E+03  0.00000000000E+00 0. -1.
    9000005    1    1    2  501    0  0.23361000665E+03  0.10428955394E+03 -0.23825048109E+03  0.53123745915E+03  0.40000000000E+03 0. -1.
   -9000005    1    1    2    0  503 -0.23361000665E+03 -0.10428955394E+03 -0.29181887013E+03  0.55732234769E+03  0.40000000000E+03 0. -1.
<mgrwt>
<rscale>  2 0.47481570E+03</rscale>
<asrwt>0</asrwt>
<pdfrwt beam="1">  1       21 0.42960804E-01 0.47481570E+03</pdfrwt>
<pdfrwt beam="2">  1       21 0.12450993E+00 0.47481570E+03</pdfrwt>
<totfact> 0.21421483E+03</totfact>
</mgrwt>
</event>
<event>
 4    1  0.4991790E-002  0.4028449E+03  0.7818608E-02  0.1042799E+00
         21   -1    0    0  503  502  0.00000000000E+00  0.00000000000E+00  0.18382713644E+04  0.18382713644E+04  0.00000000000E+00 0.  1.
         21   -1    0    0  501  503 -0.00000000000E+00 -0.00000000000E+00 -0.14381742508E+03  0.14381742508E+03  0.00000000000E+00 0.  1.
    9000005    1    1    2  501    0 -0.96963888836E+01  0.46797129346E+02  0.23137369121E+03  0.46456191864E+03  0.40000000000E+03 0.  1.
   -9000005    1    1    2    0  502  0.96963888836E+01 -0.46797129346E+02  0.14630802482E+04  0.15175268709E+04  0.40000000000E+03 0.  1.
<mgrwt>
<rscale>  2 0.40284487E+03</rscale>
<asrwt>0</asrwt>
<pdfrwt beam="1">  1       21 0.28281096E+00 0.40284487E+03</pdfrwt>
<pdfrwt beam="2">  1       21 0.22125759E-01 0.40284487E+03</pdfrwt>
<totfact> 0.67793368E+02</totfact>
</mgrwt>
</event>
<event>
 4    1  0.4991790E-002  0.4077792E+03  0.7818608E-02  0.1041119E+00
         21   -1    0    0  503  502  0.00000000000E+00  0.00000000000E+00  0.62782123388E+03  0.62782123388E+03  0.00000000000E+00 0.  1.
         21   -1    0    0  501  503 -0.00000000000E+00 -0.00000000000E+00 -0.59628327198E+03  0.59628327198E+03  0.00000000000E+00 0.  1.
    9000005    1    1    2  501    0 -0.41239148677E+01  0.79163313531E+02 -0.44053538313E+03  0.60029597756E+03  0.40000000000E+03 0.  1.
   -9000005    1    1    2    0  502  0.41239148677E+01 -0.79163313531E+02  0.47207334504E+03  0.62380852830E+03  0.40000000000E+03 0.  1.
<mgrwt>
<rscale>  2 0.40777915E+03</rscale>
<asrwt>0</asrwt>
<pdfrwt beam="1">  1       21 0.96587882E-01 0.40777915E+03</pdfrwt>
<pdfrwt beam="2">  1       21 0.91735888E-01 0.40777915E+03</pdfrwt>
<totfact> 0.77117168E+02</totfact>
</mgrwt>
</event>
<event>
 4    1  0.4991790E-002  0.5166120E+03  0.7818608E-02  0.1009532E+00
         21   -1    0    0  501  502  0.00000000000E+00  0.00000000000E+00  0.53781813195E+03  0.53781813195E+03  0.00000000000E+00 0.  1.
         21   -1    0    0  502  503 -0.00000000000E+00 -0.00000000000E+00 -0.57891321353E+03  0.57891321353E+03  0.00000000000E+00 0. -1.
    9000005    1    1    2  501    0 -0.28676428595E+03 -0.15701669524E+03  0.19045557965E+03  0.55060087731E+03  0.40000000000E+03 0. -1.
   -9000005    1    1    2    0  503  0.28676428595E+03  0.15701669524E+03 -0.23155066123E+03  0.56613046817E+03  0.40000000000E+03 0. -1.
<mgrwt>
<rscale>  2 0.51661204E+03</rscale>
<asrwt>0</asrwt>
<pdfrwt beam="1">  1       21 0.82741251E-01 0.51661204E+03</pdfrwt>
<pdfrwt beam="2">  1       21 0.89063571E-01 0.51661204E+03</pdfrwt>
<totfact> 0.11414889E+03</totfact>
</mgrwt>
</event>
<event>
 4    1  0.4991790E-002  0.4262395E+03  0.7818608E-02  0.1035055E+00
         21   -1    0    0  503  502  0.00000000000E+00  0.00000000000E+00  0.11062837452E+03  0.11062837452E+03  0.00000000000E+00 0. -1.
         21   -1    0    0  501  503 -0.00000000000E+00 -0.00000000000E+00 -0.23088662422E+04  0.23088662422E+04  0.00000000000E+00 0. -1.
    9000005    1    1    2  501    0  0.66876252709E+02 -0.13117790272E+03 -0.17491459037E+04  0.18003309328E+04  0.40000000000E+03 0. -1.
   -9000005    1    1    2    0  502 -0.66876252709E+02  0.13117790272E+03 -0.44909196402E+03  0.61916368392E+03  0.40000000000E+03 0. -1.
<mgrwt>
<rscale>  2 0.42623946E+03</rscale>
<asrwt>0</asrwt>
<pdfrwt beam="1">  1       21 0.17019752E-01 0.42623946E+03</pdfrwt>
<pdfrwt beam="2">  1       21 0.35521015E+00 0.42623946E+03</pdfrwt>
<totfact> 0.40175311E+02</totfact>
</mgrwt>
</event>
<event>
 4    1  0.4991790E-002  0.4059879E+03  0.7818608E-02  0.1041726E+00
         21   -1    0    0  503  502  0.00000000000E+00  0.00000000000E+00  0.37474564609E+03  0.37474564609E+03  0.00000000000E+00 0.  1.
         21   -1    0    0  501  503 -0.00000000000E+00 -0.00000000000E+00 -0.43998433083E+03  0.43998433083E+03  0.00000000000E+00 0.  1.
    9000005    1    1    2  501    0 -0.69468766499E+02 -0.48331406002E+00 -0.40131402170E+02  0.40796650911E+03  0.40000000000E+03 0.  1.
   -9000005    1    1    2    0  502  0.69468766499E+02  0.48331406002E+00 -0.25107282563E+02  0.40676346782E+03  0.40000000000E+03 0.  1.
<mgrwt>
<rscale>  2 0.40598786E+03</rscale>
<asrwt>0</asrwt>
<pdfrwt beam="1">  1       21 0.57653176E-01 0.40598786E+03</pdfrwt>
<pdfrwt beam="2">  1       21 0.67689897E-01 0.40598786E+03</pdfrwt>
<totfact> 0.50295158E+03</totfact>
</mgrwt>
</event>
<event>
 4    1  0.4991790E-002  0.4232756E+03  0.7818608E-02  0.1036005E+00
         21   -1    0    0  503  502  0.00000000000E+00  0.00000000000E+00  0.13130924949E+04  0.13130924949E+04  0.00000000000E+00 0.  1.
         21   -1    0    0  501  503 -0.00000000000E+00 -0.00000000000E+00 -0.21646612885E+03  0.21646612885E+03  0.00000000000E+00 0.  1.
    9000005    1    1    2  501    0 -0.13157246773E+03 -0.43022341329E+02  0.83317405527E+02  0.43139775867E+03  0.40000000000E+03 0.  1.
   -9000005    1    1    2    0  502  0.13157246773E+03  0.43022341329E+02  0.10133089605E+04  0.10981608651E+04  0.40000000000E+03 0.  1.
<mgrwt>
<rscale>  2 0.42327560E+03</rscale>
<asrwt>0</asrwt>
<pdfrwt beam="1">  1       21 0.20201422E+00 0.42327560E+03</pdfrwt>
<pdfrwt beam="2">  1       21 0.33302482E-01 0.42327560E+03</pdfrwt>
<totfact> 0.95489615E+02</totfact>
</mgrwt>
</event>
<event>
 4    1  0.4991790E-002  0.4770688E+03  0.7818608E-02  0.1019944E+00
         21   -1    0    0  501  502  0.00000000000E+00  0.00000000000E+00  0.16876365251E+03  0.16876365251E+03  0.00000000000E+00 0.  1.
         21   -1    0    0  502  503 -0.00000000000E+00 -0.00000000000E+00 -0.17215273041E+04  0.17215273041E+04  0.00000000000E+00 0.  1.
    9000005    1    1    2  501    0  0.51309547177E+02  0.25487634536E+03 -0.33648185342E+03  0.58379333564E+03  0.40000000000E+03 0.  1.
   -9000005    1    1    2    0  503 -0.51309547177E+02 -0.25487634536E+03 -0.12162817982E+04  0.13064976210E+04  0.40000000000E+03 0.  1.
<mgrwt>
<rscale>  2 0.47706878E+03</rscale>
<asrwt>0</asrwt>
<pdfrwt beam="1">  1       21 0.25963640E-01 0.47706878E+03</pdfrwt>
<pdfrwt beam="2">  1       21 0.26485034E+00 0.47706878E+03</pdfrwt>
<totfact> 0.61276834E+02</totfact>
</mgrwt>
</event>
<event>
 4    1  0.4991790E-002  0.4144556E+03  0.7818608E-02  0.1038886E+00
         21   -1    0    0  501  502  0.00000000000E+00  0.00000000000E+00  0.45197599397E+03  0.45197599397E+03  0.00000000000E+00 0.  1.
         21   -1    0    0  502  503 -0.00000000000E+00 -0.00000000000E+00 -0.88396713321E+03  0.88396713321E+03  0.00000000000E+00 0.  1.
    9000005    1    1    2  501    0  0.87940677438E+02  0.63560217415E+02  0.28833987310E+03  0.50488943978E+03  0.40000000000E+03 0.  1.
   -9000005    1    1    2    0  503 -0.87940677438E+02 -0.63560217415E+02 -0.72033101234E+03  0.83105368739E+03  0.40000000000E+03 0.  1.
<mgrwt>
<rscale>  2 0.41445562E+03</rscale>
<asrwt>0</asrwt>
<pdfrwt beam="1">  1       21 0.69534768E-01 0.41445562E+03</pdfrwt>
<pdfrwt beam="2">  1       21 0.13599494E+00 0.41445562E+03</pdfrwt>
<totfact> 0.61783072E+02</totfact>
</mgrwt>
</event>
<event>
 4    1  0.4991790E-002  0.5638250E+03  0.7818608E-02  0.9983437E-01
         21   -1    0    0  501  502  0.00000000000E+00  0.00000000000E+00  0.39001243567E+03  0.39001243567E+03  0.00000000000E+00 0.  1.
         21   -1    0    0  502  503 -0.00000000000E+00 -0.00000000000E+00 -0.87168021502E+03  0.87168021502E+03  0.00000000000E+00 0.  1.
    9000005    1    1    2  501    0 -0.36447223628E+03  0.15829898969E+03 -0.80109145550E+02  0.56948753837E+03  0.40000000000E+03 0.  1.
   -9000005    1    1    2    0  503  0.36447223628E+03 -0.15829898969E+03 -0.40155863380E+03  0.69220511233E+03  0.40000000000E+03 0.  1.
<mgrwt>
<rscale>  2 0.56382496E+03</rscale>
<asrwt>0</asrwt>
<pdfrwt beam="1">  1       21 0.60001913E-01 0.56382496E+03</pdfrwt>
<pdfrwt beam="2">  1       21 0.13410465E+00 0.56382496E+03</pdfrwt>
<totfact> 0.83750819E+02</totfact>
</mgrwt>
</event>
<event>
 4    1  0.4991790E-002  0.5115294E+03  0.7818608E-02  0.1010813E+00
         21   -1    0    0  501  502  0.00000000000E+00  0.00000000000E+00  0.82598712837E+03  0.82598712837E+03  0.00000000000E+00 0. -1.
         21   -1    0    0  502  503 -0.00000000000E+00 -0.00000000000E+00 -0.31899662898E+03  0.31899662898E+03  0.00000000000E+00 0. -1.
    9000005    1    1    2  501    0 -0.41089055059E+02 -0.31618672652E+03  0.20585306229E+03  0.55139626380E+03  0.40000000000E+03 0. -1.
   -9000005    1    1    2    0  503  0.41089055059E+02  0.31618672652E+03  0.30113743710E+03  0.59358749355E+03  0.40000000000E+03 0. -1.
<mgrwt>
<rscale>  2 0.51152943E+03</rscale>
<asrwt>0</asrwt>
<pdfrwt beam="1">  1       21 0.12707494E+00 0.51152943E+03</pdfrwt>
<pdfrwt beam="2">  1       21 0.49076405E-01 0.51152943E+03</pdfrwt>
<totfact> 0.15158491E+03</totfact>
</mgrwt>
</event>
<event>
 4    1  0.4991790E-002  0.4400330E+03  0.7818608E-02  0.1030737E+00
         21   -1    0    0  501  502  0.00000000000E+00  0.00000000000E+00  0.37794712361E+03  0.37794712361E+03  0.00000000000E+00 0. -1.
         21   -1    0    0  502  503 -0.00000000000E+00 -0.00000000000E+00 -0.93114074775E+03  0.93114074775E+03  0.00000000000E+00 0.  1.
    9000005    1    1    2  501    0  0.18337137843E+03  0.19859618097E+01  0.16238488829E+03  0.46903929304E+03  0.40000000000E+03 0. -1.
   -9000005    1    1    2    0  503 -0.18337137843E+03 -0.19859618097E+01 -0.71557851244E+03  0.84004857832E+03  0.40000000000E+03 0.  1.
<mgrwt>
<rscale>  2 0.44003296E+03</rscale>
<asrwt>0</asrwt>
<pdfrwt beam="1">  1       21 0.58145712E-01 0.44003296E+03</pdfrwt>
<pdfrwt beam="2">  1       21 0.14325242E+00 0.44003296E+03</pdfrwt>
<totfact> 0.78992859E+02</totfact>
</mgrwt>
</event>
<event>
 4    1  0.4991790E-002  0.6285493E+03  0.7818608E-02  0.9847884E-01
         21   -1    0    0  503  502  0.00000000000E+00  0.00000000000E+00  0.17717307680E+03  0.17717307680E+03  0.00000000000E+00 0.  1.
         21   -1    0    0  501  503 -0.00000000000E+00 -0.00000000000E+00 -0.27272346877E+04  0.27272346877E+04  0.00000000000E+00 0.  1.
    9000005    1    1    2  501    0  0.46813638271E+03 -0.12618461965E+03 -0.18951863089E+04  0.19966986193E+04  0.40000000000E+03 0.  1.
   -9000005    1    1    2    0  502 -0.46813638271E+03  0.12618461965E+03 -0.65487530201E+03  0.90770914517E+03  0.40000000000E+03 0.  1.
<mgrwt>
<rscale>  2 0.62854931E+03</rscale>
<asrwt>0</asrwt>
<pdfrwt beam="1">  1       21 0.27257401E-01 0.62854931E+03</pdfrwt>
<pdfrwt beam="2">  1       21 0.41957450E+00 0.62854931E+03</pdfrwt>
<totfact> 0.56259947E+01</totfact>
</mgrwt>
</event>
<event>
 4    1  0.4991790E-002  0.4706576E+03  0.7818608E-02  0.1021735E+00
         21   -1    0    0  501  502  0.00000000000E+00  0.00000000000E+00  0.33753954373E+03  0.33753954373E+03  0.00000000000E+00 0. -1.
         21   -1    0    0  502  503 -0.00000000000E+00 -0.00000000000E+00 -0.71071171881E+03  0.71071171881E+03  0.00000000000E+00 0. -1.
    9000005    1    1    2  501    0 -0.12707507564E+03  0.21300358735E+03 -0.33164236656E+03  0.57576493674E+03  0.40000000000E+03 0. -1.
   -9000005    1    1    2    0  503  0.12707507564E+03 -0.21300358735E+03 -0.41529808522E+02  0.47248632580E+03  0.40000000000E+03 0. -1.
<mgrwt>
<rscale>  2 0.47065763E+03</rscale>
<asrwt>0</asrwt>
<pdfrwt beam="1">  1       21 0.51929161E-01 0.47065763E+03</pdfrwt>
<pdfrwt beam="2">  1       21 0.10934026E+00 0.47065763E+03</pdfrwt>
<totfact> 0.19949772E+03</totfact>
</mgrwt>
</event>
<event>
 4    1  0.4991790E-002  0.4986110E+03  0.7818608E-02  0.1014142E+00
         21   -1    0    0  501  502  0.00000000000E+00  0.00000000000E+00  0.94626748730E+03  0.94626748730E+03  0.00000000000E+00 0.  1.
         21   -1    0    0  502  503 -0.00000000000E+00 -0.00000000000E+00 -0.90652419114E+03  0.90652419114E+03  0.00000000000E+00 0. -1.
    9000005    1    1    2  501    0  0.19005757416E+03 -0.22910922473E+03  0.80056485749E+03  0.94314209396E+03  0.40000000000E+03 0.  1.
   -9000005    1    1    2    0  503 -0.19005757416E+03  0.22910922473E+03 -0.76082156133E+03  0.90964958448E+03  0.40000000000E+03 0. -1.
<mgrwt>
<rscale>  2 0.49861099E+03</rscale>
<asrwt>0</asrwt>
<pdfrwt beam="1">  1       21 0.14557961E+00 0.49861099E+03</pdfrwt>
<pdfrwt beam="2">  1       21 0.13946526E+00 0.49861099E+03</pdfrwt>
<totfact> 0.91120443E+01</totfact>
</mgrwt>
</event>
<event>
 4    1  0.4991790E-002  0.4768889E+03  0.7818608E-02  0.1019994E+00
         21   -1    0    0  501  502  0.00000000000E+00  0.00000000000E+00  0.11078226908E+04  0.11078226908E+04  0.00000000000E+00 0.  1.
         21   -1    0    0  502  503 -0.00000000000E+00 -0.00000000000E+00 -0.23098997195E+03  0.23098997195E+03  0.00000000000E+00 0. -1.
    9000005    1    1    2  501    0 -0.29349242292E+02 -0.25799535774E+03  0.21512374716E+03  0.52316461007E+03  0.40000000000E+03 0. -1.
   -9000005    1    1    2    0  503  0.29349242292E+02  0.25799535774E+03  0.66170897171E+03  0.81564805271E+03  0.40000000000E+03 0.  1.
<mgrwt>
<rscale>  2 0.47688886E+03</rscale>
<asrwt>0</asrwt>
<pdfrwt beam="1">  1       21 0.17043426E+00 0.47688886E+03</pdfrwt>
<pdfrwt beam="2">  1       21 0.35536920E-01 0.47688886E+03</pdfrwt>
<totfact> 0.13535357E+03</totfact>
</mgrwt>
</event>
<event>
 4    1  0.4991790E-002  0.5164814E+03  0.7818608E-02  0.1009564E+00
         21   -1    0    0  503  502  0.00000000000E+00  0.00000000000E+00  0.72200968386E+03  0.72200968386E+03  0.00000000000E+00 0. -1.
         21   -1    0    0  501  503 -0.00000000000E+00 -0.00000000000E+00 -0.50015083170E+03  0.50015083170E+03  0.00000000000E+00 0. -1.
    9000005    1    1    2  501    0 -0.22499339432E+03 -0.23691974144E+03 -0.20144246160E+03  0.55437537527E+03  0.40000000000E+03 0. -1.
   -9000005    1    1    2    0  502  0.22499339432E+03  0.23691974144E+03  0.42330131376E+03  0.66778514030E+03  0.40000000000E+03 0. -1.
<mgrwt>
<rscale>  2 0.51648136E+03</rscale>
<asrwt>0</asrwt>
<pdfrwt beam="1">  1       21 0.11107841E+00 0.51648136E+03</pdfrwt>
<pdfrwt beam="2">  1       21 0.76946282E-01 0.51648136E+03</pdfrwt>
<totfact> 0.78876702E+02</totfact>
</mgrwt>
</event>
<event>
 4    1  0.4991790E-002  0.6708746E+03  0.7818608E-02  0.9768379E-01
         21   -1    0    0  501  502  0.00000000000E+00  0.00000000000E+00  0.74164565290E+03  0.74164565290E+03  0.00000000000E+00 0. -1.
         21   -1    0    0  502  503 -0.00000000000E+00 -0.00000000000E+00 -0.66913399658E+03  0.66913399658E+03  0.00000000000E+00 0.  1.
    9000005    1    1    2  501    0  0.31120168443E+03  0.43957512967E+03  0.25145312703E+03  0.71645059711E+03  0.40000000000E+03 0. -1.
   -9000005    1    1    2    0  503 -0.31120168443E+03 -0.43957512967E+03 -0.17894147071E+03  0.69432905236E+03  0.40000000000E+03 0.  1.
<mgrwt>
<rscale>  2 0.67087464E+03</rscale>
<asrwt>0</asrwt>
<pdfrwt beam="1">  1       21 0.11409933E+00 0.67087464E+03</pdfrwt>
<pdfrwt beam="2">  1       21 0.10294369E+00 0.67087464E+03</pdfrwt>
<totfact> 0.35017714E+02</totfact>
</mgrwt>
</event>
<event>
 4    1  0.4991790E-002  0.4137316E+03  0.7818608E-02  0.1039126E+00
         21   -1    0    0  503  502  0.00000000000E+00  0.00000000000E+00  0.23450426295E+03  0.23450426295E+03  0.00000000000E+00 0. -1.
         21   -1    0    0  501  503 -0.00000000000E+00 -0.00000000000E+00 -0.87083557404E+03  0.87083557404E+03  0.00000000000E+00 0. -1.
    9000005    1    1    2  501    0  0.33823002888E+02 -0.10014909976E+03 -0.54046990368E+03  0.68064789318E+03  0.40000000000E+03 0. -1.
   -9000005    1    1    2    0  502 -0.33823002888E+02  0.10014909976E+03 -0.95861407405E+02  0.42469194381E+03  0.40000000000E+03 0. -1.
<mgrwt>
<rscale>  2 0.41373160E+03</rscale>
<asrwt>0</asrwt>
<pdfrwt beam="1">  1       21 0.36077579E-01 0.41373160E+03</pdfrwt>
<pdfrwt beam="2">  1       21 0.13397470E+00 0.41373160E+03</pdfrwt>
<totfact> 0.25971102E+03</totfact>
</mgrwt>
</event>
<event>
 4    1  0.4991790E-002  0.4300439E+03  0.7818608E-02  0.1033846E+00
         21   -1    0    0  501  502  0.00000000000E+00  0.00000000000E+00  0.93331665732E+03  0.93331665732E+03  0.00000000000E+00 0. -1.
         21   -1    0    0  502  503 -0.00000000000E+00 -0.00000000000E+00 -0.43603217589E+03  0.43603217589E+03  0.00000000000E+00 0. -1.
    9000005    1    1    2  501    0 -0.15785738396E+03  0.43389377158E+01  0.75435594408E+03  0.86832636170E+03  0.40000000000E+03 0. -1.
   -9000005    1    1    2    0  503  0.15785738396E+03 -0.43389377158E+01 -0.25707146265E+03  0.50102247151E+03  0.40000000000E+03 0. -1.
<mgrwt>
<rscale>  2 0.43004393E+03</rscale>
<asrwt>0</asrwt>
<pdfrwt beam="1">  1       21 0.14358718E+00 0.43004393E+03</pdfrwt>
<pdfrwt beam="2">  1       21 0.67081873E-01 0.43004393E+03</pdfrwt>
<totfact> 0.57536488E+02</totfact>
</mgrwt>
</event>
<event>
 4    1  0.4991790E-002  0.4295426E+03  0.7818608E-02  0.1034005E+00
         21   -1    0    0  503  502  0.00000000000E+00  0.00000000000E+00  0.88455019887E+03  0.88455019887E+03  0.00000000000E+00 0.  1.
         21   -1    0    0  501  503 -0.00000000000E+00 -0.00000000000E+00 -0.20859815235E+03  0.20859815235E+03  0.00000000000E+00 0.  1.
    9000005    1    1    2  501    0 -0.13839652257E+03 -0.73165946603E+02  0.34172567639E+03  0.54889278653E+03  0.40000000000E+03 0. -1.
   -9000005    1    1    2    0  502  0.13839652257E+03  0.73165946603E+02  0.33422637014E+03  0.54425556469E+03  0.40000000000E+03 0. -1.
<mgrwt>
<rscale>  2 0.42954261E+03</rscale>
<asrwt>0</asrwt>
<pdfrwt beam="1">  1       21 0.13608464E+00 0.42954261E+03</pdfrwt>
<pdfrwt beam="2">  1       21 0.32092024E-01 0.42954261E+03</pdfrwt>
<totfact> 0.31364568E+03</totfact>
</mgrwt>
</event>
<event>
 4    1  0.4991790E-002  0.4525115E+03  0.7818608E-02  0.1026976E+00
         21   -1    0    0  503  502  0.00000000000E+00  0.00000000000E+00  0.50643267508E+03  0.50643267508E+03  0.00000000000E+00 0.  1.
         21   -1    0    0  501  503 -0.00000000000E+00 -0.00000000000E+00 -0.41017603101E+03  0.41017603101E+03  0.00000000000E+00 0.  1.
    9000005    1    1    2  501    0 -0.52821330938E+00  0.21158058179E+03  0.10283598884E+03  0.46404941784E+03  0.40000000000E+03 0.  1.
   -9000005    1    1    2    0  502  0.52821330938E+00 -0.21158058179E+03 -0.65793447717E+01  0.45255928825E+03  0.40000000000E+03 0.  1.
<mgrwt>
<rscale>  2 0.45251146E+03</rscale>
<asrwt>0</asrwt>
<pdfrwt beam="1">  1       21 0.77912719E-01 0.45251146E+03</pdfrwt>
<pdfrwt beam="2">  1       21 0.63104005E-01 0.45251146E+03</pdfrwt>
<totfact> 0.29509348E+03</totfact>
</mgrwt>
</event>
<event>
 4    1  0.4991790E-002  0.4543691E+03  0.7818608E-02  0.1026427E+00
         21   -1    0    0  501  502  0.00000000000E+00  0.00000000000E+00  0.35274364498E+03  0.35274364498E+03  0.00000000000E+00 0.  1.
         21   -1    0    0  502  503 -0.00000000000E+00 -0.00000000000E+00 -0.13132545553E+04  0.13132545553E+04  0.00000000000E+00 0.  1.
    9000005    1    1    2  501    0  0.10773791286E+03  0.18666495662E+03  0.13994248462E+03  0.47543155438E+03  0.40000000000E+03 0.  1.
   -9000005    1    1    2    0  503 -0.10773791286E+03 -0.18666495662E+03 -0.11004533949E+04  0.11905666459E+04  0.40000000000E+03 0.  1.
<mgrwt>
<rscale>  2 0.45436908E+03</rscale>
<asrwt>0</asrwt>
<pdfrwt beam="1">  1       21 0.54268253E-01 0.45436908E+03</pdfrwt>
<pdfrwt beam="2">  1       21 0.20203916E+00 0.45436908E+03</pdfrwt>
<totfact> 0.34067962E+02</totfact>
</mgrwt>
</event>
<event>
 4    1  0.4991790E-002  0.4010635E+03  0.7818608E-02  0.1043412E+00
         21   -1    0    0  503  502  0.00000000000E+00  0.00000000000E+00  0.48658331187E+03  0.48658331187E+03  0.00000000000E+00 0. -1.
         21   -1    0    0  501  503 -0.00000000000E+00 -0.00000000000E+00 -0.40327505024E+03  0.40327505024E+03  0.00000000000E+00 0. -1.
    9000005    1    1    2  501    0 -0.22078089765E+02 -0.19092259658E+02 -0.14725786867E+03  0.42724329873E+03  0.40000000000E+03 0. -1.
   -9000005    1    1    2    0  502  0.22078089765E+02  0.19092259658E+02  0.23056613030E+03  0.46261506338E+03  0.40000000000E+03 0. -1.
<mgrwt>
<rscale>  2 0.40106353E+03</rscale>
<asrwt>0</asrwt>
<pdfrwt beam="1">  1       21 0.74858971E-01 0.40106353E+03</pdfrwt>
<pdfrwt beam="2">  1       21 0.62042316E-01 0.40106353E+03</pdfrwt>
<totfact> 0.34213429E+03</totfact>
</mgrwt>
</event>
<event>
 4    1  0.4991790E-002  0.4387592E+03  0.7818608E-02  0.1031128E+00
         21   -1    0    0  503  502  0.00000000000E+00  0.00000000000E+00  0.16165798118E+03  0.16165798118E+03  0.00000000000E+00 0. -1.
         21   -1    0    0  501  503 -0.00000000000E+00 -0.00000000000E+00 -0.11915283649E+04  0.11915283649E+04  0.00000000000E+00 0. -1.
    9000005    1    1    2  501    0  0.58937004876E+02 -0.17039967556E+03 -0.53113685963E+03  0.68892378652E+03  0.40000000000E+03 0.  1.
   -9000005    1    1    2    0  502 -0.58937004876E+02  0.17039967556E+03 -0.49873352406E+03  0.66426255953E+03  0.40000000000E+03 0.  1.
<mgrwt>
<rscale>  2 0.43875918E+03</rscale>
<asrwt>0</asrwt>
<pdfrwt beam="1">  1       21 0.24870459E-01 0.43875918E+03</pdfrwt>
<pdfrwt beam="2">  1       21 0.18331205E+00 0.43875918E+03</pdfrwt>
<totfact> 0.22611597E+03</totfact>
</mgrwt>
</event>
<event>
 4    1  0.4991790E-002  0.4201598E+03  0.7818608E-02  0.1037014E+00
         21   -1    0    0  503  502  0.00000000000E+00  0.00000000000E+00  0.28930650144E+04  0.28930650144E+04  0.00000000000E+00 0.  1.
         21   -1    0    0  501  503 -0.00000000000E+00 -0.00000000000E+00 -0.62032996771E+02  0.62032996771E+02  0.00000000000E+00 0.  1.
    9000005    1    1    2  501    0  0.12513198468E+03 -0.29601284894E+02  0.16043487643E+04  0.16584538604E+04  0.40000000000E+03 0.  1.
   -9000005    1    1    2    0  502 -0.12513198468E+03  0.29601284894E+02  0.12266832533E+04  0.12966441508E+04  0.40000000000E+03 0.  1.
<mgrwt>
<rscale>  2 0.42015979E+03</rscale>
<asrwt>0</asrwt>
<pdfrwt beam="1">  1       21 0.44508682E+00 0.42015979E+03</pdfrwt>
<pdfrwt beam="2">  1       21 0.95435402E-02 0.42015979E+03</pdfrwt>
<totfact> 0.30829376E+02</totfact>
</mgrwt>
</event>
<event>
 4    1  0.4991790E-002  0.4846205E+03  0.7818608E-02  0.1017873E+00
         21   -1    0    0  503  502  0.00000000000E+00  0.00000000000E+00  0.81213382743E+03  0.81213382743E+03  0.00000000000E+00 0.  1.
         21   -1    0    0  501  503 -0.00000000000E+00 -0.00000000000E+00 -0.40392035849E+03  0.40392035849E+03  0.00000000000E+00 0.  1.
    9000005    1    1    2  501    0  0.15141076131E+03  0.22788550536E+03 -0.11995179892E+03  0.49924488606E+03  0.40000000000E+03 0.  1.
   -9000005    1    1    2    0  502 -0.15141076131E+03 -0.22788550536E+03  0.52816526786E+03  0.71680929986E+03  0.40000000000E+03 0.  1.
<mgrwt>
<rscale>  2 0.48462049E+03</rscale>
<asrwt>0</asrwt>
<pdfrwt beam="1">  1       21 0.12494367E+00 0.48462049E+03</pdfrwt>
<pdfrwt beam="2">  1       21 0.62141594E-01 0.48462049E+03</pdfrwt>
<totfact> 0.95907087E+02</totfact>
</mgrwt>
</event>
<event>
 4    1  0.4991790E-002  0.4694219E+03  0.7818608E-02  0.1022084E+00
         21   -1    0    0  501  502  0.00000000000E+00  0.00000000000E+00  0.10334565594E+04  0.10334565594E+04  0.00000000000E+00 0. -1.
         21   -1    0    0  502  503 -0.00000000000E+00 -0.00000000000E+00 -0.25585026222E+03  0.25585026222E+03  0.00000000000E+00 0. -1.
    9000005    1    1    2  501    0 -0.18948141115E+02  0.24494460345E+03  0.65193666561E+03  0.80335440920E+03  0.40000000000E+03 0. -1.
   -9000005    1    1    2    0  503  0.18948141115E+02 -0.24494460345E+03  0.12566963152E+03  0.48595241238E+03  0.40000000000E+03 0. -1.
<mgrwt>
<rscale>  2 0.46942187E+03</rscale>
<asrwt>0</asrwt>
<pdfrwt beam="1">  1       21 0.15899332E+00 0.46942187E+03</pdfrwt>
<pdfrwt beam="2">  1       21 0.39361579E-01 0.46942187E+03</pdfrwt>
<totfact> 0.13402295E+03</totfact>
</mgrwt>
</event>
<event>
 4    1  0.4991790E-002  0.5159942E+03  0.7818608E-02  0.1009687E+00
         21   -1    0    0  501  502  0.00000000000E+00  0.00000000000E+00  0.22714993472E+03  0.22714993472E+03  0.00000000000E+00 0.  1.
         21   -1    0    0  502  503 -0.00000000000E+00 -0.00000000000E+00 -0.11825778058E+04  0.11825778058E+04  0.00000000000E+00 0. -1.
    9000005    1    1    2  501    0  0.32572131688E+03  0.12473458778E+02 -0.54395661922E+03  0.74975913935E+03  0.40000000000E+03 0. -1.
   -9000005    1    1    2    0  503 -0.32572131688E+03 -0.12473458778E+02 -0.41147125190E+03  0.65996860121E+03  0.40000000000E+03 0.  1.
<mgrwt>
<rscale>  2 0.51599415E+03</rscale>
<asrwt>0</asrwt>
<pdfrwt beam="1">  1       21 0.34946144E-01 0.51599415E+03</pdfrwt>
<pdfrwt beam="2">  1       21 0.18193505E+00 0.51599415E+03</pdfrwt>
<totfact> 0.11409098E+03</totfact>
</mgrwt>
</event>
<event>
 4    1  0.4991790E-002  0.5471421E+03  0.7818608E-02  0.1002158E+00
         21   -1    0    0  503  502  0.00000000000E+00  0.00000000000E+00  0.32332130509E+03  0.32332130509E+03  0.00000000000E+00 0.  1.
         21   -1    0    0  501  503 -0.00000000000E+00 -0.00000000000E+00 -0.95168019458E+03  0.95168019458E+03  0.00000000000E+00 0. -1.
    9000005    1    1    2  501    0  0.36224931213E+03 -0.90221618911E+02 -0.20926284801E+03  0.58579471166E+03  0.40000000000E+03 0.  1.
   -9000005    1    1    2    0  502 -0.36224931213E+03  0.90221618911E+02 -0.41909604148E+03  0.68920678801E+03  0.40000000000E+03 0. -1.
<mgrwt>
<rscale>  2 0.54714212E+03</rscale>
<asrwt>0</asrwt>
<pdfrwt beam="1">  1       21 0.49741739E-01 0.54714212E+03</pdfrwt>
<pdfrwt beam="2">  1       21 0.14641234E+00 0.54714212E+03</pdfrwt>
<totfact> 0.99976777E+02</totfact>
</mgrwt>
</event>
<event>
 4    1  0.4991790E-002  0.4388229E+03  0.7818608E-02  0.1031109E+00
         21   -1    0    0  501  502  0.00000000000E+00  0.00000000000E+00  0.48424500354E+03  0.48424500354E+03  0.00000000000E+00 0. -1.
         21   -1    0    0  502  503 -0.00000000000E+00 -0.00000000000E+00 -0.41077977638E+03  0.41077977638E+03  0.00000000000E+00 0. -1.
    9000005    1    1    2  501    0  0.93279814542E+02 -0.15448124318E+03  0.11670489363E+03  0.45407665707E+03  0.40000000000E+03 0. -1.
   -9000005    1    1    2    0  503 -0.93279814542E+02  0.15448124318E+03 -0.43239666463E+02  0.44094812286E+03  0.40000000000E+03 0. -1.
<mgrwt>
<rscale>  2 0.43882295E+03</rscale>
<asrwt>0</asrwt>
<pdfrwt beam="1">  1       21 0.74499231E-01 0.43882295E+03</pdfrwt>
<pdfrwt beam="2">  1       21 0.63196889E-01 0.43882295E+03</pdfrwt>
<totfact> 0.32746771E+03</totfact>
</mgrwt>
</event>
<event>
 4    1  0.4991790E-002  0.4522676E+03  0.7818608E-02  0.1027048E+00
         21   -1    0    0  501  502  0.00000000000E+00  0.00000000000E+00  0.19715322989E+03  0.19715322989E+03  0.00000000000E+00 0. -1.
         21   -1    0    0  502  503 -0.00000000000E+00 -0.00000000000E+00 -0.19348224028E+04  0.19348224028E+04  0.00000000000E+00 0. -1.
    9000005    1    1    2  501    0 -0.10297611891E+03  0.18423317864E+03 -0.14288477937E+03  0.47430159746E+03  0.40000000000E+03 0. -1.
   -9000005    1    1    2    0  503  0.10297611891E+03 -0.18423317864E+03 -0.15947843936E+04  0.16576740352E+04  0.40000000000E+03 0. -1.
<mgrwt>
<rscale>  2 0.45226756E+03</rscale>
<asrwt>0</asrwt>
<pdfrwt beam="1">  1       21 0.30331265E-01 0.45226756E+03</pdfrwt>
<pdfrwt beam="2">  1       21 0.29766500E+00 0.45226756E+03</pdfrwt>
<totfact> 0.28958333E+02</totfact>
</mgrwt>
</event>
<event>
 4    1  0.4991790E-002  0.4536890E+03  0.7818608E-02  0.1026628E+00
         21   -1    0    0  501  502  0.00000000000E+00  0.00000000000E+00  0.92618392146E+03  0.92618392146E+03  0.00000000000E+00 0. -1.
         21   -1    0    0  502  503 -0.00000000000E+00 -0.00000000000E+00 -0.41200942759E+03  0.41200942759E+03  0.00000000000E+00 0. -1.
    9000005    1    1    2  501    0  0.19673647490E+03  0.84430523902E+02  0.71118578065E+03  0.84357511137E+03  0.40000000000E+03 0. -1.
   -9000005    1    1    2    0  503 -0.19673647490E+03 -0.84430523902E+02 -0.19701128679E+03  0.49461823768E+03  0.40000000000E+03 0. -1.
<mgrwt>
<rscale>  2 0.45368905E+03</rscale>
<asrwt>0</asrwt>
<pdfrwt beam="1">  1       21 0.14248983E+00 0.45368905E+03</pdfrwt>
<pdfrwt beam="2">  1       21 0.63386066E-01 0.45368905E+03</pdfrwt>
<totfact> 0.65895616E+02</totfact>
</mgrwt>
</event>
<event>
 4    1  0.4991790E-002  0.4150462E+03  0.7818608E-02  0.1038691E+00
         21   -1    0    0  503  502  0.00000000000E+00  0.00000000000E+00  0.12135413087E+03  0.12135413087E+03  0.00000000000E+00 0.  1.
         21   -1    0    0  501  503 -0.00000000000E+00 -0.00000000000E+00 -0.14252771538E+04  0.14252771538E+04  0.00000000000E+00 0. -1.
    9000005    1    1    2  501    0 -0.91635028175E+02  0.62180268245E+02 -0.60276891547E+03  0.73184269457E+03  0.40000000000E+03 0. -1.
   -9000005    1    1    2    0  502  0.91635028175E+02 -0.62180268245E+02 -0.70115410747E+03  0.81478859011E+03  0.40000000000E+03 0. -1.
<mgrwt>
<rscale>  2 0.41504622E+03</rscale>
<asrwt>0</asrwt>
<pdfrwt beam="1">  1       21 0.18669866E-01 0.41504622E+03</pdfrwt>
<pdfrwt beam="2">  1       21 0.21927341E+00 0.41504622E+03</pdfrwt>
<totfact> 0.22823686E+03</totfact>
</mgrwt>
</event>
<event>
 4    1  0.4991790E-002  0.4094208E+03  0.7818608E-02  0.1040566E+00
         21   -1    0    0  503  502  0.00000000000E+00  0.00000000000E+00  0.46197941072E+03  0.46197941072E+03  0.00000000000E+00 0.  1.
         21   -1    0    0  501  503 -0.00000000000E+00 -0.00000000000E+00 -0.40620092303E+03  0.40620092303E+03  0.00000000000E+00 0.  1.
    9000005    1    1    2  501    0 -0.47296405061E+01  0.87195341269E+02  0.16971340257E+03  0.44320202622E+03  0.40000000000E+03 0.  1.
   -9000005    1    1    2    0  502  0.47296405061E+01 -0.87195341269E+02 -0.11393491488E+03  0.42497830753E+03  0.40000000000E+03 0.  1.
<mgrwt>
<rscale>  2 0.40942081E+03</rscale>
<asrwt>0</asrwt>
<pdfrwt beam="1">  1       21 0.71073755E-01 0.40942081E+03</pdfrwt>
<pdfrwt beam="2">  1       21 0.62492450E-01 0.40942081E+03</pdfrwt>
<totfact> 0.37746970E+03</totfact>
</mgrwt>
</event>
<event>
 4    1  0.4991790E-002  0.4496241E+03  0.7818608E-02  0.1027834E+00
         21   -1    0    0  501  502  0.00000000000E+00  0.00000000000E+00  0.17453035167E+03  0.17453035167E+03  0.00000000000E+00 0.  1.
         21   -1    0    0  502  503 -0.00000000000E+00 -0.00000000000E+00 -0.20502899455E+04  0.20502899455E+04  0.00000000000E+00 0.  1.
    9000005    1    1    2  501    0  0.20207081272E+03  0.36458288524E+02 -0.20415590917E+03  0.49380305326E+03  0.40000000000E+03 0.  1.
   -9000005    1    1    2    0  503 -0.20207081272E+03 -0.36458288524E+02 -0.16716036847E+04  0.17310172440E+04  0.40000000000E+03 0.  1.
<mgrwt>
<rscale>  2 0.44962409E+03</rscale>
<asrwt>0</asrwt>
<pdfrwt beam="1">  1       21 0.26850825E-01 0.44962409E+03</pdfrwt>
<pdfrwt beam="2">  1       21 0.31542921E+00 0.44962409E+03</pdfrwt>
<totfact> 0.28849202E+02</totfact>
</mgrwt>
</event>
<event>
 4    1  0.4991790E-002  0.4015974E+03  0.7818608E-02  0.1043228E+00
         21   -1    0    0  503  502  0.00000000000E+00  0.00000000000E+00  0.13787228055E+03  0.13787228055E+03  0.00000000000E+00 0. -1.
         21   -1    0    0  501  503 -0.00000000000E+00 -0.00000000000E+00 -0.14449363851E+04  0.14449363851E+04  0.00000000000E+00 0. -1.
    9000005    1    1    2  501    0 -0.30906012309E+02  0.18036569994E+02 -0.99888435141E+03  0.10765920522E+04  0.40000000000E+03 0. -1.
   -9000005    1    1    2    0  502  0.30906012309E+02 -0.18036569994E+02 -0.30817975314E+03  0.50621661342E+03  0.40000000000E+03 0. -1.
<mgrwt>
<rscale>  2 0.40159743E+03</rscale>
<asrwt>0</asrwt>
<pdfrwt beam="1">  1       21 0.21211120E-01 0.40159743E+03</pdfrwt>
<pdfrwt beam="2">  1       21 0.22229791E+00 0.40159743E+03</pdfrwt>
<totfact> 0.17250694E+03</totfact>
</mgrwt>
</event>
<event>
 4    1  0.4991790E-002  0.4401995E+03  0.7818608E-02  0.1030686E+00
         21   -1    0    0  503  502  0.00000000000E+00  0.00000000000E+00  0.71713925232E+03  0.71713925232E+03  0.00000000000E+00 0. -1.
         21   -1    0    0  501  503 -0.00000000000E+00 -0.00000000000E+00 -0.27032204760E+03  0.27032204760E+03  0.00000000000E+00 0. -1.
    9000005    1    1    2  501    0 -0.16671527557E+03 -0.77340822095E+02  0.23362259799E+03  0.49835238954E+03  0.40000000000E+03 0.  1.
   -9000005    1    1    2    0  502  0.16671527557E+03  0.77340822095E+02  0.21319460673E+03  0.48910891038E+03  0.40000000000E+03 0.  1.
<mgrwt>
<rscale>  2 0.44019948E+03</rscale>
<asrwt>0</asrwt>
<pdfrwt beam="1">  1       21 0.11032912E+00 0.44019948E+03</pdfrwt>
<pdfrwt beam="2">  1       21 0.41588008E-01 0.44019948E+03</pdfrwt>
<totfact> 0.31486212E+03</totfact>
</mgrwt>
</event>
<event>
 4    1  0.4991790E-002  0.4312380E+03  0.7818608E-02  0.1033470E+00
         21   -1    0    0  501  502  0.00000000000E+00  0.00000000000E+00  0.50774635766E+03  0.50774635766E+03  0.00000000000E+00 0. -1.
         21   -1    0    0  502  503 -0.00000000000E+00 -0.00000000000E+00 -0.13992717851E+04  0.13992717851E+04  0.00000000000E+00 0.  1.
    9000005    1    1    2  501    0 -0.27059302289E+02 -0.15885213180E+03  0.37350687184E+03  0.57050292631E+03  0.40000000000E+03 0. -1.
   -9000005    1    1    2    0  503  0.27059302289E+02  0.15885213180E+03 -0.12650322993E+04  0.13365152165E+04  0.40000000000E+03 0.  1.
<mgrwt>
<rscale>  2 0.43123799E+03</rscale>
<asrwt>0</asrwt>
<pdfrwt beam="1">  1       21 0.78114825E-01 0.43123799E+03</pdfrwt>
<pdfrwt beam="2">  1       21 0.21527258E+00 0.43123799E+03</pdfrwt>
<totfact> 0.12580323E+02</totfact>
</mgrwt>
</event>
<event>
 4    1  0.4991790E-002  0.5726607E+03  0.7818608E-02  0.9963808E-01
         21   -1    0    0  501  502  0.00000000000E+00  0.00000000000E+00  0.96116072949E+03  0.96116072949E+03  0.00000000000E+00 0.  1.
         21   -1    0    0  502  503 -0.00000000000E+00 -0.00000000000E+00 -0.46515119075E+03  0.46515119075E+03  0.00000000000E+00 0. -1.
    9000005    1    1    2  501    0 -0.29140901426E+02 -0.40876769912E+03  0.61615666956E+03  0.84118325318E+03  0.40000000000E+03 0.  1.
   -9000005    1    1    2    0  503  0.29140901426E+02  0.40876769912E+03 -0.12014713082E+03  0.58512866706E+03  0.40000000000E+03 0. -1.
<mgrwt>
<rscale>  2 0.57266065E+03</rscale>
<asrwt>0</asrwt>
<pdfrwt beam="1">  1       21 0.14787088E+00 0.57266065E+03</pdfrwt>
<pdfrwt beam="2">  1       21 0.71561722E-01 0.57266065E+03</pdfrwt>
<totfact> 0.43307846E+02</totfact>
</mgrwt>
</event>
<event>
 4    1  0.4991790E-002  0.5925745E+03  0.7818608E-02  0.9920933E-01
         21   -1    0    0  501  502  0.00000000000E+00  0.00000000000E+00  0.80774247135E+03  0.80774247135E+03  0.00000000000E+00 0. -1.
         21   -1    0    0  502  503 -0.00000000000E+00 -0.00000000000E+00 -0.95591723307E+03  0.95591723307E+03  0.00000000000E+00 0.  1.
    9000005    1    1    2  501    0  0.20848224938E+02 -0.43670341564E+03  0.57705250905E+03  0.82712400516E+03  0.40000000000E+03 0. -1.
   -9000005    1    1    2    0  503 -0.20848224938E+02  0.43670341564E+03 -0.72522727077E+03  0.93653569926E+03  0.40000000000E+03 0.  1.
<mgrwt>
<rscale>  2 0.59257449E+03</rscale>
<asrwt>0</asrwt>
<pdfrwt beam="1">  1       21 0.12426807E+00 0.59257449E+03</pdfrwt>
<pdfrwt beam="2">  1       21 0.14706419E+00 0.59257449E+03</pdfrwt>
<totfact> 0.11498028E+02</totfact>
</mgrwt>
</event>
<event>
 4    1  0.4991790E-002  0.4158900E+03  0.7818608E-02  0.1038412E+00
         21   -1    0    0  501  502  0.00000000000E+00  0.00000000000E+00  0.13041348745E+04  0.13041348745E+04  0.00000000000E+00 0. -1.
         21   -1    0    0  502  503 -0.00000000000E+00 -0.00000000000E+00 -0.19538976462E+03  0.19538976462E+03  0.00000000000E+00 0. -1.
    9000005    1    1    2  501    0  0.69838695581E+02 -0.89927905952E+02  0.97930623063E+03  0.10639573135E+04  0.40000000000E+03 0. -1.
   -9000005    1    1    2    0  503 -0.69838695581E+02  0.89927905952E+02  0.12943887928E+03  0.43556732561E+03  0.40000000000E+03 0. -1.
<mgrwt>
<rscale>  2 0.41588998E+03</rscale>
<asrwt>0</asrwt>
<pdfrwt beam="1">  1       21 0.20063613E+00 0.41588998E+03</pdfrwt>
<pdfrwt beam="2">  1       21 0.30059965E-01 0.41588998E+03</pdfrwt>
<totfact> 0.12007953E+03</totfact>
</mgrwt>
</event>
<event>
 4    1  0.4991790E-002  0.4435939E+03  0.7818608E-02  0.1029650E+00
         21   -1    0    0  501  502  0.00000000000E+00  0.00000000000E+00  0.45783716384E+03  0.45783716384E+03  0.00000000000E+00 0.  1.
         21   -1    0    0  502  503 -0.00000000000E+00 -0.00000000000E+00 -0.82094278894E+03  0.82094278894E+03  0.00000000000E+00 0. -1.
    9000005    1    1    2  501    0  0.10256453201E+02  0.19149499724E+03  0.25979455316E+03  0.51407075258E+03  0.40000000000E+03 0.  1.
   -9000005    1    1    2    0  503 -0.10256453201E+02 -0.19149499724E+03 -0.62290017826E+03  0.76470920021E+03  0.40000000000E+03 0. -1.
<mgrwt>
<rscale>  2 0.44359388E+03</rscale>
<asrwt>0</asrwt>
<pdfrwt beam="1">  1       21 0.70436487E-01 0.44359388E+03</pdfrwt>
<pdfrwt beam="2">  1       21 0.12629889E+00 0.44359388E+03</pdfrwt>
<totfact> 0.71749122E+02</totfact>
</mgrwt>
</event>
<event>
 4    1  0.4991790E-002  0.4221753E+03  0.7818608E-02  0.1036361E+00
         21   -1    0    0  503  502  0.00000000000E+00  0.00000000000E+00  0.19968506460E+03  0.19968506460E+03  0.00000000000E+00 0.  1.
         21   -1    0    0  501  503 -0.00000000000E+00 -0.00000000000E+00 -0.16861007562E+04  0.16861007562E+04  0.00000000000E+00 0.  1.
    9000005    1    1    2  501    0  0.80648278008E+02  0.10829526198E+03 -0.13900580355E+04  0.14527537130E+04  0.40000000000E+03 0.  1.
   -9000005    1    1    2    0  502 -0.80648278008E+02 -0.10829526198E+03 -0.96357656080E+02  0.43303210781E+03  0.40000000000E+03 0.  1.
<mgrwt>
<rscale>  2 0.42217533E+03</rscale>
<asrwt>0</asrwt>
<pdfrwt beam="1">  1       21 0.30720780E-01 0.42217533E+03</pdfrwt>
<pdfrwt beam="2">  1       21 0.25940011E+00 0.42217533E+03</pdfrwt>
<totfact> 0.48872388E+02</totfact>
</mgrwt>
</event>
<event>
 4    1  0.4991790E-002  0.5198402E+03  0.7818608E-02  0.1008726E+00
         21   -1    0    0  503  502  0.00000000000E+00  0.00000000000E+00  0.11587806374E+04  0.11587806374E+04  0.00000000000E+00 0. -1.
         21   -1    0    0  501  503 -0.00000000000E+00 -0.00000000000E+00 -0.24684182089E+03  0.24684182089E+03  0.00000000000E+00 0. -1.
    9000005    1    1    2  501    0 -0.19964810561E+03  0.26528183172E+03  0.29078057031E+03  0.59564012321E+03  0.40000000000E+03 0. -1.
   -9000005    1    1    2    0  502  0.19964810561E+03 -0.26528183172E+03  0.62115824624E+03  0.80998233511E+03  0.40000000000E+03 0. -1.
<mgrwt>
<rscale>  2 0.51984018E+03</rscale>
<asrwt>0</asrwt>
<pdfrwt beam="1">  1       21 0.17827394E+00 0.51984018E+03</pdfrwt>
<pdfrwt beam="2">  1       21 0.37975666E-01 0.51984018E+03</pdfrwt>
<totfact> 0.10207423E+03</totfact>
</mgrwt>
</event>
<event>
 4    1  0.4991790E-002  0.4562147E+03  0.7818608E-02  0.1025885E+00
         21   -1    0    0  503  502  0.00000000000E+00  0.00000000000E+00  0.64183381652E+03  0.64183381652E+03  0.00000000000E+00 0. -1.
         21   -1    0    0  501  503 -0.00000000000E+00 -0.00000000000E+00 -0.95307633826E+03  0.95307633826E+03  0.00000000000E+00 0. -1.
    9000005    1    1    2  501    0 -0.16472012530E+03  0.14491090072E+03 -0.80335788233E+03  0.92385917538E+03  0.40000000000E+03 0. -1.
   -9000005    1    1    2    0  502  0.16472012530E+03 -0.14491090072E+03  0.49211536059E+03  0.67105097940E+03  0.40000000000E+03 0. -1.
<mgrwt>
<rscale>  2 0.45621474E+03</rscale>
<asrwt>0</asrwt>
<pdfrwt beam="1">  1       21 0.98743665E-01 0.45621474E+03</pdfrwt>
<pdfrwt beam="2">  1       21 0.14662713E+00 0.45621474E+03</pdfrwt>
<totfact> 0.21895447E+02</totfact>
</mgrwt>
</event>
<event>
 4    1  0.4991790E-002  0.4461530E+03  0.7818608E-02  0.1028875E+00
         21   -1    0    0  501  502  0.00000000000E+00  0.00000000000E+00  0.15006382276E+04  0.15006382276E+04  0.00000000000E+00 0. -1.
         21   -1    0    0  502  503 -0.00000000000E+00 -0.00000000000E+00 -0.19539601067E+03  0.19539601067E+03  0.00000000000E+00 0. -1.
    9000005    1    1    2  501    0  0.17155669668E+03 -0.98085813128E+02  0.11331906970E+04  0.12178561831E+04  0.40000000000E+03 0. -1.
   -9000005    1    1    2    0  503 -0.17155669668E+03  0.98085813128E+02  0.17205151986E+03  0.47817805512E+03  0.40000000000E+03 0. -1.
<mgrwt>
<rscale>  2 0.44615303E+03</rscale>
<asrwt>0</asrwt>
<pdfrwt beam="1">  1       21 0.23086741E+00 0.44615303E+03</pdfrwt>
<pdfrwt beam="2">  1       21 0.30060926E-01 0.44615303E+03</pdfrwt>
<totfact> 0.75551763E+02</totfact>
</mgrwt>
</event>
<event>
 4    1  0.4991790E-002  0.4762160E+03  0.7818608E-02  0.1020180E+00
         21   -1    0    0  501  502  0.00000000000E+00  0.00000000000E+00  0.14969085886E+04  0.14969085886E+04  0.00000000000E+00 0.  1.
         21   -1    0    0  502  503 -0.00000000000E+00 -0.00000000000E+00 -0.28124112074E+03  0.28124112074E+03  0.00000000000E+00 0.  1.
    9000005    1    1    2  501    0 -0.17606414925E+03 -0.18916412099E+03  0.12116957910E+04  0.13019171784E+04  0.40000000000E+03 0.  1.
   -9000005    1    1    2    0  503  0.17606414925E+03  0.18916412099E+03  0.39716768052E+01  0.47623253096E+03  0.40000000000E+03 0.  1.
<mgrwt>
<rscale>  2 0.47621597E+03</rscale>
<asrwt>0</asrwt>
<pdfrwt beam="1">  1       21 0.23029362E+00 0.47621597E+03</pdfrwt>
<pdfrwt beam="2">  1       21 0.43267866E-01 0.47621597E+03</pdfrwt>
<totfact> 0.35777717E+02</totfact>
</mgrwt>
</event>
<event>
 4    1  0.4991790E-002  0.4038992E+03  0.7818608E-02  0.1042438E+00
         21   -1    0    0  503  502  0.00000000000E+00  0.00000000000E+00  0.32361114850E+03  0.32361114850E+03  0.00000000000E+00 0.  1.
         21   -1    0    0  501  503 -0.00000000000E+00 -0.00000000000E+00 -0.99476141896E+03  0.99476141896E+03  0.00000000000E+00 0.  1.
    9000005    1    1    2  501    0  0.10413705056E+02 -0.55010328941E+02 -0.79852785500E+03  0.89486385376E+03  0.40000000000E+03 0.  1.
   -9000005    1    1    2    0  502 -0.10413705056E+02  0.55010328941E+02  0.12737758454E+03  0.42350871371E+03  0.40000000000E+03 0.  1.
<mgrwt>
<rscale>  2 0.40389922E+03</rscale>
<asrwt>0</asrwt>
<pdfrwt beam="1">  1       21 0.49786331E-01 0.40389922E+03</pdfrwt>
<pdfrwt beam="2">  1       21 0.15304022E+00 0.40389922E+03</pdfrwt>
<totfact> 0.93810663E+02</totfact>
</mgrwt>
</event>
<event>
 4    1  0.4991790E-002  0.4042904E+03  0.7818608E-02  0.1042304E+00
         21   -1    0    0  501  502  0.00000000000E+00  0.00000000000E+00  0.77870815439E+03  0.77870815439E+03  0.00000000000E+00 0. -1.
         21   -1    0    0  502  503 -0.00000000000E+00 -0.00000000000E+00 -0.23807464717E+03  0.23807464717E+03  0.00000000000E+00 0. -1.
    9000005    1    1    2  501    0  0.17599102552E+02 -0.56044501624E+02  0.44520963049E+03  0.60138367924E+03  0.40000000000E+03 0. -1.
   -9000005    1    1    2    0  503 -0.17599102552E+02  0.56044501624E+02  0.95423876738E+02  0.41539912232E+03  0.40000000000E+03 0. -1.
<mgrwt>
<rscale>  2 0.40429038E+03</rscale>
<asrwt>0</asrwt>
<pdfrwt beam="1">  1       21 0.11980125E+00 0.40429038E+03</pdfrwt>
<pdfrwt beam="2">  1       21 0.36626869E-01 0.40429038E+03</pdfrwt>
<totfact> 0.33709582E+03</totfact>
</mgrwt>
</event>
<event>
 4    1  0.4991790E-002  0.4022765E+03  0.7818608E-02  0.1042994E+00
         21   -1    0    0  503  502  0.00000000000E+00  0.00000000000E+00  0.40642280077E+03  0.40642280077E+03  0.00000000000E+00 0. -1.
         21   -1    0    0  501  503 -0.00000000000E+00 -0.00000000000E+00 -0.43009634328E+03  0.43009634328E+03  0.00000000000E+00 0. -1.
    9000005    1    1    2  501    0  0.39837421427E+02  0.15470309359E+02 -0.12578855680E+03  0.42148441447E+03  0.40000000000E+03 0. -1.
   -9000005    1    1    2    0  502 -0.39837421427E+02 -0.15470309359E+02  0.10211501428E+03  0.41503472958E+03  0.40000000000E+03 0. -1.
<mgrwt>
<rscale>  2 0.40227646E+03</rscale>
<asrwt>0</asrwt>
<pdfrwt beam="1">  1       21 0.62526585E-01 0.40227646E+03</pdfrwt>
<pdfrwt beam="2">  1       21 0.66168668E-01 0.40227646E+03</pdfrwt>
<totfact> 0.44366827E+03</totfact>
</mgrwt>
</event>
<event>
 4    1  0.4991790E-002  0.5082936E+03  0.7818608E-02  0.1011637E+00
         21   -1    0    0  503  502  0.00000000000E+00  0.00000000000E+00  0.83798565916E+03  0.83798565916E+03  0.00000000000E+00 0. -1.
         21   -1    0    0  501  503 -0.00000000000E+00 -0.00000000000E+00 -0.37260857172E+03  0.37260857172E+03  0.00000000000E+00 0. -1.
    9000005    1    1    2  501    0 -0.29911522373E+01 -0.31361344552E+03 -0.18749407873E+02  0.50863924396E+03  0.40000000000E+03 0. -1.
   -9000005    1    1    2    0  502  0.29911522373E+01  0.31361344552E+03  0.48412649531E+03  0.70195498692E+03  0.40000000000E+03 0. -1.
<mgrwt>
<rscale>  2 0.50829356E+03</rscale>
<asrwt>0</asrwt>
<pdfrwt beam="1">  1       21 0.12892087E+00 0.50829356E+03</pdfrwt>
<pdfrwt beam="2">  1       21 0.57324396E-01 0.50829356E+03</pdfrwt>
<totfact> 0.10463309E+03</totfact>
</mgrwt>
</event>
<event>
 4    1  0.4991790E-002  0.5196805E+03  0.7818608E-02  0.1008766E+00
         21   -1    0    0  503  502  0.00000000000E+00  0.00000000000E+00  0.12757977956E+03  0.12757977956E+03  0.00000000000E+00 0. -1.
         21   -1    0    0  501  503 -0.00000000000E+00 -0.00000000000E+00 -0.22696028329E+04  0.22696028329E+04  0.00000000000E+00 0. -1.
    9000005    1    1    2  501    0  0.30246802181E+03 -0.13631165593E+03 -0.13819576056E+04  0.14764398381E+04  0.40000000000E+03 0. -1.
   -9000005    1    1    2    0  502 -0.30246802181E+03  0.13631165593E+03 -0.76006544774E+03  0.92074277440E+03  0.40000000000E+03 0. -1.
<mgrwt>
<rscale>  2 0.51968045E+03</rscale>
<asrwt>0</asrwt>
<pdfrwt beam="1">  1       21 0.19627662E-01 0.51968045E+03</pdfrwt>
<pdfrwt beam="2">  1       21 0.34916960E+00 0.51968045E+03</pdfrwt>
<totfact> 0.31640653E+02</totfact>
</mgrwt>
</event>
<event>
 4    1  0.4991790E-002  0.4123946E+03  0.7818608E-02  0.1039570E+00
         21   -1    0    0  501  502  0.00000000000E+00  0.00000000000E+00  0.29347256359E+03  0.29347256359E+03  0.00000000000E+00 0. -1.
         21   -1    0    0  502  503 -0.00000000000E+00 -0.00000000000E+00 -0.72203298417E+03  0.72203298417E+03  0.00000000000E+00 0. -1.
    9000005    1    1    2  501    0  0.60388049838E+02 -0.80141142441E+02  0.11310522371E+02  0.41254969057E+03  0.40000000000E+03 0. -1.
   -9000005    1    1    2    0  503 -0.60388049838E+02  0.80141142441E+02 -0.43987094295E+03  0.60295585719E+03  0.40000000000E+03 0. -1.
<mgrwt>
<rscale>  2 0.41239462E+03</rscale>
<asrwt>0</asrwt>
<pdfrwt beam="1">  1       21 0.45149626E-01 0.41239462E+03</pdfrwt>
<pdfrwt beam="2">  1       21 0.11108200E+00 0.41239462E+03</pdfrwt>
<totfact> 0.26371498E+03</totfact>
</mgrwt>
</event>
<event>
 4    1  0.4991790E-002  0.5926496E+03  0.7818608E-02  0.9920774E-01
         21   -1    0    0  501  502  0.00000000000E+00  0.00000000000E+00  0.18243995633E+04  0.18243995633E+04  0.00000000000E+00 0.  1.
         21   -1    0    0  502  503 -0.00000000000E+00 -0.00000000000E+00 -0.33947982303E+03  0.33947982303E+03  0.00000000000E+00 0.  1.
    9000005    1    1    2  501    0  0.30254671078E+03  0.31575159710E+03  0.14543209276E+04  0.15704403662E+04  0.40000000000E+03 0.  1.
   -9000005    1    1    2    0  503 -0.30254671078E+03 -0.31575159710E+03  0.30598812659E+02  0.59343902013E+03  0.40000000000E+03 0.  1.
<mgrwt>
<rscale>  2 0.59264963E+03</rscale>
<asrwt>0</asrwt>
<pdfrwt beam="1">  1       21 0.28067685E+00 0.59264963E+03</pdfrwt>
<pdfrwt beam="2">  1       21 0.52227666E-01 0.59264963E+03</pdfrwt>
<totfact> 0.11091917E+02</totfact>
</mgrwt>
</event>
<event>
 4    1  0.4991790E-002  0.4348077E+03  0.7818608E-02  0.1032352E+00
         21   -1    0    0  503  502  0.00000000000E+00  0.00000000000E+00  0.86603566706E+03  0.86603566706E+03  0.00000000000E+00 0. -1.
         21   -1    0    0  501  503 -0.00000000000E+00 -0.00000000000E+00 -0.22254473359E+03  0.22254473359E+03  0.00000000000E+00 0. -1.
    9000005    1    1    2  501    0  0.17003900862E+03 -0.12021059296E+02  0.24659736510E+03  0.49986801337E+03  0.40000000000E+03 0. -1.
   -9000005    1    1    2    0  502 -0.17003900862E+03  0.12021059296E+02  0.39689356837E+03  0.58871238728E+03  0.40000000000E+03 0. -1.
<mgrwt>
<rscale>  2 0.43480774E+03</rscale>
<asrwt>0</asrwt>
<pdfrwt beam="1">  1       21 0.13323626E+00 0.43480774E+03</pdfrwt>
<pdfrwt beam="2">  1       21 0.34237652E-01 0.43480774E+03</pdfrwt>
<totfact> 0.29047322E+03</totfact>
</mgrwt>
</event>
<event>
 4    1  0.4991790E-002  0.5195608E+03  0.7818608E-02  0.1008796E+00
         21   -1    0    0  503  502  0.00000000000E+00  0.00000000000E+00  0.15157632325E+04  0.15157632325E+04  0.00000000000E+00 0. -1.
         21   -1    0    0  501  503 -0.00000000000E+00 -0.00000000000E+00 -0.21452801431E+03  0.21452801431E+03  0.00000000000E+00 0. -1.
    9000005    1    1    2  501    0  0.13214143728E+03 -0.30410856537E+03  0.29406779395E+03  0.59700858152E+03  0.40000000000E+03 0. -1.
   -9000005    1    1    2    0  502 -0.13214143728E+03  0.30410856537E+03  0.10071674243E+04  0.11332826653E+04  0.40000000000E+03 0. -1.
<mgrwt>
<rscale>  2 0.51956076E+03</rscale>
<asrwt>0</asrwt>
<pdfrwt beam="1">  1       21 0.23319434E+00 0.51956076E+03</pdfrwt>
<pdfrwt beam="2">  1       21 0.33004311E-01 0.51956076E+03</pdfrwt>
<totfact> 0.58549744E+02</totfact>
</mgrwt>
</event>
<event>
 4    1  0.4991790E-002  0.4023778E+03  0.7818608E-02  0.1042959E+00
         21   -1    0    0  503  502  0.00000000000E+00  0.00000000000E+00  0.23950090498E+03  0.23950090498E+03  0.00000000000E+00 0.  1.
         21   -1    0    0  501  503 -0.00000000000E+00 -0.00000000000E+00 -0.13439078848E+04  0.13439078848E+04  0.00000000000E+00 0.  1.
    9000005    1    1    2  501    0  0.10958649683E+02  0.42282494710E+02 -0.11103258338E+04  0.11809874507E+04  0.40000000000E+03 0.  1.
   -9000005    1    1    2    0  502 -0.10958649683E+02 -0.42282494710E+02  0.59188539772E+01  0.40242133914E+03  0.40000000000E+03 0.  1.
<mgrwt>
<rscale>  2 0.40237781E+03</rscale>
<asrwt>0</asrwt>
<pdfrwt beam="1">  1       21 0.36846294E-01 0.40237781E+03</pdfrwt>
<pdfrwt beam="2">  1       21 0.20675505E+00 0.40237781E+03</pdfrwt>
<totfact> 0.73239674E+02</totfact>
</mgrwt>
</event>
<event>
 4    1  0.4991790E-002  0.4592349E+03  0.7818608E-02  0.1025003E+00
         21   -1    0    0  503  502  0.00000000000E+00  0.00000000000E+00  0.68586411174E+03  0.68586411174E+03  0.00000000000E+00 0.  1.
         21   -1    0    0  501  503 -0.00000000000E+00 -0.00000000000E+00 -0.37538524609E+03  0.37538524609E+03  0.00000000000E+00 0. -1.
    9000005    1    1    2  501    0  0.78106909428E+02 -0.21165061787E+03  0.38090590900E+03  0.59664561077E+03  0.40000000000E+03 0.  1.
   -9000005    1    1    2    0  502 -0.78106909428E+02  0.21165061787E+03 -0.70427043350E+02  0.46460374706E+03  0.40000000000E+03 0. -1.
<mgrwt>
<rscale>  2 0.45923488E+03</rscale>
<asrwt>0</asrwt>
<pdfrwt beam="1">  1       21 0.10551756E+00 0.45923488E+03</pdfrwt>
<pdfrwt beam="2">  1       21 0.57751576E-01 0.45923488E+03</pdfrwt>
<totfact> 0.17392550E+03</totfact>
</mgrwt>
</event>
<event>
 4    1  0.4991790E-002  0.4534248E+03  0.7818608E-02  0.1026706E+00
         21   -1    0    0  503  502  0.00000000000E+00  0.00000000000E+00  0.81918697938E+03  0.81918697938E+03  0.00000000000E+00 0. -1.
         21   -1    0    0  501  503 -0.00000000000E+00 -0.00000000000E+00 -0.25753098601E+03  0.25753098601E+03  0.00000000000E+00 0. -1.
    9000005    1    1    2  501    0  0.15812367620E+03  0.14349559474E+03  0.19492039565E+03  0.49354639430E+03  0.40000000000E+03 0. -1.
   -9000005    1    1    2    0  502 -0.15812367620E+03 -0.14349559474E+03  0.36673559772E+03  0.58317157109E+03  0.40000000000E+03 0. -1.
<mgrwt>
<rscale>  2 0.45342484E+03</rscale>
<asrwt>0</asrwt>
<pdfrwt beam="1">  1       21 0.12602876E+00 0.45342484E+03</pdfrwt>
<pdfrwt beam="2">  1       21 0.39620152E-01 0.45342484E+03</pdfrwt>
<totfact> 0.24746593E+03</totfact>
</mgrwt>
</event>
<event>
 4    1  0.4991790E-002  0.4346732E+03  0.7818608E-02  0.1032394E+00
         21   -1    0    0  501  502  0.00000000000E+00  0.00000000000E+00  0.86078173983E+03  0.86078173983E+03  0.00000000000E+00 0.  1.
         21   -1    0    0  502  503 -0.00000000000E+00 -0.00000000000E+00 -0.32160768933E+03  0.32160768933E+03  0.00000000000E+00 0.  1.
    9000005    1    1    2  501    0 -0.12032441250E+03  0.12026165755E+03  0.60270528271E+03  0.74309789956E+03  0.40000000000E+03 0.  1.
   -9000005    1    1    2    0  503  0.12032441250E+03 -0.12026165755E+03 -0.63531232208E+02  0.43929152961E+03  0.40000000000E+03 0.  1.
<mgrwt>
<rscale>  2 0.43467325E+03</rscale>
<asrwt>0</asrwt>
<pdfrwt beam="1">  1       21 0.13242796E+00 0.43467325E+03</pdfrwt>
<pdfrwt beam="2">  1       21 0.49478106E-01 0.43467325E+03</pdfrwt>
<totfact> 0.13784183E+03</totfact>
</mgrwt>
</event>
<event>
 4    1  0.4991790E-002  0.4633277E+03  0.7818608E-02  0.1023821E+00
         21   -1    0    0  503  502  0.00000000000E+00  0.00000000000E+00  0.17315514355E+03  0.17315514355E+03  0.00000000000E+00 0.  1.
         21   -1    0    0  501  503 -0.00000000000E+00 -0.00000000000E+00 -0.12440312475E+04  0.12440312475E+04  0.00000000000E+00 0.  1.
    9000005    1    1    2  501    0 -0.23264117778E+03 -0.23465317133E+02 -0.49396617209E+03  0.67725557796E+03  0.40000000000E+03 0.  1.
   -9000005    1    1    2    0  502  0.23264117778E+03  0.23465317133E+02 -0.57690993189E+03  0.73993081313E+03  0.40000000000E+03 0.  1.
<mgrwt>
<rscale>  2 0.46332768E+03</rscale>
<asrwt>0</asrwt>
<pdfrwt beam="1">  1       21 0.26639254E-01 0.46332768E+03</pdfrwt>
<pdfrwt beam="2">  1       21 0.19138942E+00 0.46332768E+03</pdfrwt>
<totfact> 0.17217414E+03</totfact>
</mgrwt>
</event>
<event>
 4    1  0.4991790E-002  0.4407945E+03  0.7818608E-02  0.1030503E+00
         21   -1    0    0  501  502  0.00000000000E+00  0.00000000000E+00  0.34772827808E+03  0.34772827808E+03  0.00000000000E+00 0.  1.
         21   -1    0    0  502  503 -0.00000000000E+00 -0.00000000000E+00 -0.71638079167E+03  0.71638079167E+03  0.00000000000E+00 0. -1.
    9000005    1    1    2  501    0 -0.17380986900E+03  0.63952819347E+02  0.65235671127E+02  0.44559569842E+03  0.40000000000E+03 0.  1.
   -9000005    1    1    2    0  503  0.17380986900E+03 -0.63952819347E+02 -0.43388818472E+03  0.61851337132E+03  0.40000000000E+03 0. -1.
<mgrwt>
<rscale>  2 0.44079455E+03</rscale>
<asrwt>0</asrwt>
<pdfrwt beam="1">  1       21 0.53496659E-01 0.44079455E+03</pdfrwt>
<pdfrwt beam="2">  1       21 0.11021243E+00 0.44079455E+03</pdfrwt>
<totfact> 0.18559886E+03</totfact>
</mgrwt>
</event>
<event>
 4    1  0.4991790E-002  0.4956390E+03  0.7818608E-02  0.1014924E+00
         21   -1    0    0  501  502  0.00000000000E+00  0.00000000000E+00  0.12025808405E+04  0.12025808405E+04  0.00000000000E+00 0. -1.
         21   -1    0    0  502  503 -0.00000000000E+00 -0.00000000000E+00 -0.40864705414E+03  0.40864705414E+03  0.00000000000E+00 0.  1.
    9000005    1    1    2  501    0 -0.28710697784E+03  0.56812086367E+02  0.96668866070E+03  0.10863447872E+04  0.40000000000E+03 0. -1.
   -9000005    1    1    2    0  503  0.28710697784E+03 -0.56812086367E+02 -0.17275487435E+03  0.52488310746E+03  0.40000000000E+03 0.  1.
<mgrwt>
<rscale>  2 0.49563901E+03</rscale>
<asrwt>0</asrwt>
<pdfrwt beam="1">  1       21 0.18501244E+00 0.49563901E+03</pdfrwt>
<pdfrwt beam="2">  1       21 0.62868778E-01 0.49563901E+03</pdfrwt>
<totfact> 0.31611540E+02</totfact>
</mgrwt>
</event>
<event>
 4    1  0.4991790E-002  0.4014397E+03  0.7818608E-02  0.1043282E+00
         21   -1    0    0  501  502  0.00000000000E+00  0.00000000000E+00  0.14825780083E+03  0.14825780083E+03  0.00000000000E+00 0. -1.
         21   -1    0    0  502  503 -0.00000000000E+00 -0.00000000000E+00 -0.12913022401E+04  0.12913022401E+04  0.00000000000E+00 0. -1.
    9000005    1    1    2  501    0  0.28906984842E+02  0.17838785472E+02 -0.28521021496E+03  0.49244157294E+03  0.40000000000E+03 0. -1.
   -9000005    1    1    2    0  503 -0.28906984842E+02 -0.17838785472E+02 -0.85783422434E+03  0.94711846803E+03  0.40000000000E+03 0. -1.
<mgrwt>
<rscale>  2 0.40143970E+03</rscale>
<asrwt>0</asrwt>
<pdfrwt beam="1">  1       21 0.22808894E-01 0.40143970E+03</pdfrwt>
<pdfrwt beam="2">  1       21 0.19866187E+00 0.40143970E+03</pdfrwt>
<totfact> 0.21366406E+03</totfact>
</mgrwt>
</event>
<event>
 4    1  0.4991790E-002  0.4131491E+03  0.7818608E-02  0.1039319E+00
         21   -1    0    0  503  502  0.00000000000E+00  0.00000000000E+00  0.48984826478E+03  0.48984826478E+03  0.00000000000E+00 0. -1.
         21   -1    0    0  501  503 -0.00000000000E+00 -0.00000000000E+00 -0.37252730217E+03  0.37252730217E+03  0.00000000000E+00 0.  1.
    9000005    1    1    2  501    0 -0.58388192369E+02  0.85340619322E+02  0.16825960147E+03  0.44609807868E+03  0.40000000000E+03 0.  1.
   -9000005    1    1    2    0  502  0.58388192369E+02 -0.85340619322E+02 -0.50938638861E+02  0.41627748827E+03  0.40000000000E+03 0.  1.
<mgrwt>
<rscale>  2 0.41314913E+03</rscale>
<asrwt>0</asrwt>
<pdfrwt beam="1">  1       21 0.75361272E-01 0.41314913E+03</pdfrwt>
<pdfrwt beam="2">  1       21 0.57311892E-01 0.41314913E+03</pdfrwt>
<totfact> 0.39885609E+03</totfact>
</mgrwt>
</event>
<event>
 4    1  0.4991790E-002  0.4605150E+03  0.7818608E-02  0.1024632E+00
         21   -1    0    0  501  502  0.00000000000E+00  0.00000000000E+00  0.16102548920E+04  0.16102548920E+04  0.00000000000E+00 0.  1.
         21   -1    0    0  502  503 -0.00000000000E+00 -0.00000000000E+00 -0.29102640112E+03  0.29102640112E+03  0.00000000000E+00 0.  1.
    9000005    1    1    2  501    0  0.21259513464E+03  0.82929771126E+02  0.13629960380E+04  0.14386911544E+04  0.40000000000E+03 0.  1.
   -9000005    1    1    2    0  503 -0.21259513464E+03 -0.82929771126E+02 -0.43767547143E+02  0.46259013867E+03  0.40000000000E+03 0.  1.
<mgrwt>
<rscale>  2 0.46051497E+03</rscale>
<asrwt>0</asrwt>
<pdfrwt beam="1">  1       21 0.24773152E+00 0.46051497E+03</pdfrwt>
<pdfrwt beam="2">  1       21 0.44773293E-01 0.46051497E+03</pdfrwt>
<totfact> 0.26153580E+02</totfact>
</mgrwt>
</event>
<event>
 4    1  0.4991790E-002  0.6801986E+03  0.7818608E-02  0.9751708E-01
         21   -1    0    0  501  502  0.00000000000E+00  0.00000000000E+00  0.27355129664E+03  0.27355129664E+03  0.00000000000E+00 0. -1.
         21   -1    0    0  502  503 -0.00000000000E+00 -0.00000000000E+00 -0.17214008174E+04  0.17214008174E+04  0.00000000000E+00 0. -1.
    9000005    1    1    2  501    0 -0.36804095922E+03 -0.40892053783E+03 -0.85572360076E+03  0.10931299259E+04  0.40000000000E+03 0. -1.
   -9000005    1    1    2    0  503  0.36804095922E+03  0.40892053783E+03 -0.59212591995E+03  0.90182218813E+03  0.40000000000E+03 0. -1.
<mgrwt>
<rscale>  2 0.68019861E+03</rscale>
<asrwt>0</asrwt>
<pdfrwt beam="1">  1       21 0.42084815E-01 0.68019861E+03</pdfrwt>
<pdfrwt beam="2">  1       21 0.26483089E+00 0.68019861E+03</pdfrwt>
<totfact> 0.21176926E+02</totfact>
</mgrwt>
</event>
<event>
 4    1  0.4991790E-002  0.5445969E+03  0.7818608E-02  0.1002752E+00
         21   -1    0    0  501  502  0.00000000000E+00  0.00000000000E+00  0.13951858344E+04  0.13951858344E+04  0.00000000000E+00 0. -1.
         21   -1    0    0  502  503 -0.00000000000E+00 -0.00000000000E+00 -0.21565022579E+03  0.21565022579E+03  0.00000000000E+00 0.  1.
    9000005    1    1    2  501    0 -0.29755106535E+03  0.21920121491E+03  0.68590096409E+03  0.87581159027E+03  0.40000000000E+03 0. -1.
   -9000005    1    1    2    0  503  0.29755106535E+03 -0.21920121491E+03  0.49363464451E+03  0.73502446991E+03  0.40000000000E+03 0.  1.
<mgrwt>
<rscale>  2 0.54459692E+03</rscale>
<asrwt>0</asrwt>
<pdfrwt beam="1">  1       21 0.21464397E+00 0.54459692E+03</pdfrwt>
<pdfrwt beam="2">  1       21 0.33176959E-01 0.54459692E+03</pdfrwt>
<totfact> 0.75378778E+02</totfact>
</mgrwt>
</event>
<event>
 4    1  0.4991790E-002  0.4245832E+03  0.7818608E-02  0.1035585E+00
         21   -1    0    0  503  502  0.00000000000E+00  0.00000000000E+00  0.16762949994E+03  0.16762949994E+03  0.00000000000E+00 0. -1.
         21   -1    0    0  501  503 -0.00000000000E+00 -0.00000000000E+00 -0.11480431233E+04  0.11480431233E+04  0.00000000000E+00 0. -1.
    9000005    1    1    2  501    0  0.71012549427E+02  0.12340236775E+03 -0.65566849307E+03  0.78113513514E+03  0.40000000000E+03 0. -1.
   -9000005    1    1    2    0  502 -0.71012549427E+02 -0.12340236775E+03 -0.32474513032E+03  0.53453748812E+03  0.40000000000E+03 0. -1.
<mgrwt>
<rscale>  2 0.42458324E+03</rscale>
<asrwt>0</asrwt>
<pdfrwt beam="1">  1       21 0.25789153E-01 0.42458324E+03</pdfrwt>
<pdfrwt beam="2">  1       21 0.17662203E+00 0.42458324E+03</pdfrwt>
<totfact> 0.23625090E+03</totfact>
</mgrwt>
</event>
<event>
 4    1  0.4991790E-002  0.7329355E+03  0.7818608E-02  0.9662509E-01
         21   -1    0    0  501  502  0.00000000000E+00  0.00000000000E+00  0.17077083322E+03  0.17077083322E+03  0.00000000000E+00 0.  1.
         21   -1    0    0  502  503 -0.00000000000E+00 -0.00000000000E+00 -0.31462940266E+04  0.31462940266E+04  0.00000000000E+00 0. -1.
    9000005    1    1    2  501    0  0.56454694584E+03 -0.24182876915E+03 -0.15104834788E+04  0.16789147529E+04  0.40000000000E+03 0. -1.
   -9000005    1    1    2    0  503 -0.56454694584E+03  0.24182876915E+03 -0.14650397146E+04  0.16381501070E+04  0.40000000000E+03 0.  1.
<mgrwt>
<rscale>  2 0.73293547E+03</rscale>
<asrwt>0</asrwt>
<pdfrwt beam="1">  1       21 0.26272438E-01 0.73293547E+03</pdfrwt>
<pdfrwt beam="2">  1       21 0.48404520E+00 0.73293547E+03</pdfrwt>
<totfact> 0.20868974E+01</totfact>
</mgrwt>
</event>
<event>
 4    1  0.4991790E-002  0.4214763E+03  0.7818608E-02  0.1036587E+00
         21   -1    0    0  501  502  0.00000000000E+00  0.00000000000E+00  0.11287121210E+03  0.11287121210E+03  0.00000000000E+00 0. -1.
         21   -1    0    0  502  503 -0.00000000000E+00 -0.00000000000E+00 -0.16291477896E+04  0.16291477896E+04  0.00000000000E+00 0. -1.
    9000005    1    1    2  501    0 -0.98049128813E+02 -0.89602615598E+02 -0.59766605295E+03  0.73133232612E+03  0.40000000000E+03 0. -1.
   -9000005    1    1    2    0  503  0.98049128813E+02  0.89602615598E+02 -0.91861052460E+03  0.10106866756E+04  0.40000000000E+03 0. -1.
<mgrwt>
<rscale>  2 0.42147629E+03</rscale>
<asrwt>0</asrwt>
<pdfrwt beam="1">  1       21 0.17364803E-01 0.42147629E+03</pdfrwt>
<pdfrwt beam="2">  1       21 0.25063811E+00 0.42147629E+03</pdfrwt>
<totfact> 0.16621906E+03</totfact>
</mgrwt>
</event>
<event>
 4    1  0.4991790E-002  0.4382862E+03  0.7818608E-02  0.1031274E+00
         21   -1    0    0  503  502  0.00000000000E+00  0.00000000000E+00  0.54349951960E+03  0.54349951960E+03  0.00000000000E+00 0. -1.
         21   -1    0    0  501  503 -0.00000000000E+00 -0.00000000000E+00 -0.16271782117E+04  0.16271782117E+04  0.00000000000E+00 0.  1.
    9000005    1    1    2  501    0  0.12840876945E+03  0.12492388894E+03 -0.15020970135E+04  0.15647332770E+04  0.40000000000E+03 0.  1.
   -9000005    1    1    2    0  502 -0.12840876945E+03 -0.12492388894E+03  0.41841832138E+03  0.60594445436E+03  0.40000000000E+03 0. -1.
<mgrwt>
<rscale>  2 0.43828620E+03</rscale>
<asrwt>0</asrwt>
<pdfrwt beam="1">  1       21 0.83615312E-01 0.43828620E+03</pdfrwt>
<pdfrwt beam="2">  1       21 0.25033510E+00 0.43828620E+03</pdfrwt>
<totfact> 0.64523365E+01</totfact>
</mgrwt>
</event>
<event>
 4    1  0.4991790E-002  0.5516330E+03  0.7818608E-02  0.1001117E+00
         21   -1    0    0  501  502  0.00000000000E+00  0.00000000000E+00  0.97776946988E+03  0.97776946988E+03  0.00000000000E+00 0.  1.
         21   -1    0    0  502  503 -0.00000000000E+00 -0.00000000000E+00 -0.43592231284E+03  0.43592231284E+03  0.00000000000E+00 0. -1.
    9000005    1    1    2  501    0 -0.89104002098E+02 -0.36926879277E+03  0.64898451487E+03  0.85175105814E+03  0.40000000000E+03 0.  1.
   -9000005    1    1    2    0  503  0.89104002098E+02  0.36926879277E+03 -0.10713735783E+03  0.56194072458E+03  0.40000000000E+03 0. -1.
<mgrwt>
<rscale>  2 0.55163300E+03</rscale>
<asrwt>0</asrwt>
<pdfrwt beam="1">  1       21 0.15042607E+00 0.55163300E+03</pdfrwt>
<pdfrwt beam="2">  1       21 0.67064971E-01 0.55163300E+03</pdfrwt>
<totfact> 0.48227588E+02</totfact>
</mgrwt>
</event>
<event>
 4    1  0.4991790E-002  0.4047720E+03  0.7818608E-02  0.1042140E+00
         21   -1    0    0  501  502  0.00000000000E+00  0.00000000000E+00  0.29760115871E+03  0.29760115871E+03  0.00000000000E+00 0.  1.
         21   -1    0    0  502  503 -0.00000000000E+00 -0.00000000000E+00 -0.90597177910E+03  0.90597177910E+03  0.00000000000E+00 0.  1.
    9000005    1    1    2  501    0 -0.45991083272E+02  0.41535427228E+02  0.72748594620E+02  0.41125749777E+03  0.40000000000E+03 0.  1.
   -9000005    1    1    2    0  503  0.45991083272E+02 -0.41535427228E+02 -0.68111921502E+03  0.79231544004E+03  0.40000000000E+03 0.  1.
<mgrwt>
<rscale>  2 0.40477200E+03</rscale>
<asrwt>0</asrwt>
<pdfrwt beam="1">  1       21 0.45784794E-01 0.40477200E+03</pdfrwt>
<pdfrwt beam="2">  1       21 0.13938027E+00 0.40477200E+03</pdfrwt>
<totfact> 0.14381150E+03</totfact>
</mgrwt>
</event>
<event>
 4    1  0.4991790E-002  0.4899045E+03  0.7818608E-02  0.1016448E+00
         21   -1    0    0  503  502  0.00000000000E+00  0.00000000000E+00  0.12940952713E+04  0.12940952713E+04  0.00000000000E+00 0.  1.
         21   -1    0    0  501  503 -0.00000000000E+00 -0.00000000000E+00 -0.21119725892E+03  0.21119725892E+03  0.00000000000E+00 0.  1.
    9000005    1    1    2  501    0  0.24313457410E+03 -0.14454069688E+03  0.80417614357E+03  0.94165052119E+03  0.40000000000E+03 0.  1.
   -9000005    1    1    2    0  502 -0.24313457410E+03  0.14454069688E+03  0.27872186879E+03  0.56364200901E+03  0.40000000000E+03 0.  1.
<mgrwt>
<rscale>  2 0.48990452E+03</rscale>
<asrwt>0</asrwt>
<pdfrwt beam="1">  1       21 0.19909157E+00 0.48990452E+03</pdfrwt>
<pdfrwt beam="2">  1       21 0.32491887E-01 0.48990452E+03</pdfrwt>
<totfact> 0.10180081E+03</totfact>
</mgrwt>
</event>
<event>
 4    1  0.4991790E-002  0.4787472E+03  0.7818608E-02  0.1019480E+00
         21   -1    0    0  501  502  0.00000000000E+00  0.00000000000E+00  0.70647900064E+03  0.70647900064E+03  0.00000000000E+00 0. -1.
         21   -1    0    0  502  503 -0.00000000000E+00 -0.00000000000E+00 -0.14071343488E+04  0.14071343488E+04  0.00000000000E+00 0.  1.
    9000005    1    1    2  501    0  0.15940091503E+03  0.20926104478E+03  0.57668118127E+03  0.74950651859E+03  0.40000000000E+03 0. -1.
   -9000005    1    1    2    0  503 -0.15940091503E+03 -0.20926104478E+03 -0.12773365295E+04  0.13641068309E+04  0.40000000000E+03 0.  1.
<mgrwt>
<rscale>  2 0.47874715E+03</rscale>
<asrwt>0</asrwt>
<pdfrwt beam="1">  1       21 0.10868908E+00 0.47874715E+03</pdfrwt>
<pdfrwt beam="2">  1       21 0.21648221E+00 0.47874715E+03</pdfrwt>
<totfact> 0.54640722E+01</totfact>
</mgrwt>
</event>
<event>
 4    1  0.4991790E-002  0.4847705E+03  0.7818608E-02  0.1017832E+00
         21   -1    0    0  501  502  0.00000000000E+00  0.00000000000E+00  0.53525984196E+03  0.53525984196E+03  0.00000000000E+00 0.  1.
         21   -1    0    0  502  503 -0.00000000000E+00 -0.00000000000E+00 -0.44267036298E+03  0.44267036298E+03  0.00000000000E+00 0. -1.
    9000005    1    1    2  501    0 -0.55595424573E+02  0.26816332101E+03  0.90553179987E+02  0.49315544849E+03  0.40000000000E+03 0. -1.
   -9000005    1    1    2    0  503  0.55595424573E+02 -0.26816332101E+03  0.20362989942E+01  0.48477475644E+03  0.40000000000E+03 0.  1.
<mgrwt>
<rscale>  2 0.48477048E+03</rscale>
<asrwt>0</asrwt>
<pdfrwt beam="1">  1       21 0.82347668E-01 0.48477048E+03</pdfrwt>
<pdfrwt beam="2">  1       21 0.68103133E-01 0.48477048E+03</pdfrwt>
<totfact> 0.21661747E+03</totfact>
</mgrwt>
</event>
<event>
 4    1  0.4991790E-002  0.4924361E+03  0.7818608E-02  0.1015772E+00
         21   -1    0    0  503  502  0.00000000000E+00  0.00000000000E+00  0.11527033416E+04  0.11527033416E+04  0.00000000000E+00 0.  1.
         21   -1    0    0  501  503 -0.00000000000E+00 -0.00000000000E+00 -0.11963980312E+04  0.11963980312E+04  0.00000000000E+00 0.  1.
    9000005    1    1    2  501    0 -0.85496736669E+02  0.27419637789E+03 -0.10881456342E+04  0.11943844719E+04  0.40000000000E+03 0.  1.
   -9000005    1    1    2    0  502  0.85496736669E+02 -0.27419637789E+03  0.10444509446E+04  0.11547169009E+04  0.40000000000E+03 0.  1.
<mgrwt>
<rscale>  2 0.49243613E+03</rscale>
<asrwt>0</asrwt>
<pdfrwt beam="1">  1       21 0.17733897E+00 0.49243613E+03</pdfrwt>
<pdfrwt beam="2">  1       21 0.18406124E+00 0.49243613E+03</pdfrwt>
<totfact> 0.24194381E+01</totfact>
</mgrwt>
</event>
<event>
 4    1  0.4991790E-002  0.4828890E+03  0.7818608E-02  0.1018344E+00
         21   -1    0    0  501  502  0.00000000000E+00  0.00000000000E+00  0.15267555490E+04  0.15267555490E+04  0.00000000000E+00 0.  1.
         21   -1    0    0  502  503 -0.00000000000E+00 -0.00000000000E+00 -0.32731471719E+03  0.32731471719E+03  0.00000000000E+00 0.  1.
    9000005    1    1    2  501    0  0.26547118662E+03 -0.52026814631E+02  0.12767633986E+04  0.13650298591E+04  0.40000000000E+03 0.  1.
   -9000005    1    1    2    0  503 -0.26547118662E+03  0.52026814631E+02 -0.77322566796E+02  0.48904040702E+03  0.40000000000E+03 0.  1.
<mgrwt>
<rscale>  2 0.48288895E+03</rscale>
<asrwt>0</asrwt>
<pdfrwt beam="1">  1       21 0.23488546E+00 0.48288895E+03</pdfrwt>
<pdfrwt beam="2">  1       21 0.50356111E-01 0.48288895E+03</pdfrwt>
<totfact> 0.24226432E+02</totfact>
</mgrwt>
</event>
<event>
 4    1  0.4991790E-002  0.4640818E+03  0.7818608E-02  0.1023604E+00
         21   -1    0    0  501  502  0.00000000000E+00  0.00000000000E+00  0.11810614182E+04  0.11810614182E+04  0.00000000000E+00 0.  1.
         21   -1    0    0  502  503 -0.00000000000E+00 -0.00000000000E+00 -0.18554541259E+03  0.18554541259E+03  0.00000000000E+00 0.  1.
    9000005    1    1    2  501    0 -0.17228973827E+03 -0.16027526815E+03  0.58736521992E+03  0.74857853099E+03  0.40000000000E+03 0.  1.
   -9000005    1    1    2    0  503  0.17228973827E+03  0.16027526815E+03  0.40815078572E+03  0.61802829982E+03  0.40000000000E+03 0.  1.
<mgrwt>
<rscale>  2 0.46408180E+03</rscale>
<asrwt>0</asrwt>
<pdfrwt beam="1">  1       21 0.18170175E+00 0.46408180E+03</pdfrwt>
<pdfrwt beam="2">  1       21 0.28545449E-01 0.46408180E+03</pdfrwt>
<totfact> 0.17527963E+03</totfact>
</mgrwt>
</event>
<event>
 4    1  0.4991790E-002  0.4415852E+03  0.7818608E-02  0.1030262E+00
         21   -1    0    0  501  502  0.00000000000E+00  0.00000000000E+00  0.40024877664E+03  0.40024877664E+03  0.00000000000E+00 0.  1.
         21   -1    0    0  502  503 -0.00000000000E+00 -0.00000000000E+00 -0.77767906871E+03  0.77767906871E+03  0.00000000000E+00 0.  1.
    9000005    1    1    2  501    0 -0.18695577235E+03 -0.67073484232E+01  0.17124375883E+03  0.47362630235E+03  0.40000000000E+03 0.  1.
   -9000005    1    1    2    0  503  0.18695577235E+03  0.67073484232E+01 -0.54867405090E+03  0.70430154300E+03  0.40000000000E+03 0.  1.
<mgrwt>
<rscale>  2 0.44158516E+03</rscale>
<asrwt>0</asrwt>
<pdfrwt beam="1">  1       21 0.61576735E-01 0.44158516E+03</pdfrwt>
<pdfrwt beam="2">  1       21 0.11964293E+00 0.44158516E+03</pdfrwt>
<totfact> 0.11127531E+03</totfact>
</mgrwt>
</event>
<event>
 4    1  0.4991790E-002  0.4067949E+03  0.7818608E-02  0.1041452E+00
         21   -1    0    0  503  502  0.00000000000E+00  0.00000000000E+00  0.42863760018E+03  0.42863760018E+03  0.00000000000E+00 0. -1.
         21   -1    0    0  501  503 -0.00000000000E+00 -0.00000000000E+00 -0.43970768412E+03  0.43970768412E+03  0.00000000000E+00 0. -1.
    9000005    1    1    2  501    0 -0.15412868311E+02  0.72419139990E+02  0.14611223200E+03  0.43223936966E+03  0.40000000000E+03 0. -1.
   -9000005    1    1    2    0  502  0.15412868311E+02 -0.72419139990E+02 -0.15718231594E+03  0.43610591465E+03  0.40000000000E+03 0. -1.
<mgrwt>
<rscale>  2 0.40679490E+03</rscale>
<asrwt>0</asrwt>
<pdfrwt beam="1">  1       21 0.65944246E-01 0.40679490E+03</pdfrwt>
<pdfrwt beam="2">  1       21 0.67647336E-01 0.40679490E+03</pdfrwt>
<totfact> 0.37479360E+03</totfact>
</mgrwt>
</event>
<event>
 4    1  0.4991790E-002  0.6010812E+03  0.7818608E-02  0.9903165E-01
         21   -1    0    0  503  502  0.00000000000E+00  0.00000000000E+00  0.12593261708E+04  0.12593261708E+04  0.00000000000E+00 0.  1.
         21   -1    0    0  501  503 -0.00000000000E+00 -0.00000000000E+00 -0.32755568453E+03  0.32755568453E+03  0.00000000000E+00 0. -1.
    9000005    1    1    2  501    0  0.28699167188E+03  0.34486871188E+03  0.18634697009E+03  0.62930425187E+03  0.40000000000E+03 0.  1.
   -9000005    1    1    2    0  502 -0.28699167188E+03 -0.34486871188E+03  0.74542351618E+03  0.95757760345E+03  0.40000000000E+03 0.  1.
<mgrwt>
<rscale>  2 0.60108123E+03</rscale>
<asrwt>0</asrwt>
<pdfrwt beam="1">  1       21 0.19374249E+00 0.60108123E+03</pdfrwt>
<pdfrwt beam="2">  1       21 0.50393183E-01 0.60108123E+03</pdfrwt>
<totfact> 0.42680613E+02</totfact>
</mgrwt>
</event>
<event>
 4    1  0.4991790E-002  0.4476344E+03  0.7818608E-02  0.1028430E+00
         21   -1    0    0  501  502  0.00000000000E+00  0.00000000000E+00  0.14028763717E+03  0.14028763717E+03  0.00000000000E+00 0. -1.
         21   -1    0    0  502  503 -0.00000000000E+00 -0.00000000000E+00 -0.16563310862E+04  0.16563310862E+04  0.00000000000E+00 0. -1.
    9000005    1    1    2  501    0 -0.15673497332E+03  0.12574058352E+03 -0.42473028054E+03  0.61706754688E+03  0.40000000000E+03 0. -1.
   -9000005    1    1    2    0  503  0.15673497332E+03 -0.12574058352E+03 -0.10913131685E+04  0.11795511765E+04  0.40000000000E+03 0. -1.
<mgrwt>
<rscale>  2 0.44763439E+03</rscale>
<asrwt>0</asrwt>
<pdfrwt beam="1">  1       21 0.21582714E-01 0.44763439E+03</pdfrwt>
<pdfrwt beam="2">  1       21 0.25482016E+00 0.44763439E+03</pdfrwt>
<totfact> 0.10240415E+03</totfact>
</mgrwt>
</event>
<event>
 4    1  0.4991790E-002  0.4154816E+03  0.7818608E-02  0.1038547E+00
         21   -1    0    0  503  502  0.00000000000E+00  0.00000000000E+00  0.28451727136E+04  0.28451727136E+04  0.00000000000E+00 0. -1.
         21   -1    0    0  501  503 -0.00000000000E+00 -0.00000000000E+00 -0.83705799356E+02  0.83705799356E+02  0.00000000000E+00 0. -1.
    9000005    1    1    2  501    0 -0.55761383440E+02  0.97547871137E+02  0.21489218880E+04  0.21887188490E+04  0.40000000000E+03 0. -1.
   -9000005    1    1    2    0  502  0.55761383440E+02 -0.97547871137E+02  0.61254502628E+03  0.74015966403E+03  0.40000000000E+03 0. -1.
<mgrwt>
<rscale>  2 0.41548155E+03</rscale>
<asrwt>0</asrwt>
<pdfrwt beam="1">  1       21 0.43771881E+00 0.41548155E+03</pdfrwt>
<pdfrwt beam="2">  1       21 0.12877817E-01 0.41548155E+03</pdfrwt>
<totfact> 0.20149171E+02</totfact>
</mgrwt>
</event>
<event>
 4    1  0.4991790E-002  0.4199593E+03  0.7818608E-02  0.1037080E+00
         21   -1    0    0  503  502  0.00000000000E+00  0.00000000000E+00  0.69501383173E+03  0.69501383173E+03  0.00000000000E+00 0. -1.
         21   -1    0    0  501  503 -0.00000000000E+00 -0.00000000000E+00 -0.28101600642E+03  0.28101600642E+03  0.00000000000E+00 0. -1.
    9000005    1    1    2  501    0 -0.83578727962E+02 -0.96852562423E+02  0.55011069220E+02  0.42354697538E+03  0.40000000000E+03 0.  1.
   -9000005    1    1    2    0  502  0.83578727962E+02  0.96852562423E+02  0.35898675608E+03  0.55248286277E+03  0.40000000000E+03 0.  1.
<mgrwt>
<rscale>  2 0.41995931E+03</rscale>
<asrwt>0</asrwt>
<pdfrwt beam="1">  1       21 0.10692520E+00 0.41995931E+03</pdfrwt>
<pdfrwt beam="2">  1       21 0.43233232E-01 0.41995931E+03</pdfrwt>
<totfact> 0.31629502E+03</totfact>
</mgrwt>
</event>
<event>
 4    1  0.4991790E-002  0.5326636E+03  0.7818608E-02  0.1005588E+00
         21   -1    0    0  503  502  0.00000000000E+00  0.00000000000E+00  0.14603708264E+04  0.14603708264E+04  0.00000000000E+00 0. -1.
         21   -1    0    0  501  503 -0.00000000000E+00 -0.00000000000E+00 -0.37354616637E+03  0.37354616637E+03  0.00000000000E+00 0. -1.
    9000005    1    1    2  501    0 -0.32885589470E+03 -0.12483732650E+03 -0.91799599481E+02  0.54051616445E+03  0.40000000000E+03 0. -1.
   -9000005    1    1    2    0  502  0.32885589470E+03  0.12483732650E+03  0.11786242595E+04  0.12934008283E+04  0.40000000000E+03 0. -1.
<mgrwt>
<rscale>  2 0.53266364E+03</rscale>
<asrwt>0</asrwt>
<pdfrwt beam="1">  1       21 0.22467243E+00 0.53266364E+03</pdfrwt>
<pdfrwt beam="2">  1       21 0.57468642E-01 0.53266364E+03</pdfrwt>
<totfact> 0.20641944E+02</totfact>
</mgrwt>
</event>
<event>
 4    1  0.4991790E-002  0.4850555E+03  0.7818608E-02  0.1017755E+00
         21   -1    0    0  501  502  0.00000000000E+00  0.00000000000E+00  0.63553249706E+03  0.63553249706E+03  0.00000000000E+00 0. -1.
         21   -1    0    0  502  503 -0.00000000000E+00 -0.00000000000E+00 -0.39439591159E+03  0.39439591159E+03  0.00000000000E+00 0. -1.
    9000005    1    1    2  501    0 -0.62410531752E+02 -0.26717741569E+03  0.24809913700E+03  0.54482293243E+03  0.40000000000E+03 0. -1.
   -9000005    1    1    2    0  503  0.62410531752E+02  0.26717741569E+03 -0.69625515283E+01  0.48510547621E+03  0.40000000000E+03 0. -1.
<mgrwt>
<rscale>  2 0.48505551E+03</rscale>
<asrwt>0</asrwt>
<pdfrwt beam="1">  1       21 0.97774230E-01 0.48505551E+03</pdfrwt>
<pdfrwt beam="2">  1       21 0.60676294E-01 0.48505551E+03</pdfrwt>
<totfact> 0.18628792E+03</totfact>
</mgrwt>
</event>
<event>
 4    1  0.4991790E-002  0.4970729E+03  0.7818608E-02  0.1014546E+00
         21   -1    0    0  503  502  0.00000000000E+00  0.00000000000E+00  0.66580853843E+03  0.66580853843E+03  0.00000000000E+00 0. -1.
         21   -1    0    0  501  503 -0.00000000000E+00 -0.00000000000E+00 -0.42257999109E+03  0.42257999109E+03  0.00000000000E+00 0.  1.
    9000005    1    1    2  501    0 -0.25116030501E+03  0.15491936219E+03  0.31155539040E+03  0.58664151650E+03  0.40000000000E+03 0.  1.
   -9000005    1    1    2    0  502  0.25116030501E+03 -0.15491936219E+03 -0.68326843049E+02  0.50174701302E+03  0.40000000000E+03 0.  1.
<mgrwt>
<rscale>  2 0.49707294E+03</rscale>
<asrwt>0</asrwt>
<pdfrwt beam="1">  1       21 0.10243208E+00 0.49707294E+03</pdfrwt>
<pdfrwt beam="2">  1       21 0.65012306E-01 0.49707294E+03</pdfrwt>
<totfact> 0.14214152E+03</totfact>
</mgrwt>
</event>
<event>
 4    1  0.4991790E-002  0.4632467E+03  0.7818608E-02  0.1023844E+00
         21   -1    0    0  501  502  0.00000000000E+00  0.00000000000E+00  0.27589918190E+04  0.27589918190E+04  0.00000000000E+00 0. -1.
         21   -1    0    0  502  503 -0.00000000000E+00 -0.00000000000E+00 -0.90645974892E+02  0.90645974892E+02  0.00000000000E+00 0.  1.
    9000005    1    1    2  501    0 -0.19972485725E+03  0.12127430681E+03  0.18709424287E+04  0.19274395055E+04  0.40000000000E+03 0. -1.
   -9000005    1    1    2    0  503  0.19972485725E+03 -0.12127430681E+03  0.79740341544E+03  0.92219828836E+03  0.40000000000E+03 0.  1.
<mgrwt>
<rscale>  2 0.46324667E+03</rscale>
<asrwt>0</asrwt>
<pdfrwt beam="1">  1       21 0.42446022E+00 0.46324667E+03</pdfrwt>
<pdfrwt beam="2">  1       21 0.13945537E-01 0.46324667E+03</pdfrwt>
<totfact> 0.20614882E+02</totfact>
</mgrwt>
</event>
<event>
 4    1  0.4991790E-002  0.4447197E+03  0.7818608E-02  0.1029308E+00
         21   -1    0    0  503  502  0.00000000000E+00  0.00000000000E+00  0.57657843625E+03  0.57657843625E+03  0.00000000000E+00 0.  1.
         21   -1    0    0  501  503 -0.00000000000E+00 -0.00000000000E+00 -0.34991239885E+03  0.34991239885E+03  0.00000000000E+00 0.  1.
    9000005    1    1    2  501    0 -0.18646287963E+03  0.54837804482E+02  0.48298375808E+02  0.44733468833E+03  0.40000000000E+03 0.  1.
   -9000005    1    1    2    0  502  0.18646287963E+03 -0.54837804482E+02  0.17836766159E+03  0.47915614676E+03  0.40000000000E+03 0.  1.
<mgrwt>
<rscale>  2 0.44471968E+03</rscale>
<asrwt>0</asrwt>
<pdfrwt beam="1">  1       21 0.88704375E-01 0.44471968E+03</pdfrwt>
<pdfrwt beam="2">  1       21 0.53832677E-01 0.44471968E+03</pdfrwt>
<totfact> 0.30934674E+03</totfact>
</mgrwt>
</event>
<event>
 4    1  0.4991790E-002  0.9903850E+03  0.7818608E-02  0.9319154E-01
         21   -1    0    0  501  502  0.00000000000E+00  0.00000000000E+00  0.20147591871E+04  0.20147591871E+04  0.00000000000E+00 0. -1.
         21   -1    0    0  502  503 -0.00000000000E+00 -0.00000000000E+00 -0.60135544606E+03  0.60135544606E+03  0.00000000000E+00 0. -1.
    9000005    1    1    2  501    0 -0.22335668019E+03 -0.87805140259E+03  0.12775175645E+04  0.16164509271E+04  0.40000000000E+03 0. -1.
   -9000005    1    1    2    0  503  0.22335668019E+03  0.87805140259E+03  0.13588617650E+03  0.99966370602E+03  0.40000000000E+03 0. -1.
<mgrwt>
<rscale>  2 0.99038501E+03</rscale>
<asrwt>0</asrwt>
<pdfrwt beam="1">  1       21 0.30996295E+00 0.99038501E+03</pdfrwt>
<pdfrwt beam="2">  1       21 0.92516223E-01 0.99038501E+03</pdfrwt>
<totfact> 0.17153517E+01</totfact>
</mgrwt>
</event>
<event>
 4    1  0.4991790E-002  0.7073598E+03  0.7818608E-02  0.9704728E-01
         21   -1    0    0  501  502  0.00000000000E+00  0.00000000000E+00  0.14629962406E+04  0.14629962406E+04  0.00000000000E+00 0.  1.
         21   -1    0    0  502  503 -0.00000000000E+00 -0.00000000000E+00 -0.40817896090E+03  0.40817896090E+03  0.00000000000E+00 0.  1.
    9000005    1    1    2  501    0  0.29675814361E+03 -0.50228730809E+03  0.90410330235E+03  0.11479375928E+04  0.40000000000E+03 0.  1.
   -9000005    1    1    2    0  503 -0.29675814361E+03  0.50228730809E+03  0.15071397737E+03  0.72323760870E+03  0.40000000000E+03 0.  1.
<mgrwt>
<rscale>  2 0.70735983E+03</rscale>
<asrwt>0</asrwt>
<pdfrwt beam="1">  1       21 0.22507634E+00 0.70735983E+03</pdfrwt>
<pdfrwt beam="2">  1       21 0.62796764E-01 0.70735983E+03</pdfrwt>
<totfact> 0.15742750E+02</totfact>
</mgrwt>
</event>
<event>
 4    1  0.4991790E-002  0.5631610E+03  0.7818608E-02  0.9984928E-01
         21   -1    0    0  503  502  0.00000000000E+00  0.00000000000E+00  0.50624370370E+03  0.50624370370E+03  0.00000000000E+00 0.  1.
         21   -1    0    0  501  503 -0.00000000000E+00 -0.00000000000E+00 -0.63713097861E+03  0.63713097861E+03  0.00000000000E+00 0.  1.
    9000005    1    1    2  501    0  0.39397866810E+03 -0.43944188596E+02  0.84811740812E+01  0.56322483339E+03  0.40000000000E+03 0.  1.
   -9000005    1    1    2    0  502 -0.39397866810E+03  0.43944188596E+02 -0.13936844898E+03  0.58014984892E+03  0.40000000000E+03 0.  1.
<mgrwt>
<rscale>  2 0.56316097E+03</rscale>
<asrwt>0</asrwt>
<pdfrwt beam="1">  1       21 0.77883647E-01 0.56316097E+03</pdfrwt>
<pdfrwt beam="2">  1       21 0.98020150E-01 0.56316097E+03</pdfrwt>
<totfact> 0.10277106E+03</totfact>
</mgrwt>
</event>
<event>
 4    1  0.4991790E-002  0.4117851E+03  0.7818608E-02  0.1039774E+00
         21   -1    0    0  501  502  0.00000000000E+00  0.00000000000E+00  0.15841774855E+04  0.15841774855E+04  0.00000000000E+00 0. -1.
         21   -1    0    0  502  503 -0.00000000000E+00 -0.00000000000E+00 -0.11455004388E+03  0.11455004388E+03  0.00000000000E+00 0. -1.
    9000005    1    1    2  501    0 -0.62117463013E+02 -0.75554062710E+02  0.95232345561E+03  0.10375388955E+04  0.40000000000E+03 0. -1.
   -9000005    1    1    2    0  503  0.62117463013E+02  0.75554062710E+02  0.51730398602E+03  0.66118863387E+03  0.40000000000E+03 0. -1.
<mgrwt>
<rscale>  2 0.41178513E+03</rscale>
<asrwt>0</asrwt>
<pdfrwt beam="1">  1       21 0.24371960E+00 0.41178513E+03</pdfrwt>
<pdfrwt beam="2">  1       21 0.17623085E-01 0.41178513E+03</pdfrwt>
<totfact> 0.17915450E+03</totfact>
</mgrwt>
</event>
<event>
 4    1  0.4991790E-002  0.4659983E+03  0.7818608E-02  0.1023056E+00
         21   -1    0    0  503  502  0.00000000000E+00  0.00000000000E+00  0.44878273085E+03  0.44878273085E+03  0.00000000000E+00 0. -1.
         21   -1    0    0  501  503 -0.00000000000E+00 -0.00000000000E+00 -0.60201436505E+03  0.60201436505E+03  0.00000000000E+00 0.  1.
    9000005    1    1    2  501    0 -0.23834342191E+03  0.18623694971E+02 -0.30936279349E+03  0.55933868700E+03  0.40000000000E+03 0.  1.
   -9000005    1    1    2    0  502  0.23834342191E+03 -0.18623694971E+02  0.15613115929E+03  0.49145840890E+03  0.40000000000E+03 0. -1.
<mgrwt>
<rscale>  2 0.46599831E+03</rscale>
<asrwt>0</asrwt>
<pdfrwt beam="1">  1       21 0.69043497E-01 0.46599831E+03</pdfrwt>
<pdfrwt beam="2">  1       21 0.92617594E-01 0.46599831E+03</pdfrwt>
<totfact> 0.16030967E+03</totfact>
</mgrwt>
</event>
<event>
 4    1  0.4991790E-002  0.7351818E+03  0.7818608E-02  0.9658889E-01
         21   -1    0    0  503  502  0.00000000000E+00  0.00000000000E+00  0.55831599435E+03  0.55831599435E+03  0.00000000000E+00 0. -1.
         21   -1    0    0  501  503 -0.00000000000E+00 -0.00000000000E+00 -0.98586643945E+03  0.98586643945E+03  0.00000000000E+00 0.  1.
    9000005    1    1    2  501    0  0.61107412024E+03 -0.84147061602E+02 -0.31749296204E+03  0.80080839740E+03  0.40000000000E+03 0.  1.
   -9000005    1    1    2    0  502 -0.61107412024E+03  0.84147061602E+02 -0.11005748305E+03  0.74337403639E+03  0.40000000000E+03 0. -1.
<mgrwt>
<rscale>  2 0.73518182E+03</rscale>
<asrwt>0</asrwt>
<pdfrwt beam="1">  1       21 0.85894768E-01 0.73518182E+03</pdfrwt>
<pdfrwt beam="2">  1       21 0.15167176E+00 0.73518182E+03</pdfrwt>
<totfact> 0.25081684E+02</totfact>
</mgrwt>
</event>
<event>
 4    1  0.4991790E-002  0.4482443E+03  0.7818608E-02  0.1028247E+00
         21   -1    0    0  503  502  0.00000000000E+00  0.00000000000E+00  0.15275086396E+04  0.15275086396E+04  0.00000000000E+00 0. -1.
         21   -1    0    0  501  503 -0.00000000000E+00 -0.00000000000E+00 -0.19384301049E+03  0.19384301049E+03  0.00000000000E+00 0.  1.
    9000005    1    1    2  501    0  0.19175895516E+03 -0.64431610716E+02  0.17887561849E+03  0.48261725646E+03  0.40000000000E+03 0.  1.
   -9000005    1    1    2    0  502 -0.19175895516E+03  0.64431610716E+02  0.11547900107E+04  0.12387343937E+04  0.40000000000E+03 0. -1.
<mgrwt>
<rscale>  2 0.44824427E+03</rscale>
<asrwt>0</asrwt>
<pdfrwt beam="1">  1       21 0.23500132E+00 0.44824427E+03</pdfrwt>
<pdfrwt beam="2">  1       21 0.29822003E-01 0.44824427E+03</pdfrwt>
<totfact> 0.72237597E+02</totfact>
</mgrwt>
</event>
<event>
 4    1  0.4991790E-002  0.4140915E+03  0.7818608E-02  0.1039007E+00
         21   -1    0    0  501  502  0.00000000000E+00  0.00000000000E+00  0.10402587405E+04  0.10402587405E+04  0.00000000000E+00 0.  1.
         21   -1    0    0  502  503 -0.00000000000E+00 -0.00000000000E+00 -0.23957558928E+03  0.23957558928E+03  0.00000000000E+00 0.  1.
    9000005    1    1    2  501    0 -0.12069072561E+02  0.10642407695E+03  0.75776152484E+03  0.86352433388E+03  0.40000000000E+03 0.  1.
   -9000005    1    1    2    0  503  0.12069072561E+02 -0.10642407695E+03  0.42921626364E+02  0.41630999589E+03  0.40000000000E+03 0.  1.
<mgrwt>
<rscale>  2 0.41409147E+03</rscale>
<asrwt>0</asrwt>
<pdfrwt beam="1">  1       21 0.16003980E+00 0.41409147E+03</pdfrwt>
<pdfrwt beam="2">  1       21 0.36857784E-01 0.41409147E+03</pdfrwt>
<totfact> 0.15410719E+03</totfact>
</mgrwt>
</event>
<event>
 4    1  0.4991790E-002  0.4502421E+03  0.7818608E-02  0.1027650E+00
         21   -1    0    0  501  502  0.00000000000E+00  0.00000000000E+00  0.66058022556E+03  0.66058022556E+03  0.00000000000E+00 0. -1.
         21   -1    0    0  502  503 -0.00000000000E+00 -0.00000000000E+00 -0.31347979425E+03  0.31347979425E+03  0.00000000000E+00 0.  1.
    9000005    1    1    2  501    0  0.47141894759E+02 -0.20123509917E+03  0.10287571131E+03  0.46184557523E+03  0.40000000000E+03 0.  1.
   -9000005    1    1    2    0  503 -0.47141894759E+02  0.20123509917E+03  0.24422472000E+03  0.51221444458E+03  0.40000000000E+03 0. -1.
<mgrwt>
<rscale>  2 0.45024207E+03</rscale>
<asrwt>0</asrwt>
<pdfrwt beam="1">  1       21 0.10162773E+00 0.45024207E+03</pdfrwt>
<pdfrwt beam="2">  1       21 0.48227661E-01 0.45024207E+03</pdfrwt>
<totfact> 0.28170811E+03</totfact>
</mgrwt>
</event>
<event>
 4    1  0.4991790E-002  0.4145096E+03  0.7818608E-02  0.1038868E+00
         21   -1    0    0  503  502  0.00000000000E+00  0.00000000000E+00  0.16115522259E+04  0.16115522259E+04  0.00000000000E+00 0. -1.
         21   -1    0    0  501  503 -0.00000000000E+00 -0.00000000000E+00 -0.19192183029E+03  0.19192183029E+03  0.00000000000E+00 0. -1.
    9000005    1    1    2  501    0 -0.76385223187E+02 -0.77352975238E+02  0.10863371033E+03  0.42850842246E+03  0.40000000000E+03 0. -1.
   -9000005    1    1    2    0  502  0.76385223187E+02  0.77352975238E+02  0.13109966852E+04  0.13749656337E+04  0.40000000000E+03 0. -1.
<mgrwt>
<rscale>  2 0.41450957E+03</rscale>
<asrwt>0</asrwt>
<pdfrwt beam="1">  1       21 0.24793110E+00 0.41450957E+03</pdfrwt>
<pdfrwt beam="2">  1       21 0.29526437E-01 0.41450957E+03</pdfrwt>
<totfact> 0.62389955E+02</totfact>
</mgrwt>
</event>
<event>
 4    1  0.4991790E-002  0.4112663E+03  0.7818608E-02  0.1039947E+00
         21   -1    0    0  503  502  0.00000000000E+00  0.00000000000E+00  0.44712499185E+03  0.44712499185E+03  0.00000000000E+00 0.  1.
         21   -1    0    0  501  503 -0.00000000000E+00 -0.00000000000E+00 -0.88362039722E+03  0.88362039722E+03  0.00000000000E+00 0.  1.
    9000005    1    1    2  501    0  0.94580449531E+02  0.13947144953E+02 -0.72142684970E+03  0.83041958296E+03  0.40000000000E+03 0.  1.
   -9000005    1    1    2    0  502 -0.94580449531E+02 -0.13947144953E+02  0.28493144434E+03  0.50032580611E+03  0.40000000000E+03 0.  1.
<mgrwt>
<rscale>  2 0.41126632E+03</rscale>
<asrwt>0</asrwt>
<pdfrwt beam="1">  1       21 0.68788461E-01 0.41126632E+03</pdfrwt>
<pdfrwt beam="2">  1       21 0.13594160E+00 0.41126632E+03</pdfrwt>
<totfact> 0.63459196E+02</totfact>
</mgrwt>
</event>
<event>
 4    1  0.4991790E-002  0.4509445E+03  0.7818608E-02  0.1027441E+00
         21   -1    0    0  503  502  0.00000000000E+00  0.00000000000E+00  0.63023600102E+03  0.63023600102E+03  0.00000000000E+00 0. -1.
         21   -1    0    0  501  503 -0.00000000000E+00 -0.00000000000E+00 -0.44187458311E+03  0.44187458311E+03  0.00000000000E+00 0. -1.
    9000005    1    1    2  501    0  0.70785882282E+02 -0.19580687915E+03 -0.18425669861E+03  0.48713602416E+03  0.40000000000E+03 0. -1.
   -9000005    1    1    2    0  502 -0.70785882282E+02  0.19580687915E+03  0.37261811652E+03  0.58497455997E+03  0.40000000000E+03 0. -1.
<mgrwt>
<rscale>  2 0.45094454E+03</rscale>
<asrwt>0</asrwt>
<pdfrwt beam="1">  1       21 0.96959385E-01 0.45094454E+03</pdfrwt>
<pdfrwt beam="2">  1       21 0.67980705E-01 0.45094454E+03</pdfrwt>
<totfact> 0.14958792E+03</totfact>
</mgrwt>
</event>
<event>
 4    1  0.4991790E-002  0.5574683E+03  0.7818608E-02  0.9997800E-01
         21   -1    0    0  501  502  0.00000000000E+00  0.00000000000E+00  0.14830070067E+04  0.14830070067E+04  0.00000000000E+00 0. -1.
         21   -1    0    0  502  503 -0.00000000000E+00 -0.00000000000E+00 -0.43343966074E+03  0.43343966074E+03  0.00000000000E+00 0.  1.
    9000005    1    1    2  501    0  0.34807788418E+03 -0.17208325594E+03  0.12134597993E+04  0.13353859161E+04  0.40000000000E+03 0. -1.
   -9000005    1    1    2    0  503 -0.34807788418E+03  0.17208325594E+03 -0.16389245338E+03  0.58106075130E+03  0.40000000000E+03 0.  1.
<mgrwt>
<rscale>  2 0.55746826E+03</rscale>
<asrwt>0</asrwt>
<pdfrwt beam="1">  1       21 0.22815492E+00 0.55746826E+03</pdfrwt>
<pdfrwt beam="2">  1       21 0.66683025E-01 0.55746826E+03</pdfrwt>
<totfact> 0.13953868E+02</totfact>
</mgrwt>
</event>
<event>
 4    1  0.4991790E-002  0.7881977E+03  0.7818608E-02  0.9577259E-01
         21   -1    0    0  501  502  0.00000000000E+00  0.00000000000E+00  0.19043171826E+04  0.19043171826E+04  0.00000000000E+00 0. -1.
         21   -1    0    0  502  503 -0.00000000000E+00 -0.00000000000E+00 -0.32808998191E+03  0.32808998191E+03  0.00000000000E+00 0.  1.
    9000005    1    1    2  501    0  0.66790549865E+03 -0.12311706519E+03  0.70419142047E+03  0.10569489692E+04  0.40000000000E+03 0.  1.
   -9000005    1    1    2    0  503 -0.66790549865E+03  0.12311706519E+03  0.87203578022E+03  0.11754581953E+04  0.40000000000E+03 0. -1.
<mgrwt>
<rscale>  2 0.78819767E+03</rscale>
<asrwt>0</asrwt>
<pdfrwt beam="1">  1       21 0.29297187E+00 0.78819767E+03</pdfrwt>
<pdfrwt beam="2">  1       21 0.50475383E-01 0.78819767E+03</pdfrwt>
<totfact> 0.92904342E+01</totfact>
</mgrwt>
</event>
<event>
 4    1  0.4991790E-002  0.4344831E+03  0.7818608E-02  0.1032453E+00
         21   -1    0    0  503  502  0.00000000000E+00  0.00000000000E+00  0.12726426716E+04  0.12726426716E+04  0.00000000000E+00 0.  1.
         21   -1    0    0  501  503 -0.00000000000E+00 -0.00000000000E+00 -0.37393421367E+03  0.37393421367E+03  0.00000000000E+00 0.  1.
    9000005    1    1    2  501    0  0.48592840021E+02 -0.16252479752E+03 -0.19012232707E+03  0.47425949981E+03  0.40000000000E+03 0.  1.
   -9000005    1    1    2    0  502 -0.48592840021E+02  0.16252479752E+03  0.10888307850E+04  0.11723173855E+04  0.40000000000E+03 0.  1.
<mgrwt>
<rscale>  2 0.43448311E+03</rscale>
<asrwt>0</asrwt>
<pdfrwt beam="1">  1       21 0.19579118E+00 0.43448311E+03</pdfrwt>
<pdfrwt beam="2">  1       21 0.57528341E-01 0.43448311E+03</pdfrwt>
<totfact> 0.33401592E+02</totfact>
</mgrwt>
</event>
<event>
 4    1  0.4991790E-002  0.4633060E+03  0.7818608E-02  0.1023827E+00
         21   -1    0    0  501  502  0.00000000000E+00  0.00000000000E+00  0.66690392932E+03  0.66690392932E+03  0.00000000000E+00 0.  1.
         21   -1    0    0  502  503 -0.00000000000E+00 -0.00000000000E+00 -0.53337703994E+03  0.53337703994E+03  0.00000000000E+00 0.  1.
    9000005    1    1    2  501    0  0.10970286377E+03 -0.20644065646E+03  0.44468719964E+03  0.64218312690E+03  0.40000000000E+03 0.  1.
   -9000005    1    1    2    0  503 -0.10970286377E+03  0.20644065646E+03 -0.31116031026E+03  0.55809784236E+03  0.40000000000E+03 0.  1.
<mgrwt>
<rscale>  2 0.46330601E+03</rscale>
<asrwt>0</asrwt>
<pdfrwt beam="1">  1       21 0.10260061E+00 0.46330601E+03</pdfrwt>
<pdfrwt beam="2">  1       21 0.82058006E-01 0.46330601E+03</pdfrwt>
<totfact> 0.84459190E+02</totfact>
</mgrwt>
</event>
<event>
 4    1  0.4991790E-002  0.4888078E+03  0.7818608E-02  0.1016742E+00
         21   -1    0    0  501  502  0.00000000000E+00  0.00000000000E+00  0.74783400483E+03  0.74783400483E+03  0.00000000000E+00 0. -1.
         21   -1    0    0  502  503 -0.00000000000E+00 -0.00000000000E+00 -0.34009850104E+03  0.34009850104E+03  0.00000000000E+00 0. -1.
    9000005    1    1    2  501    0 -0.98801527892E+01 -0.28077646974E+03  0.33773868669E+03  0.59413842147E+03  0.40000000000E+03 0. -1.
   -9000005    1    1    2    0  503  0.98801527892E+01  0.28077646974E+03  0.69996817099E+02  0.49379408440E+03  0.40000000000E+03 0. -1.
<mgrwt>
<rscale>  2 0.48880778E+03</rscale>
<asrwt>0</asrwt>
<pdfrwt beam="1">  1       21 0.11505138E+00 0.48880778E+03</pdfrwt>
<pdfrwt beam="2">  1       21 0.52322847E-01 0.48880778E+03</pdfrwt>
<totfact> 0.17174916E+03</totfact>
</mgrwt>
</event>
<event>
 4    1  0.4991790E-002  0.4277449E+03  0.7818608E-02  0.1034575E+00
         21   -1    0    0  501  502  0.00000000000E+00  0.00000000000E+00  0.74821633230E+03  0.74821633230E+03  0.00000000000E+00 0. -1.
         21   -1    0    0  502  503 -0.00000000000E+00 -0.00000000000E+00 -0.41159551125E+03  0.41159551125E+03  0.00000000000E+00 0. -1.
    9000005    1    1    2  501    0 -0.67194020422E+01 -0.15139545088E+03  0.53776239098E+03  0.68713471900E+03  0.40000000000E+03 0. -1.
   -9000005    1    1    2    0  503  0.67194020422E+01  0.15139545088E+03 -0.20114156993E+03  0.47267712454E+03  0.40000000000E+03 0. -1.
<mgrwt>
<rscale>  2 0.42774494E+03</rscale>
<asrwt>0</asrwt>
<pdfrwt beam="1">  1       21 0.11511021E+00 0.42774494E+03</pdfrwt>
<pdfrwt beam="2">  1       21 0.63322386E-01 0.42774494E+03</pdfrwt>
<totfact> 0.11597441E+03</totfact>
</mgrwt>
</event>
<event>
 4    1  0.4991790E-002  0.4735761E+03  0.7818608E-02  0.1020916E+00
         21   -1    0    0  503  502  0.00000000000E+00  0.00000000000E+00  0.61923913714E+03  0.61923913714E+03  0.00000000000E+00 0. -1.
         21   -1    0    0  501  503 -0.00000000000E+00 -0.00000000000E+00 -0.59535823307E+03  0.59535823307E+03  0.00000000000E+00 0.  1.
    9000005    1    1    2  501    0 -0.21936323957E+03 -0.12709891688E+03 -0.36812611368E+03  0.59982597570E+03  0.40000000000E+03 0.  1.
   -9000005    1    1    2    0  502  0.21936323957E+03  0.12709891688E+03  0.39200701776E+03  0.61477139452E+03  0.40000000000E+03 0. -1.
<mgrwt>
<rscale>  2 0.47357615E+03</rscale>
<asrwt>0</asrwt>
<pdfrwt beam="1">  1       21 0.95267560E-01 0.47357615E+03</pdfrwt>
<pdfrwt beam="2">  1       21 0.91593574E-01 0.47357615E+03</pdfrwt>
<totfact> 0.77736849E+02</totfact>
</mgrwt>
</event>
<event>
 4    1  0.4991790E-002  0.4208713E+03  0.7818608E-02  0.1036783E+00
         21   -1    0    0  503  502  0.00000000000E+00  0.00000000000E+00  0.15593333062E+04  0.15593333062E+04  0.00000000000E+00 0.  1.
         21   -1    0    0  501  503 -0.00000000000E+00 -0.00000000000E+00 -0.19483602691E+03  0.19483602691E+03  0.00000000000E+00 0.  1.
    9000005    1    1    2  501    0  0.17602144832E+02 -0.12970278796E+03  0.11588641790E+03  0.43653443227E+03  0.40000000000E+03 0.  1.
   -9000005    1    1    2    0  502 -0.17602144832E+02  0.12970278796E+03  0.12486108614E+04  0.13176349008E+04  0.40000000000E+03 0.  1.
<mgrwt>
<rscale>  2 0.42087130E+03</rscale>
<asrwt>0</asrwt>
<pdfrwt beam="1">  1       21 0.23989742E+00 0.42087130E+03</pdfrwt>
<pdfrwt beam="2">  1       21 0.29974774E-01 0.42087130E+03</pdfrwt>
<totfact> 0.67623258E+02</totfact>
</mgrwt>
</event>
<event>
 4    1  0.4991790E-002  0.5889714E+03  0.7818608E-02  0.9928555E-01
         21   -1    0    0  503  502  0.00000000000E+00  0.00000000000E+00  0.89049864767E+03  0.89049864767E+03  0.00000000000E+00 0. -1.
         21   -1    0    0  501  503 -0.00000000000E+00 -0.00000000000E+00 -0.40591782784E+03  0.40591782784E+03  0.00000000000E+00 0.  1.
    9000005    1    1    2  501    0 -0.12444148870E+03  0.41400677380E+03  0.11209755277E+03  0.59954412198E+03  0.40000000000E+03 0.  1.
   -9000005    1    1    2    0  502  0.12444148870E+03 -0.41400677380E+03  0.37248326707E+03  0.69687235353E+03  0.40000000000E+03 0. -1.
<mgrwt>
<rscale>  2 0.58897139E+03</rscale>
<asrwt>0</asrwt>
<pdfrwt beam="1">  1       21 0.13699979E+00 0.58897139E+03</pdfrwt>
<pdfrwt beam="2">  1       21 0.62448897E-01 0.58897139E+03</pdfrwt>
<totfact> 0.71849219E+02</totfact>
</mgrwt>
</event>
<event>
 4    1  0.4991790E-002  0.4153588E+03  0.7818608E-02  0.1038588E+00
         21   -1    0    0  503  502  0.00000000000E+00  0.00000000000E+00  0.16396336087E+04  0.16396336087E+04  0.00000000000E+00 0. -1.
         21   -1    0    0  501  503 -0.00000000000E+00 -0.00000000000E+00 -0.12137478646E+03  0.12137478646E+03  0.00000000000E+00 0.  1.
    9000005    1    1    2  501    0 -0.10669797042E+03 -0.33741663646E+02  0.43790244631E+03  0.60355737858E+03  0.40000000000E+03 0.  1.
   -9000005    1    1    2    0  502  0.10669797042E+03  0.33741663646E+02  0.10803563759E+04  0.11574510166E+04  0.40000000000E+03 0. -1.
<mgrwt>
<rscale>  2 0.41535883E+03</rscale>
<asrwt>0</asrwt>
<pdfrwt beam="1">  1       21 0.25225131E+00 0.41535883E+03</pdfrwt>
<pdfrwt beam="2">  1       21 0.18673045E-01 0.41535883E+03</pdfrwt>
<totfact> 0.14217694E+03</totfact>
</mgrwt>
</event>
<event>
 4    1  0.4991790E-002  0.4476444E+03  0.7818608E-02  0.1028427E+00
         21   -1    0    0  501  502  0.00000000000E+00  0.00000000000E+00  0.65618231097E+03  0.65618231097E+03  0.00000000000E+00 0. -1.
         21   -1    0    0  502  503 -0.00000000000E+00 -0.00000000000E+00 -0.39751303555E+03  0.39751303555E+03  0.00000000000E+00 0. -1.
    9000005    1    1    2  501    0 -0.78328112280E+01  0.20080873433E+03  0.38297309664E+03  0.58911280199E+03  0.40000000000E+03 0. -1.
   -9000005    1    1    2    0  503  0.78328112280E+01 -0.20080873433E+03 -0.12430382121E+03  0.46458254453E+03  0.40000000000E+03 0. -1.
<mgrwt>
<rscale>  2 0.44764439E+03</rscale>
<asrwt>0</asrwt>
<pdfrwt beam="1">  1       21 0.10095113E+00 0.44764439E+03</pdfrwt>
<pdfrwt beam="2">  1       21 0.61155851E-01 0.44764439E+03</pdfrwt>
<totfact> 0.17178520E+03</totfact>
</mgrwt>
</event>
<event>
 4    1  0.4991790E-002  0.4288130E+03  0.7818608E-02  0.1034236E+00
         21   -1    0    0  501  502  0.00000000000E+00  0.00000000000E+00  0.19968932801E+03  0.19968932801E+03  0.00000000000E+00 0.  1.
         21   -1    0    0  502  503 -0.00000000000E+00 -0.00000000000E+00 -0.93724513838E+03  0.93724513838E+03  0.00000000000E+00 0.  1.
    9000005    1    1    2  501    0 -0.74740882586E+02 -0.13525667087E+03 -0.44400227132E+03  0.61726702770E+03  0.40000000000E+03 0.  1.
   -9000005    1    1    2    0  503  0.74740882586E+02  0.13525667087E+03 -0.29355353905E+03  0.51966743869E+03  0.40000000000E+03 0.  1.
<mgrwt>
<rscale>  2 0.42881297E+03</rscale>
<asrwt>0</asrwt>
<pdfrwt beam="1">  1       21 0.30721435E-01 0.42881297E+03</pdfrwt>
<pdfrwt beam="2">  1       21 0.14419156E+00 0.42881297E+03</pdfrwt>
<totfact> 0.29350429E+03</totfact>
</mgrwt>
</event>
<event>
 4    1  0.4991790E-002  0.5250989E+03  0.7818608E-02  0.1007428E+00
         21   -1    0    0  503  502  0.00000000000E+00  0.00000000000E+00  0.39367644739E+03  0.39367644739E+03  0.00000000000E+00 0.  1.
         21   -1    0    0  501  503 -0.00000000000E+00 -0.00000000000E+00 -0.13236006361E+04  0.13236006361E+04  0.00000000000E+00 0.  1.
    9000005    1    1    2  501    0  0.31191121531E+03 -0.13579503628E+03 -0.10541416725E+04  0.11776856813E+04  0.40000000000E+03 0.  1.
   -9000005    1    1    2    0  502 -0.31191121531E+03  0.13579503628E+03  0.12421748378E+03  0.53959140226E+03  0.40000000000E+03 0.  1.
<mgrwt>
<rscale>  2 0.52509894E+03</rscale>
<asrwt>0</asrwt>
<pdfrwt beam="1">  1       21 0.60565606E-01 0.52509894E+03</pdfrwt>
<pdfrwt beam="2">  1       21 0.20363087E+00 0.52509894E+03</pdfrwt>
<totfact> 0.25310234E+02</totfact>
</mgrwt>
</event>
<event>
 4    1  0.4991790E-002  0.4324150E+03  0.7818608E-02  0.1033100E+00
         21   -1    0    0  501  502  0.00000000000E+00  0.00000000000E+00  0.51671483345E+03  0.51671483345E+03  0.00000000000E+00 0. -1.
         21   -1    0    0  502  503 -0.00000000000E+00 -0.00000000000E+00 -0.39476027197E+03  0.39476027197E+03  0.00000000000E+00 0.  1.
    9000005    1    1    2  501    0  0.61220747234E+02  0.15242955735E+03  0.19252782513E+03  0.47333889899E+03  0.40000000000E+03 0. -1.
   -9000005    1    1    2    0  503 -0.61220747234E+02 -0.15242955735E+03 -0.70573263655E+02  0.43813620644E+03  0.40000000000E+03 0.  1.
<mgrwt>
<rscale>  2 0.43241502E+03</rscale>
<asrwt>0</asrwt>
<pdfrwt beam="1">  1       21 0.79494590E-01 0.43241502E+03</pdfrwt>
<pdfrwt beam="2">  1       21 0.60732349E-01 0.43241502E+03</pdfrwt>
<totfact> 0.30878147E+03</totfact>
</mgrwt>
</event>
<event>
 4    1  0.4991790E-002  0.6312304E+03  0.7818608E-02  0.9842651E-01
         21   -1    0    0  501  502  0.00000000000E+00  0.00000000000E+00  0.17864556775E+03  0.17864556775E+03  0.00000000000E+00 0.  1.
         21   -1    0    0  502  503 -0.00000000000E+00 -0.00000000000E+00 -0.22339768326E+04  0.22339768326E+04  0.00000000000E+00 0. -1.
    9000005    1    1    2  501    0 -0.40495630257E+03  0.27287769436E+03 -0.97942556284E+03  0.11652151201E+04  0.40000000000E+03 0.  1.
   -9000005    1    1    2    0  503  0.40495630257E+03 -0.27287769436E+03 -0.10759057020E+04  0.12474072802E+04  0.40000000000E+03 0. -1.
<mgrwt>
<rscale>  2 0.63123042E+03</rscale>
<asrwt>0</asrwt>
<pdfrwt beam="1">  1       21 0.27483934E-01 0.63123042E+03</pdfrwt>
<pdfrwt beam="2">  1       21 0.34368874E+00 0.63123042E+03</pdfrwt>
<totfact> 0.16856072E+02</totfact>
</mgrwt>
</event>
<event>
 4    1  0.4991790E-002  0.5810152E+03  0.7818608E-02  0.9945596E-01
         21   -1    0    0  503  502  0.00000000000E+00  0.00000000000E+00  0.31776306467E+03  0.31776306467E+03  0.00000000000E+00 0. -1.
         21   -1    0    0  501  503 -0.00000000000E+00 -0.00000000000E+00 -0.16175517117E+04  0.16175517117E+04  0.00000000000E+00 0.  1.
    9000005    1    1    2  501    0  0.41932983404E+03 -0.41727197116E+02 -0.82984293201E+02  0.58691145978E+03  0.40000000000E+03 0. -1.
   -9000005    1    1    2    0  502 -0.41932983404E+03  0.41727197116E+02 -0.12168043538E+04  0.13484033166E+04  0.40000000000E+03 0.  1.
<mgrwt>
<rscale>  2 0.58101521E+03</rscale>
<asrwt>0</asrwt>
<pdfrwt beam="1">  1       21 0.48886624E-01 0.58101521E+03</pdfrwt>
<pdfrwt beam="2">  1       21 0.24885412E+00 0.58101521E+03</pdfrwt>
<totfact> 0.20163194E+02</totfact>
</mgrwt>
</event>
<event>
 4    1  0.4991790E-002  0.5342290E+03  0.7818608E-02  0.1005212E+00
         21   -1    0    0  501  502  0.00000000000E+00  0.00000000000E+00  0.10746093762E+04  0.10746093762E+04  0.00000000000E+00 0.  1.
         21   -1    0    0  502  503 -0.00000000000E+00 -0.00000000000E+00 -0.30165882624E+03  0.30165882624E+03  0.00000000000E+00 0.  1.
    9000005    1    1    2  501    0 -0.33325128429E+03 -0.11976733570E+03  0.62443768264E+03  0.82178041634E+03  0.40000000000E+03 0.  1.
   -9000005    1    1    2    0  503  0.33325128429E+03  0.11976733570E+03  0.14851286734E+03  0.55448778611E+03  0.40000000000E+03 0.  1.
<mgrwt>
<rscale>  2 0.53422901E+03</rscale>
<asrwt>0</asrwt>
<pdfrwt beam="1">  1       21 0.16532452E+00 0.53422901E+03</pdfrwt>
<pdfrwt beam="2">  1       21 0.46409051E-01 0.53422901E+03</pdfrwt>
<totfact> 0.83095141E+02</totfact>
</mgrwt>
</event>
<event>
 4    1  0.4991790E-002  0.4494782E+03  0.7818608E-02  0.1027878E+00
         21   -1    0    0  503  502  0.00000000000E+00  0.00000000000E+00  0.12115677541E+04  0.12115677541E+04  0.00000000000E+00 0. -1.
         21   -1    0    0  501  503 -0.00000000000E+00 -0.00000000000E+00 -0.20080994091E+03  0.20080994091E+03  0.00000000000E+00 0. -1.
    9000005    1    1    2  501    0  0.20498244149E+03 -0.35859226532E+01  0.21454766713E+03  0.49805758867E+03  0.40000000000E+03 0. -1.
   -9000005    1    1    2    0  502 -0.20498244149E+03  0.35859226532E+01  0.79621014608E+03  0.91432010635E+03  0.40000000000E+03 0. -1.
<mgrwt>
<rscale>  2 0.44947821E+03</rscale>
<asrwt>0</asrwt>
<pdfrwt beam="1">  1       21 0.18639503E+00 0.44947821E+03</pdfrwt>
<pdfrwt beam="2">  1       21 0.30893838E-01 0.44947821E+03</pdfrwt>
<totfact> 0.13981720E+03</totfact>
</mgrwt>
</event>
<event>
 4    1  0.4991790E-002  0.7460002E+03  0.7818608E-02  0.9641646E-01
         21   -1    0    0  501  502  0.00000000000E+00  0.00000000000E+00  0.16691608970E+04  0.16691608970E+04  0.00000000000E+00 0. -1.
         21   -1    0    0  502  503 -0.00000000000E+00 -0.00000000000E+00 -0.57892952539E+03  0.57892952539E+03  0.00000000000E+00 0.  1.
    9000005    1    1    2  501    0 -0.23773327170E+03  0.58309450413E+03  0.12771192906E+04  0.14790368459E+04  0.40000000000E+03 0. -1.
   -9000005    1    1    2    0  503  0.23773327170E+03 -0.58309450413E+03 -0.18688791897E+03  0.76905357647E+03  0.40000000000E+03 0.  1.
<mgrwt>
<rscale>  2 0.74600021E+03</rscale>
<asrwt>0</asrwt>
<pdfrwt beam="1">  1       21 0.25679398E+00 0.74600021E+03</pdfrwt>
<pdfrwt beam="2">  1       21 0.89066082E-01 0.74600021E+03</pdfrwt>
<totfact> 0.43633629E+01</totfact>
</mgrwt>
</event>
<event>
 4    1  0.4991790E-002  0.4871589E+03  0.7818608E-02  0.1017186E+00
         21   -1    0    0  503  502  0.00000000000E+00  0.00000000000E+00  0.34663876364E+03  0.34663876364E+03  0.00000000000E+00 0. -1.
         21   -1    0    0  501  503 -0.00000000000E+00 -0.00000000000E+00 -0.80936956832E+03  0.80936956832E+03  0.00000000000E+00 0. -1.
    9000005    1    1    2  501    0  0.24948858636E+03  0.12279749390E+03 -0.44640212084E+01  0.48717933733E+03  0.40000000000E+03 0. -1.
   -9000005    1    1    2    0  502 -0.24948858636E+03 -0.12279749390E+03 -0.45826678347E+03  0.66882899464E+03  0.40000000000E+03 0. -1.
<mgrwt>
<rscale>  2 0.48715888E+03</rscale>
<asrwt>0</asrwt>
<pdfrwt beam="1">  1       21 0.53329041E-01 0.48715888E+03</pdfrwt>
<pdfrwt beam="2">  1       21 0.12451839E+00 0.48715888E+03</pdfrwt>
<totfact> 0.13490380E+03</totfact>
</mgrwt>
</event>
<event>
 4    1  0.4991790E-002  0.5674715E+03  0.7818608E-02  0.9975289E-01
         21   -1    0    0  503  502  0.00000000000E+00  0.00000000000E+00  0.29468647558E+04  0.29468647558E+04  0.00000000000E+00 0. -1.
         21   -1    0    0  501  503 -0.00000000000E+00 -0.00000000000E+00 -0.11210904075E+03  0.11210904075E+03  0.00000000000E+00 0. -1.
    9000005    1    1    2  501    0 -0.37822544117E+03  0.13772948453E+03  0.16604817792E+04  0.17547716758E+04  0.40000000000E+03 0. -1.
   -9000005    1    1    2    0  502  0.37822544117E+03 -0.13772948453E+03  0.11742739358E+04  0.13042021207E+04  0.40000000000E+03 0. -1.
<mgrwt>
<rscale>  2 0.56747149E+03</rscale>
<asrwt>0</asrwt>
<pdfrwt beam="1">  1       21 0.45336375E+00 0.56747149E+03</pdfrwt>
<pdfrwt beam="2">  1       21 0.17247547E-01 0.56747149E+03</pdfrwt>
<totfact> 0.83347893E+01</totfact>
</mgrwt>
</event>
<event>
 4    1  0.4991790E-002  0.6523130E+03  0.7818608E-02  0.9802449E-01
         21   -1    0    0  501  502  0.00000000000E+00  0.00000000000E+00  0.31394976238E+03  0.31394976238E+03  0.00000000000E+00 0.  1.
         21   -1    0    0  502  503 -0.00000000000E+00 -0.00000000000E+00 -0.19660787554E+04  0.19660787554E+04  0.00000000000E+00 0.  1.
    9000005    1    1    2  501    0 -0.37798677000E+03 -0.35019738733E+03 -0.19068446506E+03  0.67961222297E+03  0.40000000000E+03 0.  1.
   -9000005    1    1    2    0  503  0.37798677000E+03  0.35019738733E+03 -0.14614445280E+04  0.16004162948E+04  0.40000000000E+03 0.  1.
<mgrwt>
<rscale>  2 0.65231297E+03</rscale>
<asrwt>0</asrwt>
<pdfrwt beam="1">  1       21 0.48299963E-01 0.65231297E+03</pdfrwt>
<pdfrwt beam="2">  1       21 0.30247366E+00 0.65231297E+03</pdfrwt>
<totfact> 0.94055346E+01</totfact>
</mgrwt>
</event>
<event>
 4    1  0.4991790E-002  0.6882195E+03  0.7818608E-02  0.9737593E-01
         21   -1    0    0  503  502  0.00000000000E+00  0.00000000000E+00  0.62096048142E+03  0.62096048142E+03  0.00000000000E+00 0. -1.
         21   -1    0    0  501  503 -0.00000000000E+00 -0.00000000000E+00 -0.83452822537E+03  0.83452822537E+03  0.00000000000E+00 0.  1.
    9000005    1    1    2  501    0  0.35997015982E+03  0.42903100332E+03 -0.32019311300E+03  0.75905846111E+03  0.40000000000E+03 0.  1.
   -9000005    1    1    2    0  502 -0.35997015982E+03 -0.42903100332E+03  0.10662536904E+03  0.69643024568E+03  0.40000000000E+03 0. -1.
<mgrwt>
<rscale>  2 0.68821953E+03</rscale>
<asrwt>0</asrwt>
<pdfrwt beam="1">  1       21 0.95532382E-01 0.68821953E+03</pdfrwt>
<pdfrwt beam="2">  1       21 0.12838896E+00 0.68821953E+03</pdfrwt>
<totfact> 0.30869158E+02</totfact>
</mgrwt>
</event>
<event>
 4    1  0.4991790E-002  0.4278327E+03  0.7818608E-02  0.1034547E+00
         21   -1    0    0  503  502  0.00000000000E+00  0.00000000000E+00  0.44862098904E+03  0.44862098904E+03  0.00000000000E+00 0. -1.
         21   -1    0    0  501  503 -0.00000000000E+00 -0.00000000000E+00 -0.40983476804E+03  0.40983476804E+03  0.00000000000E+00 0. -1.
    9000005    1    1    2  501    0  0.34392612343E+02  0.14784450491E+03  0.48051549877E+02  0.43052270656E+03  0.40000000000E+03 0. -1.
   -9000005    1    1    2    0  502 -0.34392612343E+02 -0.14784450491E+03 -0.92653288747E+01  0.42793305053E+03  0.40000000000E+03 0. -1.
<mgrwt>
<rscale>  2 0.42783274E+03</rscale>
<asrwt>0</asrwt>
<pdfrwt beam="1">  1       21 0.69018614E-01 0.42783274E+03</pdfrwt>
<pdfrwt beam="2">  1       21 0.63051503E-01 0.42783274E+03</pdfrwt>
<totfact> 0.39272073E+03</totfact>
</mgrwt>
</event>
<event>
 4    1  0.4991790E-002  0.4447221E+03  0.7818608E-02  0.1029308E+00
         21   -1    0    0  501  502  0.00000000000E+00  0.00000000000E+00  0.95434804455E+03  0.95434804455E+03  0.00000000000E+00 0. -1.
         21   -1    0    0  502  503 -0.00000000000E+00 -0.00000000000E+00 -0.21013810697E+03  0.21013810697E+03  0.00000000000E+00 0. -1.
    9000005    1    1    2  501    0  0.11593774404E+03 -0.15600070760E+03  0.44049798527E+03  0.62595227957E+03  0.40000000000E+03 0.  1.
   -9000005    1    1    2    0  503 -0.11593774404E+03  0.15600070760E+03  0.30371195231E+03  0.53853387195E+03  0.40000000000E+03 0.  1.
<mgrwt>
<rscale>  2 0.44472214E+03</rscale>
<asrwt>0</asrwt>
<pdfrwt beam="1">  1       21 0.14682277E+00 0.44472214E+03</pdfrwt>
<pdfrwt beam="2">  1       21 0.32328940E-01 0.44472214E+03</pdfrwt>
<totfact> 0.25093651E+03</totfact>
</mgrwt>
</event>
<event>
 4    1  0.4991790E-002  0.4757734E+03  0.7818608E-02  0.1020303E+00
         21   -1    0    0  503  502  0.00000000000E+00  0.00000000000E+00  0.13039142233E+03  0.13039142233E+03  0.00000000000E+00 0.  1.
         21   -1    0    0  501  503 -0.00000000000E+00 -0.00000000000E+00 -0.17367682716E+04  0.17367682716E+04  0.00000000000E+00 0.  1.
    9000005    1    1    2  501    0  0.21574287831E+03 -0.14076691938E+03 -0.78363225668E+03  0.91675505389E+03  0.40000000000E+03 0.  1.
   -9000005    1    1    2    0  502 -0.21574287831E+03  0.14076691938E+03 -0.82274459255E+03  0.95040463998E+03  0.40000000000E+03 0.  1.
<mgrwt>
<rscale>  2 0.47577339E+03</rscale>
<asrwt>0</asrwt>
<pdfrwt beam="1">  1       21 0.20060220E-01 0.47577339E+03</pdfrwt>
<pdfrwt beam="2">  1       21 0.26719510E+00 0.47577339E+03</pdfrwt>
<totfact> 0.97630285E+02</totfact>
</mgrwt>
</event>
<event>
 4    1  0.4991790E-002  0.4214971E+03  0.7818608E-02  0.1036580E+00
         21   -1    0    0  503  502  0.00000000000E+00  0.00000000000E+00  0.12025497278E+04  0.12025497278E+04  0.00000000000E+00 0.  1.
         21   -1    0    0  501  503 -0.00000000000E+00 -0.00000000000E+00 -0.19299880631E+03  0.19299880631E+03  0.00000000000E+00 0.  1.
    9000005    1    1    2  501    0 -0.33879334499E+02  0.12849891011E+03  0.16685942268E+03  0.45332311451E+03  0.40000000000E+03 0.  1.
   -9000005    1    1    2    0  502  0.33879334499E+02 -0.12849891011E+03  0.84269149880E+03  0.94222541961E+03  0.40000000000E+03 0.  1.
<mgrwt>
<rscale>  2 0.42149707E+03</rscale>
<asrwt>0</asrwt>
<pdfrwt beam="1">  1       21 0.18500765E+00 0.42149707E+03</pdfrwt>
<pdfrwt beam="2">  1       21 0.29692125E-01 0.42149707E+03</pdfrwt>
<totfact> 0.15660590E+03</totfact>
</mgrwt>
</event>
<event>
 4    1  0.4991790E-002  0.5771130E+03  0.7818608E-02  0.9954061E-01
         21   -1    0    0  503  502  0.00000000000E+00  0.00000000000E+00  0.13495256111E+04  0.13495256111E+04  0.00000000000E+00 0. -1.
         21   -1    0    0  501  503 -0.00000000000E+00 -0.00000000000E+00 -0.39816771529E+03  0.39816771529E+03  0.00000000000E+00 0. -1.
    9000005    1    1    2  501    0  0.33115343200E+03  0.25178729742E+03 -0.63114790730E+02  0.58055397292E+03  0.40000000000E+03 0. -1.
   -9000005    1    1    2    0  502 -0.33115343200E+03 -0.25178729742E+03  0.10144726866E+04  0.11671393535E+04  0.40000000000E+03 0. -1.
<mgrwt>
<rscale>  2 0.57711302E+03</rscale>
<asrwt>0</asrwt>
<pdfrwt beam="1">  1       21 0.20761932E+00 0.57711302E+03</pdfrwt>
<pdfrwt beam="2">  1       21 0.61256572E-01 0.57711302E+03</pdfrwt>
<totfact> 0.22715088E+02</totfact>
</mgrwt>
</event>
<event>
 4    1  0.4991790E-002  0.4370627E+03  0.7818608E-02  0.1031652E+00
         21   -1    0    0  501  502  0.00000000000E+00  0.00000000000E+00  0.77579189704E+03  0.77579189704E+03  0.00000000000E+00 0.  1.
         21   -1    0    0  502  503 -0.00000000000E+00 -0.00000000000E+00 -0.25969881022E+03  0.25969881022E+03  0.00000000000E+00 0.  1.
    9000005    1    1    2  501    0  0.12340259753E+03  0.12568040377E+03  0.37595227361E+03  0.57651008404E+03  0.40000000000E+03 0.  1.
   -9000005    1    1    2    0  503 -0.12340259753E+03 -0.12568040377E+03  0.14014081321E+03  0.45898062322E+03  0.40000000000E+03 0.  1.
<mgrwt>
<rscale>  2 0.43706266E+03</rscale>
<asrwt>0</asrwt>
<pdfrwt beam="1">  1       21 0.11935260E+00 0.43706266E+03</pdfrwt>
<pdfrwt beam="2">  1       21 0.39953663E-01 0.43706266E+03</pdfrwt>
<totfact> 0.28131388E+03</totfact>
</mgrwt>
</event>
<event>
 4    1  0.4991790E-002  0.4799234E+03  0.7818608E-02  0.1019156E+00
         21   -1    0    0  503  502  0.00000000000E+00  0.00000000000E+00  0.20805778804E+03  0.20805778804E+03  0.00000000000E+00 0. -1.
         21   -1    0    0  501  503 -0.00000000000E+00 -0.00000000000E+00 -0.16163754162E+04  0.16163754162E+04  0.00000000000E+00 0.  1.
    9000005    1    1    2  501    0 -0.14984918006E+03 -0.21879596089E+03 -0.12162326317E+04  0.13074969459E+04  0.40000000000E+03 0.  1.
   -9000005    1    1    2    0  502  0.14984918006E+03  0.21879596089E+03 -0.19208499647E+03  0.51693625829E+03  0.40000000000E+03 0. -1.
<mgrwt>
<rscale>  2 0.47992338E+03</rscale>
<asrwt>0</asrwt>
<pdfrwt beam="1">  1       21 0.32008891E-01 0.47992338E+03</pdfrwt>
<pdfrwt beam="2">  1       21 0.24867314E+00 0.47992338E+03</pdfrwt>
<totfact> 0.50784351E+02</totfact>
</mgrwt>
</event>
<event>
 4    1  0.4991790E-002  0.4951314E+03  0.7818608E-02  0.1015058E+00
         21   -1    0    0  503  502  0.00000000000E+00  0.00000000000E+00  0.18477820201E+04  0.18477820201E+04  0.00000000000E+00 0. -1.
         21   -1    0    0  501  503 -0.00000000000E+00 -0.00000000000E+00 -0.16489297541E+03  0.16489297541E+03  0.00000000000E+00 0. -1.
    9000005    1    1    2  501    0 -0.25927233460E+03 -0.13391416799E+03  0.12862695998E+04  0.13782759634E+04  0.40000000000E+03 0. -1.
   -9000005    1    1    2    0  502  0.25927233460E+03  0.13391416799E+03  0.39661944486E+03  0.63439903209E+03  0.40000000000E+03 0. -1.
<mgrwt>
<rscale>  2 0.49513145E+03</rscale>
<asrwt>0</asrwt>
<pdfrwt beam="1">  1       21 0.28427414E+00 0.49513145E+03</pdfrwt>
<pdfrwt beam="2">  1       21 0.25368151E-01 0.49513145E+03</pdfrwt>
<totfact> 0.48439050E+02</totfact>
</mgrwt>
</event>
<event>
 4    1  0.4991790E-002  0.4462622E+03  0.7818608E-02  0.1028843E+00
         21   -1    0    0  501  502  0.00000000000E+00  0.00000000000E+00  0.78092409276E+03  0.78092409276E+03  0.00000000000E+00 0. -1.
         21   -1    0    0  502  503 -0.00000000000E+00 -0.00000000000E+00 -0.38419785398E+03  0.38419785398E+03  0.00000000000E+00 0. -1.
    9000005    1    1    2  501    0 -0.21240172372E+02 -0.19672012679E+03  0.53616399434E+03  0.69758281375E+03  0.40000000000E+03 0. -1.
   -9000005    1    1    2    0  503  0.21240172372E+02  0.19672012679E+03 -0.13943775556E+03  0.46753913300E+03  0.40000000000E+03 0. -1.
<mgrwt>
<rscale>  2 0.44626220E+03</rscale>
<asrwt>0</asrwt>
<pdfrwt beam="1">  1       21 0.12014217E+00 0.44626220E+03</pdfrwt>
<pdfrwt beam="2">  1       21 0.59107362E-01 0.44626220E+03</pdfrwt>
<totfact> 0.12020859E+03</totfact>
</mgrwt>
</event>
<event>
 4    1  0.4991790E-002  0.7023829E+03  0.7818608E-02  0.9713166E-01
         21   -1    0    0  503  502  0.00000000000E+00  0.00000000000E+00  0.14148420287E+04  0.14148420287E+04  0.00000000000E+00 0. -1.
         21   -1    0    0  501  503 -0.00000000000E+00 -0.00000000000E+00 -0.12730409530E+04  0.12730409530E+04  0.00000000000E+00 0.  1.
    9000005    1    1    2  501    0 -0.38054566497E+03 -0.43419658494E+03 -0.10742894778E+04  0.12835262208E+04  0.40000000000E+03 0.  1.
   -9000005    1    1    2    0  502  0.38054566497E+03  0.43419658494E+03  0.12160905535E+04  0.14043567609E+04  0.40000000000E+03 0. -1.
<mgrwt>
<rscale>  2 0.70238286E+03</rscale>
<asrwt>0</asrwt>
<pdfrwt beam="1">  1       21 0.21766800E+00 0.70238286E+03</pdfrwt>
<pdfrwt beam="2">  1       21 0.19585245E+00 0.70238286E+03</pdfrwt>
<totfact> 0.95565182E+00</totfact>
</mgrwt>
</event>
<event>
 4    1  0.4991790E-002  0.5190543E+03  0.7818608E-02  0.1008922E+00
         21   -1    0    0  503  502  0.00000000000E+00  0.00000000000E+00  0.17661316392E+04  0.17661316392E+04  0.00000000000E+00 0. -1.
         21   -1    0    0  501  503 -0.00000000000E+00 -0.00000000000E+00 -0.24941836480E+03  0.24941836480E+03  0.00000000000E+00 0. -1.
    9000005    1    1    2  501    0 -0.21016929515E+03 -0.25543338303E+03  0.13864121221E+04  0.14803904614E+04  0.40000000000E+03 0. -1.
   -9000005    1    1    2    0  502  0.21016929515E+03  0.25543338303E+03  0.13030115230E+03  0.53515954264E+03  0.40000000000E+03 0. -1.
<mgrwt>
<rscale>  2 0.51905428E+03</rscale>
<asrwt>0</asrwt>
<pdfrwt beam="1">  1       21 0.27171255E+00 0.51905428E+03</pdfrwt>
<pdfrwt beam="2">  1       21 0.38372057E-01 0.51905428E+03</pdfrwt>
<totfact> 0.24920177E+02</totfact>
</mgrwt>
</event>
<event>
 4    1  0.4991790E-002  0.4531914E+03  0.7818608E-02  0.1026775E+00
         21   -1    0    0  501  502  0.00000000000E+00  0.00000000000E+00  0.11913205237E+03  0.11913205237E+03  0.00000000000E+00 0.  1.
         21   -1    0    0  502  503 -0.00000000000E+00 -0.00000000000E+00 -0.26348543874E+04  0.26348543874E+04  0.00000000000E+00 0.  1.
    9000005    1    1    2  501    0  0.15051020279E+03 -0.15076181940E+03 -0.44824272456E+03  0.63741978903E+03  0.40000000000E+03 0.  1.
   -9000005    1    1    2    0  503 -0.15051020279E+03  0.15076181940E+03 -0.20674796105E+04  0.21165666508E+04  0.40000000000E+03 0.  1.
<mgrwt>
<rscale>  2 0.45319140E+03</rscale>
<asrwt>0</asrwt>
<pdfrwt beam="1">  1       21 0.18328009E-01 0.45319140E+03</pdfrwt>
<pdfrwt beam="2">  1       21 0.40536220E+00 0.45319140E+03</pdfrwt>
<totfact> 0.16602969E+02</totfact>
</mgrwt>
</event>
<event>
 4    1  0.4991790E-002  0.4419706E+03  0.7818608E-02  0.1030144E+00
         21   -1    0    0  501  502  0.00000000000E+00  0.00000000000E+00  0.51796721836E+03  0.51796721836E+03  0.00000000000E+00 0.  1.
         21   -1    0    0  502  503 -0.00000000000E+00 -0.00000000000E+00 -0.47897526580E+03  0.47897526580E+03  0.00000000000E+00 0.  1.
    9000005    1    1    2  501    0 -0.15968017411E+03 -0.99198233290E+02  0.24935737557E+03  0.50746147464E+03  0.40000000000E+03 0.  1.
   -9000005    1    1    2    0  503  0.15968017411E+03  0.99198233290E+02 -0.21036542301E+03  0.48948100953E+03  0.40000000000E+03 0.  1.
<mgrwt>
<rscale>  2 0.44197064E+03</rscale>
<asrwt>0</asrwt>
<pdfrwt beam="1">  1       21 0.79687264E-01 0.44197064E+03</pdfrwt>
<pdfrwt beam="2">  1       21 0.73688502E-01 0.44197064E+03</pdfrwt>
<totfact> 0.19869477E+03</totfact>
</mgrwt>
</event>
<event>
 4    1  0.4991790E-002  0.4077498E+03  0.7818608E-02  0.1041129E+00
         21   -1    0    0  501  502  0.00000000000E+00  0.00000000000E+00  0.22364105239E+04  0.22364105239E+04  0.00000000000E+00 0. -1.
         21   -1    0    0  502  503 -0.00000000000E+00 -0.00000000000E+00 -0.21051668402E+03  0.21051668402E+03  0.00000000000E+00 0. -1.
    9000005    1    1    2  501    0 -0.45540834656E+02  0.64698781040E+02  0.19969478419E+04  0.20381512660E+04  0.40000000000E+03 0. -1.
   -9000005    1    1    2    0  503  0.45540834656E+02 -0.64698781040E+02  0.28945997996E+02  0.40877594192E+03  0.40000000000E+03 0. -1.
<mgrwt>
<rscale>  2 0.40774980E+03</rscale>
<asrwt>0</asrwt>
<pdfrwt beam="1">  1       21 0.34406314E+00 0.40774980E+03</pdfrwt>
<pdfrwt beam="2">  1       21 0.32387184E-01 0.40774980E+03</pdfrwt>
<totfact> 0.13728215E+02</totfact>
</mgrwt>
</event>
<event>
 4    1  0.4991790E-002  0.5071332E+03  0.7818608E-02  0.1011934E+00
         21   -1    0    0  501  502  0.00000000000E+00  0.00000000000E+00  0.69419812917E+03  0.69419812917E+03  0.00000000000E+00 0. -1.
         21   -1    0    0  502  503 -0.00000000000E+00 -0.00000000000E+00 -0.51939163882E+03  0.51939163882E+03  0.00000000000E+00 0. -1.
    9000005    1    1    2  501    0  0.20436332348E+03 -0.23541398936E+03  0.41231379594E+03  0.65359527285E+03  0.40000000000E+03 0. -1.
   -9000005    1    1    2    0  503 -0.20436332348E+03  0.23541398936E+03 -0.23750730559E+03  0.55999449514E+03  0.40000000000E+03 0. -1.
<mgrwt>
<rscale>  2 0.50713323E+03</rscale>
<asrwt>0</asrwt>
<pdfrwt beam="1">  1       21 0.10679971E+00 0.50713323E+03</pdfrwt>
<pdfrwt beam="2">  1       21 0.79906405E-01 0.50713323E+03</pdfrwt>
<totfact> 0.79985587E+02</totfact>
</mgrwt>
</event>
<event>
 4    1  0.4991790E-002  0.4006677E+03  0.7818608E-02  0.1043549E+00
         21   -1    0    0  503  502  0.00000000000E+00  0.00000000000E+00  0.55523472173E+03  0.55523472173E+03  0.00000000000E+00 0.  1.
         21   -1    0    0  501  503 -0.00000000000E+00 -0.00000000000E+00 -0.32517954352E+03  0.32517954352E+03  0.00000000000E+00 0.  1.
    9000005    1    1    2  501    0  0.93373465189E+01  0.21153224207E+02 -0.31543855118E+02  0.40190752634E+03  0.40000000000E+03 0.  1.
   -9000005    1    1    2    0  502 -0.93373465189E+01 -0.21153224207E+02  0.26159903333E+03  0.47850673890E+03  0.40000000000E+03 0.  1.
<mgrwt>
<rscale>  2 0.40066775E+03</rscale>
<asrwt>0</asrwt>
<pdfrwt beam="1">  1       21 0.85420727E-01 0.40066775E+03</pdfrwt>
<pdfrwt beam="2">  1       21 0.50027622E-01 0.40066775E+03</pdfrwt>
<totfact> 0.40180161E+03</totfact>
</mgrwt>
</event>
<event>
 4    1  0.4991790E-002  0.4058356E+03  0.7818608E-02  0.1041778E+00
         21   -1    0    0  501  502  0.00000000000E+00  0.00000000000E+00  0.65463691566E+03  0.65463691566E+03  0.00000000000E+00 0.  1.
         21   -1    0    0  502  503 -0.00000000000E+00 -0.00000000000E+00 -0.45512468060E+03  0.45512468060E+03  0.00000000000E+00 0.  1.
    9000005    1    1    2  501    0  0.66063667561E+02 -0.18388038656E+02 -0.27130868225E+03  0.48817100405E+03  0.40000000000E+03 0.  1.
   -9000005    1    1    2    0  503 -0.66063667561E+02  0.18388038656E+02  0.47082091731E+03  0.62159059220E+03  0.40000000000E+03 0.  1.
<mgrwt>
<rscale>  2 0.40583559E+03</rscale>
<asrwt>0</asrwt>
<pdfrwt beam="1">  1       21 0.10071337E+00 0.40583559E+03</pdfrwt>
<pdfrwt beam="2">  1       21 0.70019182E-01 0.40583559E+03</pdfrwt>
<totfact> 0.13012925E+03</totfact>
</mgrwt>
</event>
<event>
 4    1  0.4991790E-002  0.4339717E+03  0.7818608E-02  0.1032613E+00
         21   -1    0    0  501  502  0.00000000000E+00  0.00000000000E+00  0.48167553285E+03  0.48167553285E+03  0.00000000000E+00 0.  1.
         21   -1    0    0  502  503 -0.00000000000E+00 -0.00000000000E+00 -0.59218651238E+03  0.59218651238E+03  0.00000000000E+00 0. -1.
    9000005    1    1    2  501    0  0.14253426543E+03 -0.89528923850E+02 -0.36822132962E+03  0.56913828953E+03  0.40000000000E+03 0. -1.
   -9000005    1    1    2    0  503 -0.14253426543E+03  0.89528923850E+02  0.25771035009E+03  0.50472375570E+03  0.40000000000E+03 0.  1.
<mgrwt>
<rscale>  2 0.43397171E+03</rscale>
<asrwt>0</asrwt>
<pdfrwt beam="1">  1       21 0.74103928E-01 0.43397171E+03</pdfrwt>
<pdfrwt beam="2">  1       21 0.91105618E-01 0.43397171E+03</pdfrwt>
<totfact> 0.14386147E+03</totfact>
</mgrwt>
</event>
<event>
 4    1  0.4991790E-002  0.4987533E+03  0.7818608E-02  0.1014105E+00
         21   -1    0    0  503  502  0.00000000000E+00  0.00000000000E+00  0.56003687992E+03  0.56003687992E+03  0.00000000000E+00 0.  1.
         21   -1    0    0  501  503 -0.00000000000E+00 -0.00000000000E+00 -0.44464985905E+03  0.44464985905E+03  0.00000000000E+00 0. -1.
    9000005    1    1    2  501    0 -0.53728822671E+02  0.29303246530E+03  0.41290567606E+02  0.50045951193E+03  0.40000000000E+03 0.  1.
   -9000005    1    1    2    0  502  0.53728822671E+02 -0.29303246530E+03  0.74096453263E+02  0.50422722704E+03  0.40000000000E+03 0. -1.
<mgrwt>
<rscale>  2 0.49875326E+03</rscale>
<asrwt>0</asrwt>
<pdfrwt beam="1">  1       21 0.86159520E-01 0.49875326E+03</pdfrwt>
<pdfrwt beam="2">  1       21 0.68407671E-01 0.49875326E+03</pdfrwt>
<totfact> 0.19198685E+03</totfact>
</mgrwt>
</event>
<event>
 4    1  0.4991790E-002  0.4190555E+03  0.7818608E-02  0.1037374E+00
         21   -1    0    0  501  502  0.00000000000E+00  0.00000000000E+00  0.16308159135E+03  0.16308159135E+03  0.00000000000E+00 0. -1.
         21   -1    0    0  502  503 -0.00000000000E+00 -0.00000000000E+00 -0.14962366109E+04  0.14962366109E+04  0.00000000000E+00 0. -1.
    9000005    1    1    2  501    0 -0.76751514363E+02  0.98573251977E+02 -0.22731025790E+03  0.47673623138E+03  0.40000000000E+03 0. -1.
   -9000005    1    1    2    0  503  0.76751514363E+02 -0.98573251977E+02 -0.11058447616E+04  0.11825819708E+04  0.40000000000E+03 0. -1.
<mgrwt>
<rscale>  2 0.41905546E+03</rscale>
<asrwt>0</asrwt>
<pdfrwt beam="1">  1       21 0.25089475E-01 0.41905546E+03</pdfrwt>
<pdfrwt beam="2">  1       21 0.23019025E+00 0.41905546E+03</pdfrwt>
<totfact> 0.11033210E+03</totfact>
</mgrwt>
</event>
<event>
 4    1  0.4991790E-002  0.6478061E+03  0.7818608E-02  0.9810905E-01
         21   -1    0    0  501  502  0.00000000000E+00  0.00000000000E+00  0.20537436122E+03  0.20537436122E+03  0.00000000000E+00 0. -1.
         21   -1    0    0  502  503 -0.00000000000E+00 -0.00000000000E+00 -0.27559351581E+04  0.27559351581E+04  0.00000000000E+00 0. -1.
    9000005    1    1    2  501    0 -0.29182277378E+03  0.41772268192E+03 -0.52238245808E+03  0.83218760072E+03  0.40000000000E+03 0. -1.
   -9000005    1    1    2    0  503  0.29182277378E+03 -0.41772268192E+03 -0.20281783388E+04  0.21291219186E+04  0.40000000000E+03 0. -1.
<mgrwt>
<rscale>  2 0.64780612E+03</rscale>
<asrwt>0</asrwt>
<pdfrwt beam="1">  1       21 0.31596055E-01 0.64780612E+03</pdfrwt>
<pdfrwt beam="2">  1       21 0.42399004E+00 0.64780612E+03</pdfrwt>
<totfact> 0.38794450E+01</totfact>
</mgrwt>
</event>
<event>
 4    1  0.4991790E-002  0.4182623E+03  0.7818608E-02  0.1037633E+00
         21   -1    0    0  501  502  0.00000000000E+00  0.00000000000E+00  0.50276115029E+03  0.50276115029E+03  0.00000000000E+00 0. -1.
         21   -1    0    0  502  503 -0.00000000000E+00 -0.00000000000E+00 -0.50871538049E+03  0.50871538049E+03  0.00000000000E+00 0. -1.
    9000005    1    1    2  501    0 -0.10508128941E+03  0.62460456811E+02  0.28131453888E+03  0.50406473377E+03  0.40000000000E+03 0. -1.
   -9000005    1    1    2    0  503  0.10508128941E+03 -0.62460456811E+02 -0.28726876908E+03  0.50741179700E+03  0.40000000000E+03 0. -1.
<mgrwt>
<rscale>  2 0.41826234E+03</rscale>
<asrwt>0</asrwt>
<pdfrwt beam="1">  1       21 0.77347869E-01 0.41826234E+03</pdfrwt>
<pdfrwt beam="2">  1       21 0.78263905E-01 0.41826234E+03</pdfrwt>
<totfact> 0.18716569E+03</totfact>
</mgrwt>
</event>
<event>
 4    1  0.4991790E-002  0.4301449E+03  0.7818608E-02  0.1033814E+00
         21   -1    0    0  503  502  0.00000000000E+00  0.00000000000E+00  0.21512586403E+03  0.21512586403E+03  0.00000000000E+00 0. -1.
         21   -1    0    0  501  503 -0.00000000000E+00 -0.00000000000E+00 -0.10589126192E+04  0.10589126192E+04  0.00000000000E+00 0. -1.
    9000005    1    1    2  501    0 -0.89267484466E+02 -0.13059839117E+03 -0.69793242305E+03  0.81983796613E+03  0.40000000000E+03 0. -1.
   -9000005    1    1    2    0  502  0.89267484466E+02  0.13059839117E+03 -0.14585433216E+03  0.45420051714E+03  0.40000000000E+03 0. -1.
<mgrwt>
<rscale>  2 0.43014489E+03</rscale>
<asrwt>0</asrwt>
<pdfrwt beam="1">  1       21 0.33096286E-01 0.43014489E+03</pdfrwt>
<pdfrwt beam="2">  1       21 0.16290964E+00 0.43014489E+03</pdfrwt>
<totfact> 0.18101546E+03</totfact>
</mgrwt>
</event>
<event>
 4    1  0.4991790E-002  0.4171315E+03  0.7818608E-02  0.1038004E+00
         21   -1    0    0  503  502  0.00000000000E+00  0.00000000000E+00  0.51003521740E+03  0.51003521740E+03  0.00000000000E+00 0.  1.
         21   -1    0    0  501  503 -0.00000000000E+00 -0.00000000000E+00 -0.52583825891E+03  0.52583825891E+03  0.00000000000E+00 0.  1.
    9000005    1    1    2  501    0  0.67490653611E+02 -0.97178638112E+02 -0.31485311809E+03  0.52261951935E+03  0.40000000000E+03 0. -1.
   -9000005    1    1    2    0  502 -0.67490653611E+02  0.97178638112E+02  0.29905007659E+03  0.51325395696E+03  0.40000000000E+03 0. -1.
<mgrwt>
<rscale>  2 0.41713149E+03</rscale>
<asrwt>0</asrwt>
<pdfrwt beam="1">  1       21 0.78466956E-01 0.41713149E+03</pdfrwt>
<pdfrwt beam="2">  1       21 0.80898194E-01 0.41713149E+03</pdfrwt>
<totfact> 0.16787914E+03</totfact>
</mgrwt>
</event>
<event>
 4    1  0.4991790E-002  0.4559727E+03  0.7818608E-02  0.1025956E+00
         21   -1    0    0  503  502  0.00000000000E+00  0.00000000000E+00  0.10552160569E+04  0.10552160569E+04  0.00000000000E+00 0.  1.
         21   -1    0    0  501  503 -0.00000000000E+00 -0.00000000000E+00 -0.19789549667E+03  0.19789549667E+03  0.00000000000E+00 0.  1.
    9000005    1    1    2  501    0 -0.11142794950E+03  0.18840098632E+03  0.38726772010E+03  0.59823691512E+03  0.40000000000E+03 0.  1.
   -9000005    1    1    2    0  502  0.11142794950E+03 -0.18840098632E+03  0.47005284016E+03  0.65487463848E+03  0.40000000000E+03 0.  1.
<mgrwt>
<rscale>  2 0.45597272E+03</rscale>
<asrwt>0</asrwt>
<pdfrwt beam="1">  1       21 0.16234093E+00 0.45597272E+03</pdfrwt>
<pdfrwt beam="2">  1       21 0.30445462E-01 0.45597272E+03</pdfrwt>
<totfact> 0.21372810E+03</totfact>
</mgrwt>
</event>
<event>
 4    1  0.4991790E-002  0.4683718E+03  0.7818608E-02  0.1022381E+00
         21   -1    0    0  503  502  0.00000000000E+00  0.00000000000E+00  0.37090015797E+03  0.37090015797E+03  0.00000000000E+00 0. -1.
         21   -1    0    0  501  503 -0.00000000000E+00 -0.00000000000E+00 -0.84169992604E+03  0.84169992604E+03  0.00000000000E+00 0. -1.
    9000005    1    1    2  501    0  0.19467734588E+03  0.14653623306E+03 -0.56598885214E+03  0.73465333141E+03  0.40000000000E+03 0. -1.
   -9000005    1    1    2    0  502 -0.19467734588E+03 -0.14653623306E+03  0.95189084073E+02  0.47794675261E+03  0.40000000000E+03 0. -1.
<mgrwt>
<rscale>  2 0.46837179E+03</rscale>
<asrwt>0</asrwt>
<pdfrwt beam="1">  1       21 0.57061562E-01 0.46837179E+03</pdfrwt>
<pdfrwt beam="2">  1       21 0.12949230E+00 0.46837179E+03</pdfrwt>
<totfact> 0.10609142E+03</totfact>
</mgrwt>
</event>
<event>
 4    1  0.4991790E-002  0.4133964E+03  0.7818608E-02  0.1039237E+00
         21   -1    0    0  501  502  0.00000000000E+00  0.00000000000E+00  0.55086694049E+03  0.55086694049E+03  0.00000000000E+00 0. -1.
         21   -1    0    0  502  503 -0.00000000000E+00 -0.00000000000E+00 -0.32017282291E+03  0.32017282291E+03  0.00000000000E+00 0. -1.
    9000005    1    1    2  501    0  0.10325841955E+03 -0.15305916223E+02  0.38606290184E+02  0.41519515643E+03  0.40000000000E+03 0. -1.
   -9000005    1    1    2    0  503 -0.10325841955E+03  0.15305916223E+02  0.19208782740E+03  0.45584460698E+03  0.40000000000E+03 0. -1.
<mgrwt>
<rscale>  2 0.41339639E+03</rscale>
<asrwt>0</asrwt>
<pdfrwt beam="1">  1       21 0.84748760E-01 0.41339639E+03</pdfrwt>
<pdfrwt beam="2">  1       21 0.49257357E-01 0.41339639E+03</pdfrwt>
<totfact> 0.42092793E+03</totfact>
</mgrwt>
</event>
<event>
 4    1  0.4991790E-002  0.4429229E+03  0.7818608E-02  0.1029854E+00
         21   -1    0    0  503  502  0.00000000000E+00  0.00000000000E+00  0.86315976565E+03  0.86315976565E+03  0.00000000000E+00 0. -1.
         21   -1    0    0  501  503 -0.00000000000E+00 -0.00000000000E+00 -0.23231145678E+03  0.23231145678E+03  0.00000000000E+00 0. -1.
    9000005    1    1    2  501    0 -0.77607193234E+02  0.17365995461E+03  0.23483116164E+03  0.50132457625E+03  0.40000000000E+03 0.  1.
   -9000005    1    1    2    0  502  0.77607193234E+02 -0.17365995461E+03  0.39601714722E+03  0.59414664618E+03  0.40000000000E+03 0.  1.
<mgrwt>
<rscale>  2 0.44292286E+03</rscale>
<asrwt>0</asrwt>
<pdfrwt beam="1">  1       21 0.13279381E+00 0.44292286E+03</pdfrwt>
<pdfrwt beam="2">  1       21 0.35740224E-01 0.44292286E+03</pdfrwt>
<totfact> 0.26779296E+03</totfact>
</mgrwt>
</event>
<event>
 4    1  0.4991790E-002  0.4590482E+03  0.7818608E-02  0.1025058E+00
         21   -1    0    0  501  502  0.00000000000E+00  0.00000000000E+00  0.65825847375E+03  0.65825847375E+03  0.00000000000E+00 0. -1.
         21   -1    0    0  502  503 -0.00000000000E+00 -0.00000000000E+00 -0.32013650751E+03  0.32013650751E+03  0.00000000000E+00 0. -1.
    9000005    1    1    2  501    0  0.77941096778E+02 -0.21130649283E+03  0.17194424530E+03  0.49019391262E+03  0.40000000000E+03 0. -1.
   -9000005    1    1    2    0  503 -0.77941096778E+02  0.21130649283E+03  0.16617772093E+03  0.48820106863E+03  0.40000000000E+03 0. -1.
<mgrwt>
<rscale>  2 0.45904820E+03</rscale>
<asrwt>0</asrwt>
<pdfrwt beam="1">  1       21 0.10127053E+00 0.45904820E+03</pdfrwt>
<pdfrwt beam="2">  1       21 0.49251771E-01 0.45904820E+03</pdfrwt>
<totfact> 0.27090829E+03</totfact>
</mgrwt>
</event>
<event>
 4    1  0.4991790E-002  0.4143420E+03  0.7818608E-02  0.1038924E+00
         21   -1    0    0  501  502  0.00000000000E+00  0.00000000000E+00  0.13023718097E+03  0.13023718097E+03  0.00000000000E+00 0. -1.
         21   -1    0    0  502  503 -0.00000000000E+00 -0.00000000000E+00 -0.14524283111E+04  0.14524283111E+04  0.00000000000E+00 0. -1.
    9000005    1    1    2  501    0  0.51979375598E+02 -0.94749335624E+02 -0.90165693930E+03  0.99230263946E+03  0.40000000000E+03 0. -1.
   -9000005    1    1    2    0  503 -0.51979375598E+02  0.94749335624E+02 -0.42053419087E+03  0.59036285264E+03  0.40000000000E+03 0. -1.
<mgrwt>
<rscale>  2 0.41434200E+03</rscale>
<asrwt>0</asrwt>
<pdfrwt beam="1">  1       21 0.20036490E-01 0.41434200E+03</pdfrwt>
<pdfrwt beam="2">  1       21 0.22345050E+00 0.41434200E+03</pdfrwt>
<totfact> 0.18787152E+03</totfact>
</mgrwt>
</event>
<event>
 4    1  0.4991790E-002  0.4900494E+03  0.7818608E-02  0.1016409E+00
         21   -1    0    0  503  502  0.00000000000E+00  0.00000000000E+00  0.31128025335E+03  0.31128025335E+03  0.00000000000E+00 0.  1.
         21   -1    0    0  501  503 -0.00000000000E+00 -0.00000000000E+00 -0.82131520691E+03  0.82131520691E+03  0.00000000000E+00 0. -1.
    9000005    1    1    2  501    0 -0.15573451723E+03  0.23642155921E+03 -0.11553123515E+03  0.50348372349E+03  0.40000000000E+03 0.  1.
   -9000005    1    1    2    0  502  0.15573451723E+03 -0.23642155921E+03 -0.39450371840E+03  0.62911173678E+03  0.40000000000E+03 0. -1.
<mgrwt>
<rscale>  2 0.49004938E+03</rscale>
<asrwt>0</asrwt>
<pdfrwt beam="1">  1       21 0.47889270E-01 0.49004938E+03</pdfrwt>
<pdfrwt beam="2">  1       21 0.12635619E+00 0.49004938E+03</pdfrwt>
<totfact> 0.16326068E+03</totfact>
</mgrwt>
</event>
<event>
 4    1  0.4991790E-002  0.5342067E+03  0.7818608E-02  0.1005217E+00
         21   -1    0    0  503  502  0.00000000000E+00  0.00000000000E+00  0.16182122004E+03  0.16182122004E+03  0.00000000000E+00 0. -1.
         21   -1    0    0  501  503 -0.00000000000E+00 -0.00000000000E+00 -0.18744028162E+04  0.18744028162E+04  0.00000000000E+00 0. -1.
    9000005    1    1    2  501    0  0.14715542228E+02  0.35377988367E+03 -0.11039043991E+04  0.12263693064E+04  0.40000000000E+03 0. -1.
   -9000005    1    1    2    0  502 -0.14715542228E+02 -0.35377988367E+03 -0.60867719710E+03  0.80985472990E+03  0.40000000000E+03 0. -1.
<mgrwt>
<rscale>  2 0.53420666E+03</rscale>
<asrwt>0</asrwt>
<pdfrwt beam="1">  1       21 0.24895572E-01 0.53420666E+03</pdfrwt>
<pdfrwt beam="2">  1       21 0.28836967E+00 0.53420666E+03</pdfrwt>
<totfact> 0.46584461E+02</totfact>
</mgrwt>
</event>
<event>
 4    1  0.4991790E-002  0.5119144E+03  0.7818608E-02  0.1010715E+00
         21   -1    0    0  503  502  0.00000000000E+00  0.00000000000E+00  0.38504828190E+03  0.38504828190E+03  0.00000000000E+00 0.  1.
         21   -1    0    0  501  503 -0.00000000000E+00 -0.00000000000E+00 -0.74956218182E+03  0.74956218182E+03  0.00000000000E+00 0.  1.
    9000005    1    1    2  501    0  0.24964458559E+03  0.19933375535E+03 -0.35435650171E+03  0.62259529024E+03  0.40000000000E+03 0.  1.
   -9000005    1    1    2    0  502 -0.24964458559E+03 -0.19933375535E+03 -0.10157398213E+02  0.51201517348E+03  0.40000000000E+03 0.  1.
<mgrwt>
<rscale>  2 0.51191441E+03</rscale>
<asrwt>0</asrwt>
<pdfrwt beam="1">  1       21 0.59238197E-01 0.51191441E+03</pdfrwt>
<pdfrwt beam="2">  1       21 0.11531726E+00 0.51191441E+03</pdfrwt>
<totfact> 0.12940114E+03</totfact>
</mgrwt>
</event>
<event>
 4    1  0.4991790E-002  0.6024767E+03  0.7818608E-02  0.9900281E-01
         21   -1    0    0  503  502  0.00000000000E+00  0.00000000000E+00  0.54846381549E+03  0.54846381549E+03  0.00000000000E+00 0. -1.
         21   -1    0    0  501  503 -0.00000000000E+00 -0.00000000000E+00 -0.66341911721E+03  0.66341911721E+03  0.00000000000E+00 0.  1.
    9000005    1    1    2  501    0 -0.46126950893E+02 -0.44816341994E+03 -0.87331512384E+02  0.60877330725E+03  0.40000000000E+03 0.  1.
   -9000005    1    1    2    0  502  0.46126950893E+02  0.44816341994E+03 -0.27623789334E+02  0.60310962545E+03  0.40000000000E+03 0. -1.
<mgrwt>
<rscale>  2 0.60247668E+03</rscale>
<asrwt>0</asrwt>
<pdfrwt beam="1">  1       21 0.84379049E-01 0.60247668E+03</pdfrwt>
<pdfrwt beam="2">  1       21 0.10206448E+00 0.60247668E+03</pdfrwt>
<totfact> 0.76271730E+02</totfact>
</mgrwt>
</event>
<event>
 4    1  0.4991790E-002  0.5180122E+03  0.7818608E-02  0.1009182E+00
         21   -1    0    0  503  502  0.00000000000E+00  0.00000000000E+00  0.50482984305E+03  0.50482984305E+03  0.00000000000E+00 0. -1.
         21   -1    0    0  501  503 -0.00000000000E+00 -0.00000000000E+00 -0.64262338103E+03  0.64262338103E+03  0.00000000000E+00 0.  1.
    9000005    1    1    2  501    0 -0.29491398307E+03  0.14615884957E+03 -0.30743256202E+03  0.60237151901E+03  0.40000000000E+03 0.  1.
   -9000005    1    1    2    0  502  0.29491398307E+03 -0.14615884957E+03  0.16963902404E+03  0.54508170507E+03  0.40000000000E+03 0. -1.
<mgrwt>
<rscale>  2 0.51801223E+03</rscale>
<asrwt>0</asrwt>
<pdfrwt beam="1">  1       21 0.77666130E-01 0.51801223E+03</pdfrwt>
<pdfrwt beam="2">  1       21 0.98865135E-01 0.51801223E+03</pdfrwt>
<totfact> 0.10285518E+03</totfact>
</mgrwt>
</event>
<event>
 4    1  0.4991790E-002  0.4101859E+03  0.7818608E-02  0.1040309E+00
         21   -1    0    0  503  502  0.00000000000E+00  0.00000000000E+00  0.68377944762E+03  0.68377944762E+03  0.00000000000E+00 0.  1.
         21   -1    0    0  501  503 -0.00000000000E+00 -0.00000000000E+00 -0.27656825762E+03  0.27656825762E+03  0.00000000000E+00 0.  1.
    9000005    1    1    2  501    0 -0.90726925470E+02  0.45926866701E+01  0.44132149015E+02  0.41255316549E+03  0.40000000000E+03 0.  1.
   -9000005    1    1    2    0  502  0.90726925470E+02 -0.45926866701E+01  0.36307904099E+03  0.54779453975E+03  0.40000000000E+03 0.  1.
<mgrwt>
<rscale>  2 0.41018589E+03</rscale>
<asrwt>0</asrwt>
<pdfrwt beam="1">  1       21 0.10519684E+00 0.41018589E+03</pdfrwt>
<pdfrwt beam="2">  1       21 0.42548963E-01 0.41018589E+03</pdfrwt>
<totfact> 0.34160345E+03</totfact>
</mgrwt>
</event>
<event>
 4    1  0.4991790E-002  0.4318475E+03  0.7818608E-02  0.1033278E+00
         21   -1    0    0  503  502  0.00000000000E+00  0.00000000000E+00  0.23192213279E+03  0.23192213279E+03  0.00000000000E+00 0. -1.
         21   -1    0    0  501  503 -0.00000000000E+00 -0.00000000000E+00 -0.16152454482E+04  0.16152454482E+04  0.00000000000E+00 0. -1.
    9000005    1    1    2  501    0 -0.26511809855E+02  0.16059084797E+03 -0.13461503161E+04  0.14137230881E+04  0.40000000000E+03 0. -1.
   -9000005    1    1    2    0  502  0.26511809855E+02 -0.16059084797E+03 -0.37172999370E+02  0.43344449287E+03  0.40000000000E+03 0. -1.
<mgrwt>
<rscale>  2 0.43184754E+03</rscale>
<asrwt>0</asrwt>
<pdfrwt beam="1">  1       21 0.35680328E-01 0.43184754E+03</pdfrwt>
<pdfrwt beam="2">  1       21 0.24849930E+00 0.43184754E+03</pdfrwt>
<totfact> 0.41952650E+02</totfact>
</mgrwt>
</event>
<event>
 4    1  0.4991790E-002  0.4103767E+03  0.7818608E-02  0.1040245E+00
         21   -1    0    0  501  502  0.00000000000E+00  0.00000000000E+00  0.10807146031E+04  0.10807146031E+04  0.00000000000E+00 0.  1.
         21   -1    0    0  502  503 -0.00000000000E+00 -0.00000000000E+00 -0.15594708234E+03  0.15594708234E+03  0.00000000000E+00 0. -1.
    9000005    1    1    2  501    0  0.39856986643E+02 -0.82585989260E+02  0.44552637342E+03  0.60572499901E+03  0.40000000000E+03 0. -1.
   -9000005    1    1    2    0  503 -0.39856986643E+02  0.82585989260E+02  0.47924114737E+03  0.63093668647E+03  0.40000000000E+03 0.  1.
<mgrwt>
<rscale>  2 0.41037669E+03</rscale>
<asrwt>0</asrwt>
<pdfrwt beam="1">  1       21 0.16626378E+00 0.41037669E+03</pdfrwt>
<pdfrwt beam="2">  1       21 0.23991859E-01 0.41037669E+03</pdfrwt>
<totfact> 0.32487715E+03</totfact>
</mgrwt>
</event>
<event>
 4    1  0.4991790E-002  0.5458032E+03  0.7818608E-02  0.1002470E+00
         21   -1    0    0  501  502  0.00000000000E+00  0.00000000000E+00  0.47019149570E+03  0.47019149570E+03  0.00000000000E+00 0. -1.
         21   -1    0    0  502  503 -0.00000000000E+00 -0.00000000000E+00 -0.85260182243E+03  0.85260182243E+03  0.00000000000E+00 0. -1.
    9000005    1    1    2  501    0 -0.37132481251E+03 -0.43655157746E+01  0.14402135697E+03  0.56448500899E+03  0.40000000000E+03 0. -1.
   -9000005    1    1    2    0  503  0.37132481251E+03  0.43655157746E+01 -0.52643168369E+03  0.75830830914E+03  0.40000000000E+03 0. -1.
<mgrwt>
<rscale>  2 0.54580324E+03</rscale>
<asrwt>0</asrwt>
<pdfrwt beam="1">  1       21 0.72337154E-01 0.54580324E+03</pdfrwt>
<pdfrwt beam="2">  1       21 0.13116951E+00 0.54580324E+03</pdfrwt>
<totfact> 0.58774986E+02</totfact>
</mgrwt>
</event>
<event>
 4    1  0.4991790E-002  0.5600451E+03  0.7818608E-02  0.9991953E-01
         21   -1    0    0  503  502  0.00000000000E+00  0.00000000000E+00  0.10073327218E+04  0.10073327218E+04  0.00000000000E+00 0. -1.
         21   -1    0    0  501  503 -0.00000000000E+00 -0.00000000000E+00 -0.45535339082E+03  0.45535339082E+03  0.00000000000E+00 0.  1.
    9000005    1    1    2  501    0  0.12718410771E+03 -0.37077582886E+03  0.68724075492E+03  0.88653841865E+03  0.40000000000E+03 0. -1.
   -9000005    1    1    2    0  502 -0.12718410771E+03  0.37077582886E+03 -0.13526142390E+03  0.57614769401E+03  0.40000000000E+03 0.  1.
<mgrwt>
<rscale>  2 0.56004510E+03</rscale>
<asrwt>0</asrwt>
<pdfrwt beam="1">  1       21 0.15497426E+00 0.56004510E+03</pdfrwt>
<pdfrwt beam="2">  1       21 0.70054368E-01 0.56004510E+03</pdfrwt>
<totfact> 0.40148281E+02</totfact>
</mgrwt>
</event>
<event>
 4    1  0.4991790E-002  0.5206184E+03  0.7818608E-02  0.1008533E+00
         21   -1    0    0  501  502  0.00000000000E+00  0.00000000000E+00  0.20530690553E+03  0.20530690553E+03  0.00000000000E+00 0. -1.
         21   -1    0    0  502  503 -0.00000000000E+00 -0.00000000000E+00 -0.15451884154E+04  0.15451884154E+04  0.00000000000E+00 0. -1.
    9000005    1    1    2  501    0 -0.28942426620E+03  0.16515770219E+03 -0.10039304194E+04  0.11308933458E+04  0.40000000000E+03 0. -1.
   -9000005    1    1    2    0  503  0.28942426620E+03 -0.16515770219E+03 -0.33595109047E+03  0.61960197518E+03  0.40000000000E+03 0. -1.
<mgrwt>
<rscale>  2 0.52061836E+03</rscale>
<asrwt>0</asrwt>
<pdfrwt beam="1">  1       21 0.31585679E-01 0.52061836E+03</pdfrwt>
<pdfrwt beam="2">  1       21 0.23772129E+00 0.52061836E+03</pdfrwt>
<totfact> 0.59871428E+02</totfact>
</mgrwt>
</event>
<event>
 4    1  0.4991790E-002  0.5009064E+03  0.7818608E-02  0.1013543E+00
         21   -1    0    0  503  502  0.00000000000E+00  0.00000000000E+00  0.19257328282E+03  0.19257328282E+03  0.00000000000E+00 0.  1.
         21   -1    0    0  501  503 -0.00000000000E+00 -0.00000000000E+00 -0.13139892568E+04  0.13139892568E+04  0.00000000000E+00 0.  1.
    9000005    1    1    2  501    0 -0.19049312353E+03  0.23370844323E+03 -0.62985168285E+03  0.80474866197E+03  0.40000000000E+03 0.  1.
   -9000005    1    1    2    0  502  0.19049312353E+03 -0.23370844323E+03 -0.49156429111E+03  0.70181387764E+03  0.40000000000E+03 0.  1.
<mgrwt>
<rscale>  2 0.50090644E+03</rscale>
<asrwt>0</asrwt>
<pdfrwt beam="1">  1       21 0.29626659E-01 0.50090644E+03</pdfrwt>
<pdfrwt beam="2">  1       21 0.20215220E+00 0.50090644E+03</pdfrwt>
<totfact> 0.11626931E+03</totfact>
</mgrwt>
</event>
<event>
 4    1  0.4991790E-002  0.6271857E+03  0.7818608E-02  0.9850556E-01
         21   -1    0    0  501  502  0.00000000000E+00  0.00000000000E+00  0.46527333689E+03  0.46527333689E+03  0.00000000000E+00 0.  1.
         21   -1    0    0  502  503 -0.00000000000E+00 -0.00000000000E+00 -0.86573924510E+03  0.86573924510E+03  0.00000000000E+00 0.  1.
    9000005    1    1    2  501    0  0.41815486444E+03 -0.24188516016E+03 -0.98333878913E+02  0.63484759833E+03  0.40000000000E+03 0.  1.
   -9000005    1    1    2    0  503 -0.41815486444E+03  0.24188516016E+03 -0.30213202930E+03  0.69616498367E+03  0.40000000000E+03 0.  1.
<mgrwt>
<rscale>  2 0.62718572E+03</rscale>
<asrwt>0</asrwt>
<pdfrwt beam="1">  1       21 0.71580515E-01 0.62718572E+03</pdfrwt>
<pdfrwt beam="2">  1       21 0.13319065E+00 0.62718572E+03</pdfrwt>
<totfact> 0.56263654E+02</totfact>
</mgrwt>
</event>
<event>
 4    1  0.4991790E-002  0.4267272E+03  0.7818608E-02  0.1034899E+00
         21   -1    0    0  503  502  0.00000000000E+00  0.00000000000E+00  0.24847811593E+03  0.24847811593E+03  0.00000000000E+00 0. -1.
         21   -1    0    0  501  503 -0.00000000000E+00 -0.00000000000E+00 -0.76148396930E+03  0.76148396930E+03  0.00000000000E+00 0. -1.
    9000005    1    1    2  501    0  0.46862764642E+02 -0.14106721243E+03 -0.35443373703E+03  0.55472457227E+03  0.40000000000E+03 0. -1.
   -9000005    1    1    2    0  502 -0.46862764642E+02  0.14106721243E+03 -0.15857211634E+03  0.45523751297E+03  0.40000000000E+03 0. -1.
<mgrwt>
<rscale>  2 0.42672717E+03</rscale>
<asrwt>0</asrwt>
<pdfrwt beam="1">  1       21 0.38227403E-01 0.42672717E+03</pdfrwt>
<pdfrwt beam="2">  1       21 0.11715138E+00 0.42672717E+03</pdfrwt>
<totfact> 0.32405843E+03</totfact>
</mgrwt>
</event>
<event>
 4    1  0.4991790E-002  0.4136344E+03  0.7818608E-02  0.1039158E+00
         21   -1    0    0  501  502  0.00000000000E+00  0.00000000000E+00  0.40010173861E+03  0.40010173861E+03  0.00000000000E+00 0.  1.
         21   -1    0    0  502  503 -0.00000000000E+00 -0.00000000000E+00 -0.43850034178E+03  0.43850034178E+03  0.00000000000E+00 0.  1.
    9000005    1    1    2  501    0  0.90023516267E+02  0.54673116143E+02  0.46834843609E+02  0.41627741434E+03  0.40000000000E+03 0.  1.
   -9000005    1    1    2    0  503 -0.90023516267E+02 -0.54673116143E+02 -0.85233446772E+02  0.42232466606E+03  0.40000000000E+03 0.  1.
<mgrwt>
<rscale>  2 0.41363436E+03</rscale>
<asrwt>0</asrwt>
<pdfrwt beam="1">  1       21 0.61554114E-01 0.41363436E+03</pdfrwt>
<pdfrwt beam="2">  1       21 0.67461591E-01 0.41363436E+03</pdfrwt>
<totfact> 0.43799526E+03</totfact>
</mgrwt>
</event>
<event>
 4    1  0.4991790E-002  0.4437577E+03  0.7818608E-02  0.1029600E+00
         21   -1    0    0  501  502  0.00000000000E+00  0.00000000000E+00  0.59696044397E+03  0.59696044397E+03  0.00000000000E+00 0.  1.
         21   -1    0    0  502  503 -0.00000000000E+00 -0.00000000000E+00 -0.34197267450E+03  0.34197267450E+03  0.00000000000E+00 0.  1.
    9000005    1    1    2  501    0  0.19029803514E+03  0.26599115332E+02  0.39185052171E+02  0.44548436946E+03  0.40000000000E+03 0. -1.
   -9000005    1    1    2    0  503 -0.19029803514E+03 -0.26599115332E+02  0.21580271730E+03  0.49344874902E+03  0.40000000000E+03 0. -1.
<mgrwt>
<rscale>  2 0.44375765E+03</rscale>
<asrwt>0</asrwt>
<pdfrwt beam="1">  1       21 0.91840068E-01 0.44375765E+03</pdfrwt>
<pdfrwt beam="2">  1       21 0.52611181E-01 0.44375765E+03</pdfrwt>
<totfact> 0.29939998E+03</totfact>
</mgrwt>
</event>
<event>
 4    1  0.4991790E-002  0.4090234E+03  0.7818608E-02  0.1040699E+00
         21   -1    0    0  503  502  0.00000000000E+00  0.00000000000E+00  0.11642437200E+04  0.11642437200E+04  0.00000000000E+00 0.  1.
         21   -1    0    0  501  503 -0.00000000000E+00 -0.00000000000E+00 -0.23980757186E+03  0.23980757186E+03  0.00000000000E+00 0.  1.
    9000005    1    1    2  501    0  0.20028268933E+02 -0.83060066823E+02  0.17787769013E+02  0.40940995467E+03  0.40000000000E+03 0.  1.
   -9000005    1    1    2    0  502 -0.20028268933E+02  0.83060066823E+02  0.90664837909E+03  0.99464133715E+03  0.40000000000E+03 0.  1.
<mgrwt>
<rscale>  2 0.40902336E+03</rscale>
<asrwt>0</asrwt>
<pdfrwt beam="1">  1       21 0.17911441E+00 0.40902336E+03</pdfrwt>
<pdfrwt beam="2">  1       21 0.36893473E-01 0.40902336E+03</pdfrwt>
<totfact> 0.11200237E+03</totfact>
</mgrwt>
</event>
<event>
 4    1  0.4991790E-002  0.4569405E+03  0.7818608E-02  0.1025672E+00
         21   -1    0    0  503  502  0.00000000000E+00  0.00000000000E+00  0.32563859694E+03  0.32563859694E+03  0.00000000000E+00 0. -1.
         21   -1    0    0  501  503 -0.00000000000E+00 -0.00000000000E+00 -0.66066401653E+03  0.66066401653E+03  0.00000000000E+00 0. -1.
    9000005    1    1    2  501    0  0.57963909055E+02 -0.21315447133E+03 -0.82834565173E+02  0.46438799359E+03  0.40000000000E+03 0. -1.
   -9000005    1    1    2    0  502 -0.57963909055E+02  0.21315447133E+03 -0.25219085442E+03  0.52191461989E+03  0.40000000000E+03 0. -1.
<mgrwt>
<rscale>  2 0.45694053E+03</rscale>
<asrwt>0</asrwt>
<pdfrwt beam="1">  1       21 0.50098245E-01 0.45694053E+03</pdfrwt>
<pdfrwt beam="2">  1       21 0.10164062E+00 0.45694053E+03</pdfrwt>
<totfact> 0.25914489E+03</totfact>
</mgrwt>
</event>
<event>
 4    1  0.4991790E-002  0.8196353E+03  0.7818608E-02  0.9532023E-01
         21   -1    0    0  503  502  0.00000000000E+00  0.00000000000E+00  0.76867070943E+03  0.76867070943E+03  0.00000000000E+00 0.  1.
         21   -1    0    0  501  503 -0.00000000000E+00 -0.00000000000E+00 -0.13797624955E+04  0.13797624955E+04  0.00000000000E+00 0.  1.
    9000005    1    1    2  501    0  0.69746329199E+03 -0.15920742627E+03 -0.95593315156E+03  0.12592101645E+04  0.40000000000E+03 0.  1.
   -9000005    1    1    2    0  502 -0.69746329199E+03  0.15920742627E+03  0.34484136546E+03  0.88922304040E+03  0.40000000000E+03 0.  1.
<mgrwt>
<rscale>  2 0.81963531E+03</rscale>
<asrwt>0</asrwt>
<pdfrwt beam="1">  1       21 0.11825703E+00 0.81963531E+03</pdfrwt>
<pdfrwt beam="2">  1       21 0.21227115E+00 0.81963531E+03</pdfrwt>
<totfact> 0.40683616E+01</totfact>
</mgrwt>
</event>
<event>
 4    1  0.4991790E-002  0.6116101E+03  0.7818608E-02  0.9881607E-01
         21   -1    0    0  503  502  0.00000000000E+00  0.00000000000E+00  0.26657737421E+04  0.26657737421E+04  0.00000000000E+00 0. -1.
         21   -1    0    0  501  503 -0.00000000000E+00 -0.00000000000E+00 -0.27033512637E+03  0.27033512637E+03  0.00000000000E+00 0. -1.
    9000005    1    1    2  501    0  0.14652015113E+03  0.43886076574E+03  0.17963350787E+03  0.63744421211E+03  0.40000000000E+03 0. -1.
   -9000005    1    1    2    0  502 -0.14652015113E+03 -0.43886076574E+03  0.22158051079E+04  0.22986646564E+04  0.40000000000E+03 0. -1.
<mgrwt>
<rscale>  2 0.61161011E+03</rscale>
<asrwt>0</asrwt>
<pdfrwt beam="1">  1       21 0.41011902E+00 0.61161011E+03</pdfrwt>
<pdfrwt beam="2">  1       21 0.41590021E-01 0.61161011E+03</pdfrwt>
<totfact> 0.27782988E+01</totfact>
</mgrwt>
</event>
<event>
 4    1  0.4991790E-002  0.4579935E+03  0.7818608E-02  0.1025365E+00
         21   -1    0    0  503  502  0.00000000000E+00  0.00000000000E+00  0.27603555331E+04  0.27603555331E+04  0.00000000000E+00 0.  1.
         21   -1    0    0  501  503 -0.00000000000E+00 -0.00000000000E+00 -0.13743205516E+03  0.13743205516E+03  0.00000000000E+00 0.  1.
    9000005    1    1    2  501    0 -0.93793039181E+02  0.20238809356E+03  0.22802460954E+04  0.23257859597E+04  0.40000000000E+03 0.  1.
   -9000005    1    1    2    0  502  0.93793039181E+02 -0.20238809356E+03  0.34267738255E+03  0.57200162860E+03  0.40000000000E+03 0.  1.
<mgrwt>
<rscale>  2 0.45799353E+03</rscale>
<asrwt>0</asrwt>
<pdfrwt beam="1">  1       21 0.42467004E+00 0.45799353E+03</pdfrwt>
<pdfrwt beam="2">  1       21 0.21143395E-01 0.45799353E+03</pdfrwt>
<totfact> 0.94384185E+01</totfact>
</mgrwt>
</event>
<event>
 4    1  0.4991790E-002  0.4671939E+03  0.7818608E-02  0.1022715E+00
         21   -1    0    0  501  502  0.00000000000E+00  0.00000000000E+00  0.82285703251E+03  0.82285703251E+03  0.00000000000E+00 0.  1.
         21   -1    0    0  502  503 -0.00000000000E+00 -0.00000000000E+00 -0.26592670281E+03  0.26592670281E+03  0.00000000000E+00 0. -1.
    9000005    1    1    2  501    0 -0.22656851365E+03 -0.83287536880E+02  0.30574696369E+03  0.55834694499E+03  0.40000000000E+03 0. -1.
   -9000005    1    1    2    0  503  0.22656851365E+03  0.83287536880E+02  0.25118336601E+03  0.53043679033E+03  0.40000000000E+03 0. -1.
<mgrwt>
<rscale>  2 0.46719386E+03</rscale>
<asrwt>0</asrwt>
<pdfrwt beam="1">  1       21 0.12659339E+00 0.46719386E+03</pdfrwt>
<pdfrwt beam="2">  1       21 0.40911801E-01 0.46719386E+03</pdfrwt>
<totfact> 0.22779478E+03</totfact>
</mgrwt>
</event>
<event>
 4    1  0.4991790E-002  0.5446077E+03  0.7818608E-02  0.1002750E+00
         21   -1    0    0  503  502  0.00000000000E+00  0.00000000000E+00  0.14806732120E+04  0.14806732120E+04  0.00000000000E+00 0. -1.
         21   -1    0    0  501  503 -0.00000000000E+00 -0.00000000000E+00 -0.23171453116E+03  0.23171453116E+03  0.00000000000E+00 0. -1.
    9000005    1    1    2  501    0 -0.10678568569E+03 -0.35382821022E+03  0.30928873418E+03  0.62630432387E+03  0.40000000000E+03 0. -1.
   -9000005    1    1    2    0  502  0.10678568569E+03  0.35382821022E+03  0.93966994669E+03  0.10860834193E+04  0.40000000000E+03 0. -1.
<mgrwt>
<rscale>  2 0.54460773E+03</rscale>
<asrwt>0</asrwt>
<pdfrwt beam="1">  1       21 0.22779587E+00 0.54460773E+03</pdfrwt>
<pdfrwt beam="2">  1       21 0.35648390E-01 0.54460773E+03</pdfrwt>
<totfact> 0.53623038E+02</totfact>
</mgrwt>
</event>
<event>
 4    1  0.4991790E-002  0.7357452E+03  0.7818608E-02  0.9657983E-01
         21   -1    0    0  503  502  0.00000000000E+00  0.00000000000E+00  0.12987004805E+04  0.12987004805E+04  0.00000000000E+00 0.  1.
         21   -1    0    0  501  503 -0.00000000000E+00 -0.00000000000E+00 -0.97116325791E+03  0.97116325791E+03  0.00000000000E+00 0. -1.
    9000005    1    1    2  501    0  0.61749555446E+03  0.45035857438E+01 -0.69369174007E+03  0.10112018949E+04  0.40000000000E+03 0. -1.
   -9000005    1    1    2    0  502 -0.61749555446E+03 -0.45035857438E+01  0.10212289627E+04  0.12586618435E+04  0.40000000000E+03 0.  1.
<mgrwt>
<rscale>  2 0.73574523E+03</rscale>
<asrwt>0</asrwt>
<pdfrwt beam="1">  1       21 0.19980007E+00 0.73574523E+03</pdfrwt>
<pdfrwt beam="2">  1       21 0.14940973E+00 0.73574523E+03</pdfrwt>
<totfact> 0.27273978E+01</totfact>
</mgrwt>
</event>
<event>
 4    1  0.4991790E-002  0.4221385E+03  0.7818608E-02  0.1036373E+00
         21   -1    0    0  503  502  0.00000000000E+00  0.00000000000E+00  0.28012218838E+03  0.28012218838E+03  0.00000000000E+00 0.  1.
         21   -1    0    0  501  503 -0.00000000000E+00 -0.00000000000E+00 -0.11226950060E+04  0.11226950060E+04  0.00000000000E+00 0.  1.
    9000005    1    1    2  501    0  0.59083708849E+02 -0.12128487254E+03 -0.88302888455E+03  0.97874456111E+03  0.40000000000E+03 0.  1.
   -9000005    1    1    2    0  502 -0.59083708849E+02  0.12128487254E+03  0.40456066907E+02  0.42407263329E+03  0.40000000000E+03 0.  1.
<mgrwt>
<rscale>  2 0.42213849E+03</rscale>
<asrwt>0</asrwt>
<pdfrwt beam="1">  1       21 0.43095722E-01 0.42213849E+03</pdfrwt>
<pdfrwt beam="2">  1       21 0.17272230E+00 0.42213849E+03</pdfrwt>
<totfact> 0.89806580E+02</totfact>
</mgrwt>
</event>
<event>
 4    1  0.4991790E-002  0.4336620E+03  0.7818608E-02  0.1032709E+00
         21   -1    0    0  501  502  0.00000000000E+00  0.00000000000E+00  0.11956898009E+04  0.11956898009E+04  0.00000000000E+00 0. -1.
         21   -1    0    0  502  503 -0.00000000000E+00 -0.00000000000E+00 -0.15948019838E+03  0.15948019838E+03  0.00000000000E+00 0. -1.
    9000005    1    1    2  501    0  0.12004256550E+03  0.11684386406E+03  0.59762182556E+03  0.73838645199E+03  0.40000000000E+03 0. -1.
   -9000005    1    1    2    0  503 -0.12004256550E+03 -0.11684386406E+03  0.43858777695E+03  0.61678354728E+03  0.40000000000E+03 0. -1.
<mgrwt>
<rscale>  2 0.43366197E+03</rscale>
<asrwt>0</asrwt>
<pdfrwt beam="1">  1       21 0.18395227E+00 0.43366197E+03</pdfrwt>
<pdfrwt beam="2">  1       21 0.24535416E-01 0.43366197E+03</pdfrwt>
<totfact> 0.23027600E+03</totfact>
</mgrwt>
</event>
<event>
 4    1  0.4991790E-002  0.5925415E+03  0.7818608E-02  0.9921002E-01
         21   -1    0    0  501  502  0.00000000000E+00  0.00000000000E+00  0.19887451232E+03  0.19887451232E+03  0.00000000000E+00 0. -1.
         21   -1    0    0  502  503 -0.00000000000E+00 -0.00000000000E+00 -0.17689484447E+04  0.17689484447E+04  0.00000000000E+00 0. -1.
    9000005    1    1    2  501    0  0.27407098652E+03 -0.34057387997E+03 -0.74135873372E+03  0.94906177113E+03  0.40000000000E+03 0. -1.
   -9000005    1    1    2    0  503 -0.27407098652E+03  0.34057387997E+03 -0.82871519865E+03  0.10187611859E+04  0.40000000000E+03 0. -1.
<mgrwt>
<rscale>  2 0.59254154E+03</rscale>
<asrwt>0</asrwt>
<pdfrwt beam="1">  1       21 0.30596079E-01 0.59254154E+03</pdfrwt>
<pdfrwt beam="2">  1       21 0.27214592E+00 0.59254154E+03</pdfrwt>
<totfact> 0.37915480E+02</totfact>
</mgrwt>
</event>
<event>
 4    1  0.4991790E-002  0.4894935E+03  0.7818608E-02  0.1016558E+00
         21   -1    0    0  501  502  0.00000000000E+00  0.00000000000E+00  0.13058682921E+04  0.13058682921E+04  0.00000000000E+00 0. -1.
         21   -1    0    0  502  503 -0.00000000000E+00 -0.00000000000E+00 -0.66434452676E+03  0.66434452676E+03  0.00000000000E+00 0.  1.
    9000005    1    1    2  501    0  0.27756880863E+03 -0.50590471858E+02  0.11588636445E+04  0.12580019022E+04  0.40000000000E+03 0. -1.
   -9000005    1    1    2    0  503 -0.27756880863E+03  0.50590471858E+02 -0.51733987912E+03  0.71221091672E+03  0.40000000000E+03 0.  1.
<mgrwt>
<rscale>  2 0.48949345E+03</rscale>
<asrwt>0</asrwt>
<pdfrwt beam="1">  1       21 0.20090281E+00 0.48949345E+03</pdfrwt>
<pdfrwt beam="2">  1       21 0.10220685E+00 0.48949345E+03</pdfrwt>
<totfact> 0.79980648E+01</totfact>
</mgrwt>
</event>
<event>
 4    1  0.4991790E-002  0.5164443E+03  0.7818608E-02  0.1009574E+00
         21   -1    0    0  501  502  0.00000000000E+00  0.00000000000E+00  0.78097672878E+03  0.78097672878E+03  0.00000000000E+00 0. -1.
         21   -1    0    0  502  503 -0.00000000000E+00 -0.00000000000E+00 -0.34223545367E+03  0.34223545367E+03  0.00000000000E+00 0.  1.
    9000005    1    1    2  501    0 -0.32576517435E+03  0.24326663920E+02  0.24515032266E+03  0.57167597125E+03  0.40000000000E+03 0.  1.
   -9000005    1    1    2    0  503  0.32576517435E+03 -0.24326663920E+02  0.19359095244E+03  0.55153621120E+03  0.40000000000E+03 0. -1.
<mgrwt>
<rscale>  2 0.51644432E+03</rscale>
<asrwt>0</asrwt>
<pdfrwt beam="1">  1       21 0.12015027E+00 0.51644432E+03</pdfrwt>
<pdfrwt beam="2">  1       21 0.52651608E-01 0.51644432E+03</pdfrwt>
<totfact> 0.15041020E+03</totfact>
</mgrwt>
</event>
<event>
 4    1  0.4991790E-002  0.4515206E+03  0.7818608E-02  0.1027270E+00
         21   -1    0    0  501  502  0.00000000000E+00  0.00000000000E+00  0.15775776913E+04  0.15775776913E+04  0.00000000000E+00 0. -1.
         21   -1    0    0  502  503 -0.00000000000E+00 -0.00000000000E+00 -0.14280726545E+03  0.14280726545E+03  0.00000000000E+00 0.  1.
    9000005    1    1    2  501    0  0.69630570529E+02  0.19754092508E+03  0.98261475472E+03  0.10813891943E+04  0.40000000000E+03 0. -1.
   -9000005    1    1    2    0  503 -0.69630570529E+02 -0.19754092508E+03  0.45215567109E+03  0.63899576237E+03  0.40000000000E+03 0.  1.
<mgrwt>
<rscale>  2 0.45152058E+03</rscale>
<asrwt>0</asrwt>
<pdfrwt beam="1">  1       21 0.24270425E+00 0.45152058E+03</pdfrwt>
<pdfrwt beam="2">  1       21 0.21970350E-01 0.45152058E+03</pdfrwt>
<totfact> 0.11726381E+03</totfact>
</mgrwt>
</event>
<event>
 4    1  0.4991790E-002  0.4616675E+03  0.7818608E-02  0.1024299E+00
         21   -1    0    0  501  502  0.00000000000E+00  0.00000000000E+00  0.17821584042E+04  0.17821584042E+04  0.00000000000E+00 0.  1.
         21   -1    0    0  502  503 -0.00000000000E+00 -0.00000000000E+00 -0.12156719515E+03  0.12156719515E+03  0.00000000000E+00 0.  1.
    9000005    1    1    2  501    0  0.19239229333E+03  0.12697291699E+03  0.70905146527E+03  0.84610336046E+03  0.40000000000E+03 0.  1.
   -9000005    1    1    2    0  503 -0.19239229333E+03 -0.12697291699E+03  0.95153974376E+03  0.10576222389E+04  0.40000000000E+03 0.  1.
<mgrwt>
<rscale>  2 0.46166754E+03</rscale>
<asrwt>0</asrwt>
<pdfrwt beam="1">  1       21 0.27417820E+00 0.46166754E+03</pdfrwt>
<pdfrwt beam="2">  1       21 0.18702647E-01 0.46166754E+03</pdfrwt>
<totfact> 0.10188084E+03</totfact>
</mgrwt>
</event>
<event>
 4    1  0.4991790E-002  0.4048498E+03  0.7818608E-02  0.1042113E+00
         21   -1    0    0  503  502  0.00000000000E+00  0.00000000000E+00  0.13460976789E+04  0.13460976789E+04  0.00000000000E+00 0. -1.
         21   -1    0    0  501  503 -0.00000000000E+00 -0.00000000000E+00 -0.12899889839E+03  0.12899889839E+03  0.00000000000E+00 0. -1.
    9000005    1    1    2  501    0 -0.49974086008E+02  0.37496102505E+02  0.43385551555E+03  0.59340877593E+03  0.40000000000E+03 0.  1.
   -9000005    1    1    2    0  502  0.49974086008E+02 -0.37496102505E+02  0.78324326492E+03  0.88168780134E+03  0.40000000000E+03 0.  1.
<mgrwt>
<rscale>  2 0.40484981E+03</rscale>
<asrwt>0</asrwt>
<pdfrwt beam="1">  1       21 0.20709194E+00 0.40484981E+03</pdfrwt>
<pdfrwt beam="2">  1       21 0.19845985E-01 0.40484981E+03</pdfrwt>
<totfact> 0.24484453E+03</totfact>
</mgrwt>
</event>
<event>
 4    1  0.4991790E-002  0.4306570E+03  0.7818608E-02  0.1033653E+00
         21   -1    0    0  503  502  0.00000000000E+00  0.00000000000E+00  0.12822125141E+04  0.12822125141E+04  0.00000000000E+00 0.  1.
         21   -1    0    0  501  503 -0.00000000000E+00 -0.00000000000E+00 -0.15405604079E+03  0.15405604079E+03  0.00000000000E+00 0.  1.
    9000005    1    1    2  501    0 -0.34646778149E+02 -0.15577231490E+03  0.74157441270E+03  0.85755351023E+03  0.40000000000E+03 0. -1.
   -9000005    1    1    2    0  502  0.34646778149E+02  0.15577231490E+03  0.38658206057E+03  0.57871504463E+03  0.40000000000E+03 0. -1.
<mgrwt>
<rscale>  2 0.43065696E+03</rscale>
<asrwt>0</asrwt>
<pdfrwt beam="1">  1       21 0.19726346E+00 0.43065696E+03</pdfrwt>
<pdfrwt beam="2">  1       21 0.23700930E-01 0.43065696E+03</pdfrwt>
<totfact> 0.20003683E+03</totfact>
</mgrwt>
</event>
<event>
 4    1  0.4991790E-002  0.6867341E+03  0.7818608E-02  0.9740192E-01
         21   -1    0    0  503  502  0.00000000000E+00  0.00000000000E+00  0.10464833697E+04  0.10464833697E+04  0.00000000000E+00 0.  1.
         21   -1    0    0  501  503 -0.00000000000E+00 -0.00000000000E+00 -0.57281783346E+03  0.57281783346E+03  0.00000000000E+00 0. -1.
    9000005    1    1    2  501    0  0.31671795832E+03 -0.45966663779E+03 -0.13706915877E+03  0.70027968506E+03  0.40000000000E+03 0. -1.
   -9000005    1    1    2    0  502 -0.31671795832E+03  0.45966663779E+03  0.61073469501E+03  0.91902151809E+03  0.40000000000E+03 0.  1.
<mgrwt>
<rscale>  2 0.68673407E+03</rscale>
<asrwt>0</asrwt>
<pdfrwt beam="1">  1       21 0.16099744E+00 0.68673407E+03</pdfrwt>
<pdfrwt beam="2">  1       21 0.88125821E-01 0.68673407E+03</pdfrwt>
<totfact> 0.20265665E+02</totfact>
</mgrwt>
</event>
<event>
 4    1  0.4991790E-002  0.4660445E+03  0.7818608E-02  0.1023043E+00
         21   -1    0    0  501  502  0.00000000000E+00  0.00000000000E+00  0.14915984164E+03  0.14915984164E+03  0.00000000000E+00 0. -1.
         21   -1    0    0  502  503 -0.00000000000E+00 -0.00000000000E+00 -0.14729058163E+04  0.14729058163E+04  0.00000000000E+00 0.  1.
    9000005    1    1    2  501    0  0.80487630026E+02 -0.22520932341E+03 -0.57534169620E+03  0.74041580569E+03  0.40000000000E+03 0.  1.
   -9000005    1    1    2    0  503 -0.80487630026E+02  0.22520932341E+03 -0.74840427844E+03  0.88164985222E+03  0.40000000000E+03 0.  1.
<mgrwt>
<rscale>  2 0.46604452E+03</rscale>
<asrwt>0</asrwt>
<pdfrwt beam="1">  1       21 0.22947667E-01 0.46604452E+03</pdfrwt>
<pdfrwt beam="2">  1       21 0.22660090E+00 0.46604452E+03</pdfrwt>
<totfact> 0.13508537E+03</totfact>
</mgrwt>
</event>
<event>
 4    1  0.4991790E-002  0.5662811E+03  0.7818608E-02  0.9977942E-01
         21   -1    0    0  501  502  0.00000000000E+00  0.00000000000E+00  0.12062624610E+04  0.12062624610E+04  0.00000000000E+00 0. -1.
         21   -1    0    0  502  503 -0.00000000000E+00 -0.00000000000E+00 -0.48281287191E+03  0.48281287191E+03  0.00000000000E+00 0.  1.
    9000005    1    1    2  501    0 -0.39869073236E+03  0.41472199144E+02  0.92787430437E+03  0.10870257440E+04  0.40000000000E+03 0. -1.
   -9000005    1    1    2    0  503  0.39869073236E+03 -0.41472199144E+02 -0.20442471524E+03  0.60204958896E+03  0.40000000000E+03 0.  1.
<mgrwt>
<rscale>  2 0.56628106E+03</rscale>
<asrwt>0</asrwt>
<pdfrwt beam="1">  1       21 0.18557884E+00 0.56628106E+03</pdfrwt>
<pdfrwt beam="2">  1       21 0.74278903E-01 0.56628106E+03</pdfrwt>
<totfact> 0.20879104E+02</totfact>
</mgrwt>
</event>
<event>
 4    1  0.4991790E-002  0.4329560E+03  0.7818608E-02  0.1032930E+00
         21   -1    0    0  501  502  0.00000000000E+00  0.00000000000E+00  0.45778673599E+03  0.45778673599E+03  0.00000000000E+00 0.  1.
         21   -1    0    0  502  503 -0.00000000000E+00 -0.00000000000E+00 -0.44944967148E+03  0.44944967148E+03  0.00000000000E+00 0.  1.
    9000005    1    1    2  501    0 -0.15626260216E+03 -0.55071576607E+02  0.13945624172E+03  0.45486143246E+03  0.40000000000E+03 0.  1.
   -9000005    1    1    2    0  503  0.15626260216E+03  0.55071576607E+02 -0.13111917720E+03  0.45237497501E+03  0.40000000000E+03 0.  1.
<mgrwt>
<rscale>  2 0.43295598E+03</rscale>
<asrwt>0</asrwt>
<pdfrwt beam="1">  1       21 0.70428729E-01 0.43295598E+03</pdfrwt>
<pdfrwt beam="2">  1       21 0.69146103E-01 0.43295598E+03</pdfrwt>
<totfact> 0.30501770E+03</totfact>
</mgrwt>
</event>
<event>
 4    1  0.4991790E-002  0.4379435E+03  0.7818608E-02  0.1031380E+00
         21   -1    0    0  501  502  0.00000000000E+00  0.00000000000E+00  0.60423121174E+03  0.60423121174E+03  0.00000000000E+00 0. -1.
         21   -1    0    0  502  503 -0.00000000000E+00 -0.00000000000E+00 -0.35443991966E+03  0.35443991966E+03  0.00000000000E+00 0. -1.
    9000005    1    1    2  501    0 -0.13575723710E+03  0.11560494463E+03  0.27980987969E+03  0.51970000906E+03  0.40000000000E+03 0. -1.
   -9000005    1    1    2    0  503  0.13575723710E+03 -0.11560494463E+03 -0.30018587613E+02  0.43897112234E+03  0.40000000000E+03 0. -1.
<mgrwt>
<rscale>  2 0.43794352E+03</rscale>
<asrwt>0</asrwt>
<pdfrwt beam="1">  1       21 0.92958648E-01 0.43794352E+03</pdfrwt>
<pdfrwt beam="2">  1       21 0.54529218E-01 0.43794352E+03</pdfrwt>
<totfact> 0.26992447E+03</totfact>
</mgrwt>
</event>
<event>
 4    1  0.4991790E-002  0.4450137E+03  0.7818608E-02  0.1029220E+00
         21   -1    0    0  503  502  0.00000000000E+00  0.00000000000E+00  0.72236145024E+03  0.72236145024E+03  0.00000000000E+00 0.  1.
         21   -1    0    0  501  503 -0.00000000000E+00 -0.00000000000E+00 -0.39554306379E+03  0.39554306379E+03  0.00000000000E+00 0.  1.
    9000005    1    1    2  501    0 -0.27590489681E+02  0.19306979654E+03 -0.14624027000E+03  0.46842651294E+03  0.40000000000E+03 0.  1.
   -9000005    1    1    2    0  502  0.27590489681E+02 -0.19306979654E+03  0.47305865645E+03  0.64947800109E+03  0.40000000000E+03 0.  1.
<mgrwt>
<rscale>  2 0.44501369E+03</rscale>
<asrwt>0</asrwt>
<pdfrwt beam="1">  1       21 0.11113253E+00 0.44501369E+03</pdfrwt>
<pdfrwt beam="2">  1       21 0.60852779E-01 0.44501369E+03</pdfrwt>
<totfact> 0.13719975E+03</totfact>
</mgrwt>
</event>
<event>
 4    1  0.4991790E-002  0.4279749E+03  0.7818608E-02  0.1034502E+00
         21   -1    0    0  501  502  0.00000000000E+00  0.00000000000E+00  0.22365583339E+04  0.22365583339E+04  0.00000000000E+00 0. -1.
         21   -1    0    0  502  503 -0.00000000000E+00 -0.00000000000E+00 -0.97395112776E+02  0.97395112776E+02  0.00000000000E+00 0. -1.
    9000005    1    1    2  501    0 -0.50391644415E+00  0.15219145665E+03  0.15351289696E+04  0.15936698048E+04  0.40000000000E+03 0. -1.
   -9000005    1    1    2    0  503  0.50391644415E+00 -0.15219145665E+03  0.60403425147E+03  0.74028364183E+03  0.40000000000E+03 0. -1.
<mgrwt>
<rscale>  2 0.42797487E+03</rscale>
<asrwt>0</asrwt>
<pdfrwt beam="1">  1       21 0.34408586E+00 0.42797487E+03</pdfrwt>
<pdfrwt beam="2">  1       21 0.14983865E-01 0.42797487E+03</pdfrwt>
<totfact> 0.59518175E+02</totfact>
</mgrwt>
</event>
<event>
 4    1  0.4991790E-002  0.5924547E+03  0.7818608E-02  0.9921185E-01
         21   -1    0    0  503  502  0.00000000000E+00  0.00000000000E+00  0.62795106002E+03  0.62795106002E+03  0.00000000000E+00 0. -1.
         21   -1    0    0  501  503 -0.00000000000E+00 -0.00000000000E+00 -0.85201520929E+03  0.85201520929E+03  0.00000000000E+00 0.  1.
    9000005    1    1    2  501    0 -0.20231438695E+03  0.38739056613E+03 -0.54601164611E+03  0.80568683716E+03  0.40000000000E+03 0.  1.
   -9000005    1    1    2    0  502  0.20231438695E+03 -0.38739056613E+03  0.32194749685E+03  0.67427943215E+03  0.40000000000E+03 0. -1.
<mgrwt>
<rscale>  2 0.59245469E+03</rscale>
<asrwt>0</asrwt>
<pdfrwt beam="1">  1       21 0.96607855E-01 0.59245469E+03</pdfrwt>
<pdfrwt beam="2">  1       21 0.13107926E+00 0.59245469E+03</pdfrwt>
<totfact> 0.29362508E+02</totfact>
</mgrwt>
</event>
<event>
 4    1  0.4991790E-002  0.5070670E+03  0.7818608E-02  0.1011951E+00
         21   -1    0    0  503  502  0.00000000000E+00  0.00000000000E+00  0.67643229278E+03  0.67643229278E+03  0.00000000000E+00 0. -1.
         21   -1    0    0  501  503 -0.00000000000E+00 -0.00000000000E+00 -0.38427253862E+03  0.38427253862E+03  0.00000000000E+00 0.  1.
    9000005    1    1    2  501    0  0.29521132092E+03  0.99835798434E+02  0.20129529120E+03  0.54556090852E+03  0.40000000000E+03 0. -1.
   -9000005    1    1    2    0  502 -0.29521132092E+03 -0.99835798434E+02  0.90864462964E+02  0.51514392288E+03  0.40000000000E+03 0. -1.
<mgrwt>
<rscale>  2 0.50706697E+03</rscale>
<asrwt>0</asrwt>
<pdfrwt beam="1">  1       21 0.10406651E+00 0.50706697E+03</pdfrwt>
<pdfrwt beam="2">  1       21 0.59118852E-01 0.50706697E+03</pdfrwt>
<totfact> 0.16807640E+03</totfact>
</mgrwt>
</event>
<event>
 4    1  0.4991790E-002  0.4435694E+03  0.7818608E-02  0.1029657E+00
         21   -1    0    0  503  502  0.00000000000E+00  0.00000000000E+00  0.15145115354E+04  0.15145115354E+04  0.00000000000E+00 0.  1.
         21   -1    0    0  501  503 -0.00000000000E+00 -0.00000000000E+00 -0.15827242942E+03  0.15827242942E+03  0.00000000000E+00 0. -1.
    9000005    1    1    2  501    0 -0.26839331495E+02  0.18982479677E+03  0.32407273730E+03  0.54934228150E+03  0.40000000000E+03 0. -1.
   -9000005    1    1    2    0  502  0.26839331495E+02 -0.18982479677E+03  0.10321663687E+04  0.11234416833E+04  0.40000000000E+03 0.  1.
<mgrwt>
<rscale>  2 0.44356939E+03</rscale>
<asrwt>0</asrwt>
<pdfrwt beam="1">  1       21 0.23300176E+00 0.44356939E+03</pdfrwt>
<pdfrwt beam="2">  1       21 0.24349606E-01 0.44356939E+03</pdfrwt>
<totfact> 0.11092491E+03</totfact>
</mgrwt>
</event>
<event>
 4    1  0.4991790E-002  0.4264941E+03  0.7818608E-02  0.1034973E+00
         21   -1    0    0  503  502  0.00000000000E+00  0.00000000000E+00  0.83676696530E+03  0.83676696530E+03  0.00000000000E+00 0. -1.
         21   -1    0    0  501  503 -0.00000000000E+00 -0.00000000000E+00 -0.52676189757E+03  0.52676189757E+03  0.00000000000E+00 0.  1.
    9000005    1    1    2  501    0 -0.14637408652E+03 -0.21722493252E+02 -0.36748256665E+03  0.56297484554E+03  0.40000000000E+03 0.  1.
   -9000005    1    1    2    0  502  0.14637408652E+03  0.21722493252E+02  0.67748763439E+03  0.80055401733E+03  0.40000000000E+03 0. -1.
<mgrwt>
<rscale>  2 0.42649413E+03</rscale>
<asrwt>0</asrwt>
<pdfrwt beam="1">  1       21 0.12873338E+00 0.42649413E+03</pdfrwt>
<pdfrwt beam="2">  1       21 0.81040292E-01 0.42649413E+03</pdfrwt>
<totfact> 0.49981149E+02</totfact>
</mgrwt>
</event>
<event>
 4    1  0.4991790E-002  0.4238919E+03  0.7818608E-02  0.1035807E+00
         21   -1    0    0  501  502  0.00000000000E+00  0.00000000000E+00  0.87561296281E+03  0.87561296281E+03  0.00000000000E+00 0. -1.
         21   -1    0    0  502  503 -0.00000000000E+00 -0.00000000000E+00 -0.21540448799E+03  0.21540448799E+03  0.00000000000E+00 0.  1.
    9000005    1    1    2  501    0  0.73616836099E+01 -0.14010765581E+03  0.44877987501E+03  0.61732303198E+03  0.40000000000E+03 0.  1.
   -9000005    1    1    2    0  503 -0.73616836099E+01  0.14010765581E+03  0.21142859982E+03  0.47369441882E+03  0.40000000000E+03 0.  1.
<mgrwt>
<rscale>  2 0.42389191E+03</rscale>
<asrwt>0</asrwt>
<pdfrwt beam="1">  1       21 0.13470968E+00 0.42389191E+03</pdfrwt>
<pdfrwt beam="2">  1       21 0.33139152E-01 0.42389191E+03</pdfrwt>
<totfact> 0.30267575E+03</totfact>
</mgrwt>
</event>
<event>
 4    1  0.4991790E-002  0.4085501E+03  0.7818608E-02  0.1040859E+00
         21   -1    0    0  501  502  0.00000000000E+00  0.00000000000E+00  0.10135157547E+04  0.10135157547E+04  0.00000000000E+00 0. -1.
         21   -1    0    0  502  503 -0.00000000000E+00 -0.00000000000E+00 -0.20119274872E+03  0.20119274872E+03  0.00000000000E+00 0. -1.
    9000005    1    1    2  501    0 -0.57949822262E+02  0.59624060792E+02  0.66487229184E+03  0.78036425788E+03  0.40000000000E+03 0.  1.
   -9000005    1    1    2    0  503  0.57949822262E+02 -0.59624060792E+02  0.14745071412E+03  0.43434424553E+03  0.40000000000E+03 0.  1.
<mgrwt>
<rscale>  2 0.40855013E+03</rscale>
<asrwt>0</asrwt>
<pdfrwt beam="1">  1       21 0.15592550E+00 0.40855013E+03</pdfrwt>
<pdfrwt beam="2">  1       21 0.30952731E-01 0.40855013E+03</pdfrwt>
<totfact> 0.23587605E+03</totfact>
</mgrwt>
</event>
<event>
 4    1  0.4991790E-002  0.6205551E+03  0.7818608E-02  0.9863655E-01
         21   -1    0    0  503  502  0.00000000000E+00  0.00000000000E+00  0.45754229943E+03  0.45754229943E+03  0.00000000000E+00 0.  1.
         21   -1    0    0  501  503 -0.00000000000E+00 -0.00000000000E+00 -0.10575567531E+04  0.10575567531E+04  0.00000000000E+00 0.  1.
    9000005    1    1    2  501    0 -0.81785388120E+02 -0.46733264744E+03  0.42284427504E+02  0.62199407222E+03  0.40000000000E+03 0.  1.
   -9000005    1    1    2    0  502  0.81785388120E+02  0.46733264744E+03 -0.64229888113E+03  0.89310498027E+03  0.40000000000E+03 0.  1.
<mgrwt>
<rscale>  2 0.62055512E+03</rscale>
<asrwt>0</asrwt>
<pdfrwt beam="1">  1       21 0.70391123E-01 0.62055512E+03</pdfrwt>
<pdfrwt beam="2">  1       21 0.16270104E+00 0.62055512E+03</pdfrwt>
<totfact> 0.33900542E+02</totfact>
</mgrwt>
</event>
<event>
 4    1  0.4991790E-002  0.5310848E+03  0.7818608E-02  0.1005969E+00
         21   -1    0    0  501  502  0.00000000000E+00  0.00000000000E+00  0.94842050720E+03  0.94842050720E+03  0.00000000000E+00 0.  1.
         21   -1    0    0  502  503 -0.00000000000E+00 -0.00000000000E+00 -0.29794031258E+03  0.29794031258E+03  0.00000000000E+00 0. -1.
    9000005    1    1    2  501    0 -0.30023631262E+03 -0.17863141572E+03  0.35201631535E+03  0.63715501440E+03  0.40000000000E+03 0.  1.
   -9000005    1    1    2    0  503  0.30023631262E+03  0.17863141572E+03  0.29846387927E+03  0.60920580539E+03  0.40000000000E+03 0.  1.
<mgrwt>
<rscale>  2 0.53108476E+03</rscale>
<asrwt>0</asrwt>
<pdfrwt beam="1">  1       21 0.14591085E+00 0.53108476E+03</pdfrwt>
<pdfrwt beam="2">  1       21 0.45836972E-01 0.53108476E+03</pdfrwt>
<totfact> 0.12068891E+03</totfact>
</mgrwt>
</event>
<event>
 4    1  0.4991790E-002  0.4238994E+03  0.7818608E-02  0.1035805E+00
         21   -1    0    0  501  502  0.00000000000E+00  0.00000000000E+00  0.17939661297E+03  0.17939661297E+03  0.00000000000E+00 0. -1.
         21   -1    0    0  502  503 -0.00000000000E+00 -0.00000000000E+00 -0.12177804169E+04  0.12177804169E+04  0.00000000000E+00 0.  1.
    9000005    1    1    2  501    0  0.13744964325E+03  0.28253598499E+02 -0.81350243044E+03  0.91732048630E+03  0.40000000000E+03 0.  1.
   -9000005    1    1    2    0  503 -0.13744964325E+03 -0.28253598499E+02 -0.22488137347E+03  0.47985654356E+03  0.40000000000E+03 0. -1.
<mgrwt>
<rscale>  2 0.42389936E+03</rscale>
<asrwt>0</asrwt>
<pdfrwt beam="1">  1       21 0.27599480E-01 0.42389936E+03</pdfrwt>
<pdfrwt beam="2">  1       21 0.18735083E+00 0.42389936E+03</pdfrwt>
<totfact> 0.17411112E+03</totfact>
</mgrwt>
</event>
<event>
 4    1  0.4991790E-002  0.5494807E+03  0.7818608E-02  0.1001614E+00
         21   -1    0    0  501  502  0.00000000000E+00  0.00000000000E+00  0.21756136465E+04  0.21756136465E+04  0.00000000000E+00 0. -1.
         21   -1    0    0  502  503 -0.00000000000E+00 -0.00000000000E+00 -0.35806664211E+03  0.35806664211E+03  0.00000000000E+00 0.  1.
    9000005    1    1    2  501    0 -0.18884895461E+02  0.37626114292E+03  0.19001694649E+04  0.19780225181E+04  0.40000000000E+03 0. -1.
   -9000005    1    1    2    0  503  0.18884895461E+02 -0.37626114292E+03 -0.82622460468E+02  0.55565777051E+03  0.40000000000E+03 0.  1.
<mgrwt>
<rscale>  2 0.54948074E+03</rscale>
<asrwt>0</asrwt>
<pdfrwt beam="1">  1       21 0.33470978E+00 0.54948074E+03</pdfrwt>
<pdfrwt beam="2">  1       21 0.55087177E-01 0.54948074E+03</pdfrwt>
<totfact> 0.47368980E+01</totfact>
</mgrwt>
</event>
<event>
 4    1  0.4991790E-002  0.4152881E+03  0.7818608E-02  0.1038611E+00
         21   -1    0    0  501  502  0.00000000000E+00  0.00000000000E+00  0.57844256865E+03  0.57844256865E+03  0.00000000000E+00 0. -1.
         21   -1    0    0  502  503 -0.00000000000E+00 -0.00000000000E+00 -0.94065456788E+03  0.94065456788E+03  0.00000000000E+00 0. -1.
    9000005    1    1    2  501    0  0.90305771420E+02 -0.65643288137E+02  0.44663093992E+03  0.60987160134E+03  0.40000000000E+03 0.  1.
   -9000005    1    1    2    0  503 -0.90305771420E+02  0.65643288137E+02 -0.80884293915E+03  0.90922553519E+03  0.40000000000E+03 0.  1.
<mgrwt>
<rscale>  2 0.41528806E+03</rscale>
<asrwt>0</asrwt>
<pdfrwt beam="1">  1       21 0.88991165E-01 0.41528806E+03</pdfrwt>
<pdfrwt beam="2">  1       21 0.14471609E+00 0.41528806E+03</pdfrwt>
<totfact> 0.29693236E+02</totfact>
</mgrwt>
</event>
<event>
 4    1  0.4991790E-002  0.4658185E+03  0.7818608E-02  0.1023107E+00
         21   -1    0    0  501  502  0.00000000000E+00  0.00000000000E+00  0.12092845347E+04  0.12092845347E+04  0.00000000000E+00 0. -1.
         21   -1    0    0  502  503 -0.00000000000E+00 -0.00000000000E+00 -0.13599810450E+04  0.13599810450E+04  0.00000000000E+00 0.  1.
    9000005    1    1    2  501    0  0.66119195451E+02  0.22937984308E+03  0.11215416650E+04  0.12144309642E+04  0.40000000000E+03 0. -1.
   -9000005    1    1    2    0  503 -0.66119195451E+02 -0.22937984308E+03 -0.12722381753E+04  0.13548346155E+04  0.40000000000E+03 0.  1.
<mgrwt>
<rscale>  2 0.46581848E+03</rscale>
<asrwt>0</asrwt>
<pdfrwt beam="1">  1       21 0.18604377E+00 0.46581848E+03</pdfrwt>
<pdfrwt beam="2">  1       21 0.20922785E+00 0.46581848E+03</pdfrwt>
<totfact> 0.14463666E+01</totfact>
</mgrwt>
</event>
<event>
 4    1  0.4991790E-002  0.4239486E+03  0.7818608E-02  0.1035789E+00
         21   -1    0    0  501  502  0.00000000000E+00  0.00000000000E+00  0.13602722023E+03  0.13602722023E+03  0.00000000000E+00 0.  1.
         21   -1    0    0  502  503 -0.00000000000E+00 -0.00000000000E+00 -0.14100676745E+04  0.14100676745E+04  0.00000000000E+00 0.  1.
    9000005    1    1    2  501    0  0.46001143199E+02  0.13272643124E+03 -0.83098371445E+03  0.93288066997E+03  0.40000000000E+03 0.  1.
   -9000005    1    1    2    0  503 -0.46001143199E+02 -0.13272643124E+03 -0.44305673979E+03  0.61321422472E+03  0.40000000000E+03 0.  1.
<mgrwt>
<rscale>  2 0.42394859E+03</rscale>
<asrwt>0</asrwt>
<pdfrwt beam="1">  1       21 0.20927265E-01 0.42394859E+03</pdfrwt>
<pdfrwt beam="2">  1       21 0.21693348E+00 0.42394859E+03</pdfrwt>
<totfact> 0.18942275E+03</totfact>
</mgrwt>
</event>
<event>
 4    1  0.4991790E-002  0.4742803E+03  0.7818608E-02  0.1020719E+00
         21   -1    0    0  501  502  0.00000000000E+00  0.00000000000E+00  0.21180973883E+03  0.21180973883E+03  0.00000000000E+00 0. -1.
         21   -1    0    0  502  503 -0.00000000000E+00 -0.00000000000E+00 -0.17563029414E+04  0.17563029414E+04  0.00000000000E+00 0. -1.
    9000005    1    1    2  501    0  0.66752886561E+02 -0.24593864716E+03 -0.15352537886E+03  0.49850958665E+03  0.40000000000E+03 0. -1.
   -9000005    1    1    2    0  503 -0.66752886561E+02  0.24593864716E+03 -0.13909678237E+04  0.14696030936E+04  0.40000000000E+03 0. -1.
<mgrwt>
<rscale>  2 0.47428026E+03</rscale>
<asrwt>0</asrwt>
<pdfrwt beam="1">  1       21 0.32586115E-01 0.47428026E+03</pdfrwt>
<pdfrwt beam="2">  1       21 0.27020044E+00 0.47428026E+03</pdfrwt>
<totfact> 0.36293557E+02</totfact>
</mgrwt>
</event>
<event>
 4    1  0.4991790E-002  0.4690305E+03  0.7818608E-02  0.1022194E+00
         21   -1    0    0  503  502  0.00000000000E+00  0.00000000000E+00  0.68949569977E+03  0.68949569977E+03  0.00000000000E+00 0. -1.
         21   -1    0    0  501  503 -0.00000000000E+00 -0.00000000000E+00 -0.31952772239E+03  0.31952772239E+03  0.00000000000E+00 0. -1.
    9000005    1    1    2  501    0 -0.16515492340E+03 -0.18086864436E+03  0.16565520039E+03  0.49742462811E+03  0.40000000000E+03 0. -1.
   -9000005    1    1    2    0  502  0.16515492340E+03  0.18086864436E+03  0.20431277699E+03  0.51159879405E+03  0.40000000000E+03 0. -1.
<mgrwt>
<rscale>  2 0.46903051E+03</rscale>
<asrwt>0</asrwt>
<pdfrwt beam="1">  1       21 0.10607626E+00 0.46903051E+03</pdfrwt>
<pdfrwt beam="2">  1       21 0.49158111E-01 0.46903051E+03</pdfrwt>
<totfact> 0.24185952E+03</totfact>
</mgrwt>
</event>
<event>
 4    1  0.4991790E-002  0.5426961E+03  0.7818608E-02  0.1003199E+00
         21   -1    0    0  503  502  0.00000000000E+00  0.00000000000E+00  0.32612713868E+03  0.32612713868E+03  0.00000000000E+00 0.  1.
         21   -1    0    0  501  503 -0.00000000000E+00 -0.00000000000E+00 -0.14147189984E+04  0.14147189984E+04  0.00000000000E+00 0. -1.
    9000005    1    1    2  501    0  0.29996111846E+03  0.21105073008E+03 -0.10677479455E+04  0.11977498730E+04  0.40000000000E+03 0.  1.
   -9000005    1    1    2    0  502 -0.29996111846E+03 -0.21105073008E+03 -0.20843914234E+02  0.54309626404E+03  0.40000000000E+03 0. -1.
<mgrwt>
<rscale>  2 0.54269612E+03</rscale>
<asrwt>0</asrwt>
<pdfrwt beam="1">  1       21 0.50173407E-01 0.54269612E+03</pdfrwt>
<pdfrwt beam="2">  1       21 0.21764907E+00 0.54269612E+03</pdfrwt>
<totfact> 0.30569266E+02</totfact>
</mgrwt>
</event>
<event>
 4    1  0.4991790E-002  0.4331822E+03  0.7818608E-02  0.1032859E+00
         21   -1    0    0  501  502  0.00000000000E+00  0.00000000000E+00  0.58860010151E+03  0.58860010151E+03  0.00000000000E+00 0.  1.
         21   -1    0    0  502  503 -0.00000000000E+00 -0.00000000000E+00 -0.34977954048E+03  0.34977954048E+03  0.00000000000E+00 0. -1.
    9000005    1    1    2  501    0 -0.16611627321E+03  0.72224183577E+01  0.25903945067E+03  0.50472588259E+03  0.40000000000E+03 0.  1.
   -9000005    1    1    2    0  503  0.16611627321E+03 -0.72224183577E+01 -0.20218889635E+02  0.43365375941E+03  0.40000000000E+03 0. -1.
<mgrwt>
<rscale>  2 0.43318216E+03</rscale>
<asrwt>0</asrwt>
<pdfrwt beam="1">  1       21 0.90553862E-01 0.43318216E+03</pdfrwt>
<pdfrwt beam="2">  1       21 0.53812237E-01 0.43318216E+03</pdfrwt>
<totfact> 0.29609325E+03</totfact>
</mgrwt>
</event>
<event>
 4    1  0.4991790E-002  0.5895623E+03  0.7818608E-02  0.9927301E-01
         21   -1    0    0  503  502  0.00000000000E+00  0.00000000000E+00  0.18822533411E+04  0.18822533411E+04  0.00000000000E+00 0. -1.
         21   -1    0    0  501  503 -0.00000000000E+00 -0.00000000000E+00 -0.31879529551E+03  0.31879529551E+03  0.00000000000E+00 0.  1.
    9000005    1    1    2  501    0 -0.82671099073E+02 -0.42514603246E+03  0.67874994125E+02  0.59345654800E+03  0.40000000000E+03 0.  1.
   -9000005    1    1    2    0  502  0.82671099073E+02  0.42514603246E+03  0.14955830515E+04  0.16075920886E+04  0.40000000000E+03 0. -1.
<mgrwt>
<rscale>  2 0.58956226E+03</rscale>
<asrwt>0</asrwt>
<pdfrwt beam="1">  1       21 0.28957743E+00 0.58956226E+03</pdfrwt>
<pdfrwt beam="2">  1       21 0.49045431E-01 0.58956226E+03</pdfrwt>
<totfact> 0.11217960E+02</totfact>
</mgrwt>
</event>
<event>
 4    1  0.4991790E-002  0.4066882E+03  0.7818608E-02  0.1041488E+00
         21   -1    0    0  503  502  0.00000000000E+00  0.00000000000E+00  0.19454901416E+03  0.19454901416E+03  0.00000000000E+00 0.  1.
         21   -1    0    0  501  503 -0.00000000000E+00 -0.00000000000E+00 -0.92017452957E+03  0.92017452957E+03  0.00000000000E+00 0.  1.
    9000005    1    1    2  501    0  0.19222676549E+01  0.73427281358E+02 -0.51657031708E+03  0.65744973439E+03  0.40000000000E+03 0. -1.
   -9000005    1    1    2    0  502 -0.19222676549E+01 -0.73427281358E+02 -0.20905519834E+03  0.45727380934E+03  0.40000000000E+03 0. -1.
<mgrwt>
<rscale>  2 0.40668816E+03</rscale>
<asrwt>0</asrwt>
<pdfrwt beam="1">  1       21 0.29930618E-01 0.40668816E+03</pdfrwt>
<pdfrwt beam="2">  1       21 0.14156531E+00 0.40668816E+03</pdfrwt>
<totfact> 0.32755308E+03</totfact>
</mgrwt>
</event>
<event>
 4    1  0.4991790E-002  0.6799678E+03  0.7818608E-02  0.9752117E-01
         21   -1    0    0  503  502  0.00000000000E+00  0.00000000000E+00  0.10812611605E+04  0.10812611605E+04  0.00000000000E+00 0.  1.
         21   -1    0    0  501  503 -0.00000000000E+00 -0.00000000000E+00 -0.48664999804E+03  0.48664999804E+03  0.00000000000E+00 0.  1.
    9000005    1    1    2  501    0  0.50821410850E+03 -0.20993968559E+03  0.24242808991E+02  0.68039985703E+03  0.40000000000E+03 0.  1.
   -9000005    1    1    2    0  502 -0.50821410850E+03  0.20993968559E+03  0.57036835348E+03  0.88751130151E+03  0.40000000000E+03 0.  1.
<mgrwt>
<rscale>  2 0.67996783E+03</rscale>
<asrwt>0</asrwt>
<pdfrwt beam="1">  1       21 0.16634787E+00 0.67996783E+03</pdfrwt>
<pdfrwt beam="2">  1       21 0.74869231E-01 0.67996783E+03</pdfrwt>
<totfact> 0.27101703E+02</totfact>
</mgrwt>
</event>
<event>
 4    1  0.4991790E-002  0.5239222E+03  0.7818608E-02  0.1007717E+00
         21   -1    0    0  501  502  0.00000000000E+00  0.00000000000E+00  0.87340303751E+03  0.87340303751E+03  0.00000000000E+00 0.  1.
         21   -1    0    0  502  503 -0.00000000000E+00 -0.00000000000E+00 -0.98274990222E+03  0.98274990222E+03  0.00000000000E+00 0. -1.
    9000005    1    1    2  501    0  0.25882819533E+03 -0.21795049405E+03  0.71075164298E+03  0.88298490959E+03  0.40000000000E+03 0.  1.
   -9000005    1    1    2    0  503 -0.25882819533E+03  0.21795049405E+03 -0.82009850770E+03  0.97316803014E+03  0.40000000000E+03 0. -1.
<mgrwt>
<rscale>  2 0.52392218E+03</rscale>
<asrwt>0</asrwt>
<pdfrwt beam="1">  1       21 0.13436970E+00 0.52392218E+03</pdfrwt>
<pdfrwt beam="2">  1       21 0.15119229E+00 0.52392218E+03</pdfrwt>
<totfact> 0.89627610E+01</totfact>
</mgrwt>
</event>
<event>
 4    1  0.4991790E-002  0.4557685E+03  0.7818608E-02  0.1026016E+00
         21   -1    0    0  501  502  0.00000000000E+00  0.00000000000E+00  0.30215502118E+03  0.30215502118E+03  0.00000000000E+00 0. -1.
         21   -1    0    0  502  503 -0.00000000000E+00 -0.00000000000E+00 -0.72722463887E+03  0.72722463887E+03  0.00000000000E+00 0.  1.
    9000005    1    1    2  501    0  0.48460597929E+01 -0.21840663936E+03 -0.92208323284E+02  0.46500249386E+03  0.40000000000E+03 0. -1.
   -9000005    1    1    2    0  503 -0.48460597929E+01  0.21840663936E+03 -0.33286129441E+03  0.56437716620E+03  0.40000000000E+03 0.  1.
<mgrwt>
<rscale>  2 0.45576852E+03</rscale>
<asrwt>0</asrwt>
<pdfrwt beam="1">  1       21 0.46485388E-01 0.45576852E+03</pdfrwt>
<pdfrwt beam="2">  1       21 0.11188071E+00 0.45576852E+03</pdfrwt>
<totfact> 0.23967494E+03</totfact>
</mgrwt>
</event>
<event>
 4    1  0.4991790E-002  0.4368886E+03  0.7818608E-02  0.1031706E+00
         21   -1    0    0  503  502  0.00000000000E+00  0.00000000000E+00  0.72025048882E+03  0.72025048882E+03  0.00000000000E+00 0. -1.
         21   -1    0    0  501  503 -0.00000000000E+00 -0.00000000000E+00 -0.79053676646E+03  0.79053676646E+03  0.00000000000E+00 0. -1.
    9000005    1    1    2  501    0 -0.17419502417E+03  0.22972322781E+02 -0.65104400980E+03  0.78404715213E+03  0.40000000000E+03 0. -1.
   -9000005    1    1    2    0  502  0.17419502417E+03 -0.22972322781E+02  0.58075773217E+03  0.72674010315E+03  0.40000000000E+03 0. -1.
<mgrwt>
<rscale>  2 0.43688858E+03</rscale>
<asrwt>0</asrwt>
<pdfrwt beam="1">  1       21 0.11080777E+00 0.43688858E+03</pdfrwt>
<pdfrwt beam="2">  1       21 0.12162104E+00 0.43688858E+03</pdfrwt>
<totfact> 0.27183859E+02</totfact>
</mgrwt>
</event>
<event>
 4    1  0.4991790E-002  0.5363578E+03  0.7818608E-02  0.1004702E+00
         21   -1    0    0  503  502  0.00000000000E+00  0.00000000000E+00  0.34965471106E+03  0.34965471106E+03  0.00000000000E+00 0.  1.
         21   -1    0    0  501  503 -0.00000000000E+00 -0.00000000000E+00 -0.84840981003E+03  0.84840981003E+03  0.00000000000E+00 0.  1.
    9000005    1    1    2  501    0 -0.34647721491E+03  0.87368324106E+02 -0.35354770825E+03  0.64239837057E+03  0.40000000000E+03 0.  1.
   -9000005    1    1    2    0  502  0.34647721491E+03 -0.87368324106E+02 -0.14520739073E+03  0.55566615051E+03  0.40000000000E+03 0.  1.
<mgrwt>
<rscale>  2 0.53635780E+03</rscale>
<asrwt>0</asrwt>
<pdfrwt beam="1">  1       21 0.53793033E-01 0.53635780E+03</pdfrwt>
<pdfrwt beam="2">  1       21 0.13052458E+00 0.53635780E+03</pdfrwt>
<totfact> 0.11515806E+03</totfact>
</mgrwt>
</event>
<event>
 4    1  0.4991790E-002  0.5336450E+03  0.7818608E-02  0.1005352E+00
         21   -1    0    0  503  502  0.00000000000E+00  0.00000000000E+00  0.39853065023E+03  0.39853065023E+03  0.00000000000E+00 0.  1.
         21   -1    0    0  501  503 -0.00000000000E+00 -0.00000000000E+00 -0.10128459122E+04  0.10128459122E+04  0.00000000000E+00 0.  1.
    9000005    1    1    2  501    0 -0.35319247890E+03  0.56582838949E+01 -0.69011666815E+03  0.87237489589E+03  0.40000000000E+03 0.  1.
   -9000005    1    1    2    0  502  0.35319247890E+03 -0.56582838949E+01  0.75801406199E+02  0.53900166652E+03  0.40000000000E+03 0.  1.
<mgrwt>
<rscale>  2 0.53364496E+03</rscale>
<asrwt>0</asrwt>
<pdfrwt beam="1">  1       21 0.61312408E-01 0.53364496E+03</pdfrwt>
<pdfrwt beam="2">  1       21 0.15582245E+00 0.53364496E+03</pdfrwt>
<totfact> 0.53808556E+02</totfact>
</mgrwt>
</event>
<event>
 4    1  0.4991790E-002  0.4288239E+03  0.7818608E-02  0.1034232E+00
         21   -1    0    0  503  502  0.00000000000E+00  0.00000000000E+00  0.52596845481E+03  0.52596845481E+03  0.00000000000E+00 0.  1.
         21   -1    0    0  501  503 -0.00000000000E+00 -0.00000000000E+00 -0.49238973307E+03  0.49238973307E+03  0.00000000000E+00 0.  1.
    9000005    1    1    2  501    0  0.11581746667E+03 -0.10235354101E+03 -0.25738807409E+03  0.50013853443E+03  0.40000000000E+03 0.  1.
   -9000005    1    1    2    0  502 -0.11581746667E+03  0.10235354101E+03  0.29096679583E+03  0.51821965345E+03  0.40000000000E+03 0.  1.
<mgrwt>
<rscale>  2 0.42882390E+03</rscale>
<asrwt>0</asrwt>
<pdfrwt beam="1">  1       21 0.80918224E-01 0.42882390E+03</pdfrwt>
<pdfrwt beam="2">  1       21 0.75752267E-01 0.42882390E+03</pdfrwt>
<totfact> 0.18101241E+03</totfact>
</mgrwt>
</event>
<event>
 4    1  0.4991790E-002  0.4141322E+03  0.7818608E-02  0.1038993E+00
         21   -1    0    0  501  502  0.00000000000E+00  0.00000000000E+00  0.11707533258E+04  0.11707533258E+04  0.00000000000E+00 0. -1.
         21   -1    0    0  502  503 -0.00000000000E+00 -0.00000000000E+00 -0.17810734505E+03  0.17810734505E+03  0.00000000000E+00 0. -1.
    9000005    1    1    2  501    0 -0.81614367595E+02  0.69603013070E+02  0.21217267210E+03  0.46532002666E+03  0.40000000000E+03 0.  1.
   -9000005    1    1    2    0  503  0.81614367595E+02 -0.69603013070E+02  0.78047330865E+03  0.88354064420E+03  0.40000000000E+03 0.  1.
<mgrwt>
<rscale>  2 0.41413221E+03</rscale>
<asrwt>0</asrwt>
<pdfrwt beam="1">  1       21 0.18011589E+00 0.41413221E+03</pdfrwt>
<pdfrwt beam="2">  1       21 0.27401131E-01 0.41413221E+03</pdfrwt>
<totfact> 0.19913495E+03</totfact>
</mgrwt>
</event>
<event>
 4    1  0.4991790E-002  0.4581051E+03  0.7818608E-02  0.1025332E+00
         21   -1    0    0  503  502  0.00000000000E+00  0.00000000000E+00  0.19004876818E+03  0.19004876818E+03  0.00000000000E+00 0.  1.
         21   -1    0    0  501  503 -0.00000000000E+00 -0.00000000000E+00 -0.19577533687E+04  0.19577533687E+04  0.00000000000E+00 0.  1.
    9000005    1    1    2  501    0  0.22050552523E+03  0.35179162149E+02 -0.15929227169E+04  0.16574869659E+04  0.40000000000E+03 0.  1.
   -9000005    1    1    2    0  502 -0.22050552523E+03 -0.35179162149E+02 -0.17478188372E+03  0.49031517107E+03  0.40000000000E+03 0.  1.
<mgrwt>
<rscale>  2 0.45810508E+03</rscale>
<asrwt>0</asrwt>
<pdfrwt beam="1">  1       21 0.29238271E-01 0.45810508E+03</pdfrwt>
<pdfrwt beam="2">  1       21 0.30119284E+00 0.45810508E+03</pdfrwt>
<totfact> 0.29560882E+02</totfact>
</mgrwt>
</event>
<event>
 4    1  0.4991790E-002  0.5561106E+03  0.7818608E-02  0.1000089E+00
         21   -1    0    0  503  502  0.00000000000E+00  0.00000000000E+00  0.20145677420E+04  0.20145677420E+04  0.00000000000E+00 0.  1.
         21   -1    0    0  501  503 -0.00000000000E+00 -0.00000000000E+00 -0.20403185922E+03  0.20403185922E+03  0.00000000000E+00 0.  1.
    9000005    1    1    2  501    0  0.15137833668E+03  0.35544840239E+03  0.35327452291E+03  0.65883370900E+03  0.40000000000E+03 0.  1.
   -9000005    1    1    2    0  502 -0.15137833668E+03 -0.35544840239E+03  0.14572613598E+04  0.15597658922E+04  0.40000000000E+03 0.  1.
<mgrwt>
<rscale>  2 0.55611057E+03</rscale>
<asrwt>0</asrwt>
<pdfrwt beam="1">  1       21 0.30993349E+00 0.55611057E+03</pdfrwt>
<pdfrwt beam="2">  1       21 0.31389518E-01 0.55611057E+03</pdfrwt>
<totfact> 0.21563883E+02</totfact>
</mgrwt>
</event>
<event>
 4    1  0.4991790E-002  0.4676659E+03  0.7818608E-02  0.1022581E+00
         21   -1    0    0  503  502  0.00000000000E+00  0.00000000000E+00  0.13445100708E+03  0.13445100708E+03  0.00000000000E+00 0.  1.
         21   -1    0    0  501  503 -0.00000000000E+00 -0.00000000000E+00 -0.16349457173E+04  0.16349457173E+04  0.00000000000E+00 0. -1.
    9000005    1    1    2  501    0  0.35306815422E+02 -0.23971818249E+03 -0.81307813667E+03  0.93798050863E+03  0.40000000000E+03 0. -1.
   -9000005    1    1    2    0  502 -0.35306815422E+02  0.23971818249E+03 -0.68741657352E+03  0.83141621574E+03  0.40000000000E+03 0.  1.
<mgrwt>
<rscale>  2 0.46766588E+03</rscale>
<asrwt>0</asrwt>
<pdfrwt beam="1">  1       21 0.20684769E-01 0.46766588E+03</pdfrwt>
<pdfrwt beam="2">  1       21 0.25153013E+00 0.46766588E+03</pdfrwt>
<totfact> 0.11522640E+03</totfact>
</mgrwt>
</event>
<event>
 4    1  0.4991790E-002  0.4918102E+03  0.7818608E-02  0.1015939E+00
         21   -1    0    0  503  502  0.00000000000E+00  0.00000000000E+00  0.33575030648E+03  0.33575030648E+03  0.00000000000E+00 0.  1.
         21   -1    0    0  501  503 -0.00000000000E+00 -0.00000000000E+00 -0.73367945889E+03  0.73367945889E+03  0.00000000000E+00 0. -1.
    9000005    1    1    2  501    0 -0.12077813139E+03 -0.25940307587E+03 -0.12704895119E+03  0.50795545946E+03  0.40000000000E+03 0. -1.
   -9000005    1    1    2    0  502  0.12077813139E+03  0.25940307587E+03 -0.27088020122E+03  0.56147430592E+03  0.40000000000E+03 0. -1.
<mgrwt>
<rscale>  2 0.49181024E+03</rscale>
<asrwt>0</asrwt>
<pdfrwt beam="1">  1       21 0.51653893E-01 0.49181024E+03</pdfrwt>
<pdfrwt beam="2">  1       21 0.11287376E+00 0.49181024E+03</pdfrwt>
<totfact> 0.18500310E+03</totfact>
</mgrwt>
</event>
<event>
 4    1  0.4991790E-002  0.5277340E+03  0.7818608E-02  0.1006783E+00
         21   -1    0    0  503  502  0.00000000000E+00  0.00000000000E+00  0.75922486329E+03  0.75922486329E+03  0.00000000000E+00 0. -1.
         21   -1    0    0  501  503 -0.00000000000E+00 -0.00000000000E+00 -0.38208675119E+03  0.38208675119E+03  0.00000000000E+00 0.  1.
    9000005    1    1    2  501    0 -0.29734126745E+03 -0.17346853792E+03  0.74521490574E+02  0.53296961971E+03  0.40000000000E+03 0.  1.
   -9000005    1    1    2    0  502  0.29734126745E+03  0.17346853792E+03  0.30261662152E+03  0.60834199477E+03  0.40000000000E+03 0. -1.
<mgrwt>
<rscale>  2 0.52773399E+03</rscale>
<asrwt>0</asrwt>
<pdfrwt beam="1">  1       21 0.11680382E+00 0.52773399E+03</pdfrwt>
<pdfrwt beam="2">  1       21 0.58782577E-01 0.52773399E+03</pdfrwt>
<totfact> 0.12674861E+03</totfact>
</mgrwt>
</event>
<event>
 4    1  0.4991790E-002  0.4814782E+03  0.7818608E-02  0.1018730E+00
         21   -1    0    0  503  502  0.00000000000E+00  0.00000000000E+00  0.15431947330E+04  0.15431947330E+04  0.00000000000E+00 0. -1.
         21   -1    0    0  501  503 -0.00000000000E+00 -0.00000000000E+00 -0.25510933403E+03  0.25510933403E+03  0.00000000000E+00 0. -1.
    9000005    1    1    2  501    0 -0.21416441253E+03 -0.16110504948E+03  0.67498987532E+02  0.48618653404E+03  0.40000000000E+03 0. -1.
   -9000005    1    1    2    0  502  0.21416441253E+03  0.16110504948E+03  0.12205864114E+04  0.13121175330E+04  0.40000000000E+03 0. -1.
<mgrwt>
<rscale>  2 0.48147817E+03</rscale>
<asrwt>0</asrwt>
<pdfrwt beam="1">  1       21 0.23741457E+00 0.48147817E+03</pdfrwt>
<pdfrwt beam="2">  1       21 0.39247591E-01 0.48147817E+03</pdfrwt>
<totfact> 0.39400583E+02</totfact>
</mgrwt>
</event>
<event>
 4    1  0.4991790E-002  0.4361319E+03  0.7818608E-02  0.1031940E+00
         21   -1    0    0  503  502  0.00000000000E+00  0.00000000000E+00  0.16050575083E+03  0.16050575083E+03  0.00000000000E+00 0. -1.
         21   -1    0    0  501  503 -0.00000000000E+00 -0.00000000000E+00 -0.12104181260E+04  0.12104181260E+04  0.00000000000E+00 0. -1.
    9000005    1    1    2  501    0  0.12137563103E+03 -0.12441463091E+03 -0.62414488659E+03  0.76142490349E+03  0.40000000000E+03 0. -1.
   -9000005    1    1    2    0  502 -0.12137563103E+03  0.12441463091E+03 -0.42576748860E+03  0.60949897337E+03  0.40000000000E+03 0. -1.
<mgrwt>
<rscale>  2 0.43613191E+03</rscale>
<asrwt>0</asrwt>
<pdfrwt beam="1">  1       21 0.24693193E-01 0.43613191E+03</pdfrwt>
<pdfrwt beam="2">  1       21 0.18621817E+00 0.43613191E+03</pdfrwt>
<totfact> 0.21912450E+03</totfact>
</mgrwt>
</event>
<event>
 4    1  0.4991790E-002  0.4154347E+03  0.7818608E-02  0.1038562E+00
         21   -1    0    0  503  502  0.00000000000E+00  0.00000000000E+00  0.11185581232E+03  0.11185581232E+03  0.00000000000E+00 0. -1.
         21   -1    0    0  501  503 -0.00000000000E+00 -0.00000000000E+00 -0.15665895178E+04  0.15665895178E+04  0.00000000000E+00 0. -1.
    9000005    1    1    2  501    0 -0.10475903778E+03 -0.40143729325E+02 -0.83049543139E+03  0.92860574873E+03  0.40000000000E+03 0. -1.
   -9000005    1    1    2    0  502  0.10475903778E+03  0.40143729325E+02 -0.62423827413E+03  0.74983958144E+03  0.40000000000E+03 0. -1.
<mgrwt>
<rscale>  2 0.41543468E+03</rscale>
<asrwt>0</asrwt>
<pdfrwt beam="1">  1       21 0.17208588E-01 0.41543468E+03</pdfrwt>
<pdfrwt beam="2">  1       21 0.24101375E+00 0.41543468E+03</pdfrwt>
<totfact> 0.19431295E+03</totfact>
</mgrwt>
</event>
<event>
 4    1  0.4991790E-002  0.5127594E+03  0.7818608E-02  0.1010501E+00
         21   -1    0    0  503  502  0.00000000000E+00  0.00000000000E+00  0.40290710477E+03  0.40290710477E+03  0.00000000000E+00 0.  1.
         21   -1    0    0  501  503 -0.00000000000E+00 -0.00000000000E+00 -0.66508082962E+03  0.66508082962E+03  0.00000000000E+00 0.  1.
    9000005    1    1    2  501    0  0.18609412005E+03 -0.26132571626E+03 -0.57826559024E+02  0.51600975032E+03  0.40000000000E+03 0.  1.
   -9000005    1    1    2    0  502 -0.18609412005E+03  0.26132571626E+03 -0.20434716582E+03  0.55197818406E+03  0.40000000000E+03 0.  1.
<mgrwt>
<rscale>  2 0.51275935E+03</rscale>
<asrwt>0</asrwt>
<pdfrwt beam="1">  1       21 0.61985709E-01 0.51275935E+03</pdfrwt>
<pdfrwt beam="2">  1       21 0.10232013E+00 0.51275935E+03</pdfrwt>
<totfact> 0.15757699E+03</totfact>
</mgrwt>
</event>
<event>
 4    1  0.4991790E-002  0.4157770E+03  0.7818608E-02  0.1038450E+00
         21   -1    0    0  503  502  0.00000000000E+00  0.00000000000E+00  0.86091015410E+03  0.86091015410E+03  0.00000000000E+00 0. -1.
         21   -1    0    0  501  503 -0.00000000000E+00 -0.00000000000E+00 -0.20571082161E+03  0.20571082161E+03  0.00000000000E+00 0. -1.
    9000005    1    1    2  501    0  0.77401448362E+02  0.82942976972E+02  0.41000224871E+03  0.58392839080E+03  0.40000000000E+03 0. -1.
   -9000005    1    1    2    0  502 -0.77401448362E+02 -0.82942976972E+02  0.24519708377E+03  0.48269258491E+03  0.40000000000E+03 0. -1.
<mgrwt>
<rscale>  2 0.41577701E+03</rscale>
<asrwt>0</asrwt>
<pdfrwt beam="1">  1       21 0.13244771E+00 0.41577701E+03</pdfrwt>
<pdfrwt beam="2">  1       21 0.31647819E-01 0.41577701E+03</pdfrwt>
<totfact> 0.34797286E+03</totfact>
</mgrwt>
</event>
<event>
 4    1  0.4991790E-002  0.5736818E+03  0.7818608E-02  0.9961564E-01
         21   -1    0    0  501  502  0.00000000000E+00  0.00000000000E+00  0.52641088501E+03  0.52641088501E+03  0.00000000000E+00 0.  1.
         21   -1    0    0  502  503 -0.00000000000E+00 -0.00000000000E+00 -0.63882665623E+03  0.63882665623E+03  0.00000000000E+00 0.  1.
    9000005    1    1    2  501    0 -0.22003830640E+03  0.34741028601E+03  0.28891736079E+02  0.57440882263E+03  0.40000000000E+03 0.  1.
   -9000005    1    1    2    0  503  0.22003830640E+03 -0.34741028601E+03 -0.14130750730E+03  0.59082871860E+03  0.40000000000E+03 0.  1.
<mgrwt>
<rscale>  2 0.57368176E+03</rscale>
<asrwt>0</asrwt>
<pdfrwt beam="1">  1       21 0.80986290E-01 0.57368176E+03</pdfrwt>
<pdfrwt beam="2">  1       21 0.98281024E-01 0.57368176E+03</pdfrwt>
<totfact> 0.92947363E+02</totfact>
</mgrwt>
</event>
<event>
 4    1  0.4991790E-002  0.5303428E+03  0.7818608E-02  0.1006149E+00
         21   -1    0    0  503  502  0.00000000000E+00  0.00000000000E+00  0.14722222048E+04  0.14722222048E+04  0.00000000000E+00 0.  1.
         21   -1    0    0  501  503 -0.00000000000E+00 -0.00000000000E+00 -0.19179394632E+03  0.19179394632E+03  0.00000000000E+00 0.  1.
    9000005    1    1    2  501    0  0.33060670284E+03  0.10937429800E+03  0.58828921027E+03  0.79205285426E+03  0.40000000000E+03 0.  1.
   -9000005    1    1    2    0  502 -0.33060670284E+03 -0.10937429800E+03  0.69213904821E+03  0.87196329686E+03  0.40000000000E+03 0.  1.
<mgrwt>
<rscale>  2 0.53034284E+03</rscale>
<asrwt>0</asrwt>
<pdfrwt beam="1">  1       21 0.22649572E+00 0.53034284E+03</pdfrwt>
<pdfrwt beam="2">  1       21 0.29506762E-01 0.53034284E+03</pdfrwt>
<totfact> 0.80435457E+02</totfact>
</mgrwt>
</event>
<event>
 4    1  0.4991790E-002  0.4440166E+03  0.7818608E-02  0.1029522E+00
         21   -1    0    0  501  502  0.00000000000E+00  0.00000000000E+00  0.75507003051E+03  0.75507003051E+03  0.00000000000E+00 0. -1.
         21   -1    0    0  502  503 -0.00000000000E+00 -0.00000000000E+00 -0.34305715205E+03  0.34305715205E+03  0.00000000000E+00 0.  1.
    9000005    1    1    2  501    0 -0.91484819384E+02 -0.16965043425E+03 -0.62358619199E+02  0.44837410653E+03  0.40000000000E+03 0.  1.
   -9000005    1    1    2    0  503  0.91484819384E+02  0.16965043425E+03  0.47437149766E+03  0.64975307603E+03  0.40000000000E+03 0. -1.
<mgrwt>
<rscale>  2 0.44401660E+03</rscale>
<asrwt>0</asrwt>
<pdfrwt beam="1">  1       21 0.11616462E+00 0.44401660E+03</pdfrwt>
<pdfrwt beam="2">  1       21 0.52778024E-01 0.44401660E+03</pdfrwt>
<totfact> 0.16737600E+03</totfact>
</mgrwt>
</event>
<event>
 4    1  0.4991790E-002  0.5003957E+03  0.7818608E-02  0.1013676E+00
         21   -1    0    0  503  502  0.00000000000E+00  0.00000000000E+00  0.12545658351E+04  0.12545658351E+04  0.00000000000E+00 0. -1.
         21   -1    0    0  501  503 -0.00000000000E+00 -0.00000000000E+00 -0.21336288986E+03  0.21336288986E+03  0.00000000000E+00 0. -1.
    9000005    1    1    2  501    0 -0.25626283829E+02  0.29956487709E+03  0.33410723074E+03  0.60168385689E+03  0.40000000000E+03 0. -1.
   -9000005    1    1    2    0  502  0.25626283829E+02 -0.29956487709E+03  0.70709571453E+03  0.86624486810E+03  0.40000000000E+03 0. -1.
<mgrwt>
<rscale>  2 0.50039567E+03</rscale>
<asrwt>0</asrwt>
<pdfrwt beam="1">  1       21 0.19301012E+00 0.50039567E+03</pdfrwt>
<pdfrwt beam="2">  1       21 0.32825061E-01 0.50039567E+03</pdfrwt>
<totfact> 0.10917875E+03</totfact>
</mgrwt>
</event>
<event>
 4    1  0.4991790E-002  0.5045207E+03  0.7818608E-02  0.1012606E+00
         21   -1    0    0  501  502  0.00000000000E+00  0.00000000000E+00  0.46894169308E+03  0.46894169308E+03  0.00000000000E+00 0.  1.
         21   -1    0    0  502  503 -0.00000000000E+00 -0.00000000000E+00 -0.72627204677E+03  0.72627204677E+03  0.00000000000E+00 0. -1.
    9000005    1    1    2  501    0 -0.89747587730E+02  0.29408596827E+03  0.17170152815E+03  0.53293770837E+03  0.40000000000E+03 0.  1.
   -9000005    1    1    2    0  503  0.89747587730E+02 -0.29408596827E+03 -0.42903188184E+03  0.66227603148E+03  0.40000000000E+03 0. -1.
<mgrwt>
<rscale>  2 0.50452075E+03</rscale>
<asrwt>0</asrwt>
<pdfrwt beam="1">  1       21 0.72144877E-01 0.50452075E+03</pdfrwt>
<pdfrwt beam="2">  1       21 0.11173416E+00 0.50452075E+03</pdfrwt>
<totfact> 0.90450717E+02</totfact>
</mgrwt>
</event>
<event>
 4    1  0.4991790E-002  0.5449961E+03  0.7818608E-02  0.1002659E+00
         21   -1    0    0  501  502  0.00000000000E+00  0.00000000000E+00  0.97480045357E+03  0.97480045357E+03  0.00000000000E+00 0.  1.
         21   -1    0    0  502  503 -0.00000000000E+00 -0.00000000000E+00 -0.32103682067E+03  0.32103682067E+03  0.00000000000E+00 0. -1.
    9000005    1    1    2  501    0  0.28232169549E+03 -0.23940600356E+03  0.18071815349E+03  0.57417752070E+03  0.40000000000E+03 0.  1.
   -9000005    1    1    2    0  503 -0.28232169549E+03  0.23940600356E+03  0.47304547942E+03  0.72165975354E+03  0.40000000000E+03 0.  1.
<mgrwt>
<rscale>  2 0.54499612E+03</rscale>
<asrwt>0</asrwt>
<pdfrwt beam="1">  1       21 0.14996930E+00 0.54499612E+03</pdfrwt>
<pdfrwt beam="2">  1       21 0.49390281E-01 0.54499612E+03</pdfrwt>
<totfact> 0.95150107E+02</totfact>
</mgrwt>
</event>
<event>
 4    1  0.4991790E-002  0.4685373E+03  0.7818608E-02  0.1022334E+00
         21   -1    0    0  503  502  0.00000000000E+00  0.00000000000E+00  0.17105691383E+03  0.17105691383E+03  0.00000000000E+00 0.  1.
         21   -1    0    0  501  503 -0.00000000000E+00 -0.00000000000E+00 -0.13454745500E+04  0.13454745500E+04  0.00000000000E+00 0.  1.
    9000005    1    1    2  501    0  0.12796609358E+03  0.20773024790E+03 -0.75013430274E+03  0.88443691077E+03  0.40000000000E+03 0.  1.
   -9000005    1    1    2    0  502 -0.12796609358E+03 -0.20773024790E+03 -0.42428333348E+03  0.63209455310E+03  0.40000000000E+03 0.  1.
<mgrwt>
<rscale>  2 0.46853727E+03</rscale>
<asrwt>0</asrwt>
<pdfrwt beam="1">  1       21 0.26316448E-01 0.46853727E+03</pdfrwt>
<pdfrwt beam="2">  1       21 0.20699608E+00 0.46853727E+03</pdfrwt>
<totfact> 0.13831587E+03</totfact>
</mgrwt>
</event>
<event>
 4    1  0.4991790E-002  0.4611108E+03  0.7818608E-02  0.1024460E+00
         21   -1    0    0  503  502  0.00000000000E+00  0.00000000000E+00  0.43766823651E+03  0.43766823651E+03  0.00000000000E+00 0.  1.
         21   -1    0    0  501  503 -0.00000000000E+00 -0.00000000000E+00 -0.48655781234E+03  0.48655781234E+03  0.00000000000E+00 0.  1.
    9000005    1    1    2  501    0 -0.22908401850E+03  0.11987275730E+02 -0.63164408614E+01  0.46115407375E+03  0.40000000000E+03 0.  1.
   -9000005    1    1    2    0  502  0.22908401850E+03 -0.11987275730E+02 -0.42573134969E+02  0.46307197511E+03  0.40000000000E+03 0.  1.
<mgrwt>
<rscale>  2 0.46111081E+03</rscale>
<asrwt>0</asrwt>
<pdfrwt beam="1">  1       21 0.67333575E-01 0.46111081E+03</pdfrwt>
<pdfrwt beam="2">  1       21 0.74855048E-01 0.46111081E+03</pdfrwt>
<totfact> 0.27912551E+03</totfact>
</mgrwt>
</event>
<event>
 4    1  0.4991790E-002  0.4588133E+03  0.7818608E-02  0.1025126E+00
         21   -1    0    0  501  502  0.00000000000E+00  0.00000000000E+00  0.95428178803E+03  0.95428178803E+03  0.00000000000E+00 0.  1.
         21   -1    0    0  502  503 -0.00000000000E+00 -0.00000000000E+00 -0.38676962212E+03  0.38676962212E+03  0.00000000000E+00 0.  1.
    9000005    1    1    2  501    0  0.21641652311E+03  0.60609793561E+02  0.72326914318E+03  0.85652081821E+03  0.40000000000E+03 0.  1.
   -9000005    1    1    2    0  503 -0.21641652311E+03 -0.60609793561E+02 -0.15575697728E+03  0.48453059194E+03  0.40000000000E+03 0.  1.
<mgrwt>
<rscale>  2 0.45881332E+03</rscale>
<asrwt>0</asrwt>
<pdfrwt beam="1">  1       21 0.14681258E+00 0.45881332E+03</pdfrwt>
<pdfrwt beam="2">  1       21 0.59503019E-01 0.45881332E+03</pdfrwt>
<totfact> 0.69730112E+02</totfact>
</mgrwt>
</event>
<event>
 4    1  0.4991790E-002  0.5852637E+03  0.7818608E-02  0.9936460E-01
         21   -1    0    0  503  502  0.00000000000E+00  0.00000000000E+00  0.98267339317E+03  0.98267339317E+03  0.00000000000E+00 0. -1.
         21   -1    0    0  501  503 -0.00000000000E+00 -0.00000000000E+00 -0.38950070979E+03  0.38950070979E+03  0.00000000000E+00 0. -1.
    9000005    1    1    2  501    0 -0.14777262173E+03 -0.40087012499E+03  0.74187367164E+02  0.58994692158E+03  0.40000000000E+03 0. -1.
   -9000005    1    1    2    0  502  0.14777262173E+03  0.40087012499E+03  0.51898531621E+03  0.78222718137E+03  0.40000000000E+03 0. -1.
<mgrwt>
<rscale>  2 0.58526371E+03</rscale>
<asrwt>0</asrwt>
<pdfrwt beam="1">  1       21 0.15118052E+00 0.58526371E+03</pdfrwt>
<pdfrwt beam="2">  1       21 0.59923187E-01 0.58526371E+03</pdfrwt>
<totfact> 0.60375175E+02</totfact>
</mgrwt>
</event>
<event>
 4    1  0.4991790E-002  0.4626425E+03  0.7818608E-02  0.1024018E+00
         21   -1    0    0  501  502  0.00000000000E+00  0.00000000000E+00  0.44403920282E+03  0.44403920282E+03  0.00000000000E+00 0.  1.
         21   -1    0    0  502  503 -0.00000000000E+00 -0.00000000000E+00 -0.53304353986E+03  0.53304353986E+03  0.00000000000E+00 0.  1.
    9000005    1    1    2  501    0  0.23188284744E+03  0.16384191150E+02  0.10663909891E+03  0.47477362403E+03  0.40000000000E+03 0.  1.
   -9000005    1    1    2    0  503 -0.23188284744E+03 -0.16384191150E+02 -0.19564343594E+03  0.50230911865E+03  0.40000000000E+03 0.  1.
<mgrwt>
<rscale>  2 0.46264251E+03</rscale>
<asrwt>0</asrwt>
<pdfrwt beam="1">  1       21 0.68313724E-01 0.46264251E+03</pdfrwt>
<pdfrwt beam="2">  1       21 0.82006698E-01 0.46264251E+03</pdfrwt>
<totfact> 0.21891230E+03</totfact>
</mgrwt>
</event>
<event>
 4    1  0.4991790E-002  0.5773170E+03  0.7818608E-02  0.9953617E-01
         21   -1    0    0  501  502  0.00000000000E+00  0.00000000000E+00  0.53420978440E+03  0.53420978440E+03  0.00000000000E+00 0. -1.
         21   -1    0    0  502  503 -0.00000000000E+00 -0.00000000000E+00 -0.66263867292E+03  0.66263867292E+03  0.00000000000E+00 0. -1.
    9000005    1    1    2  501    0  0.38673194359E+03 -0.15405609264E+03 -0.20890112333E+03  0.61394996148E+03  0.40000000000E+03 0. -1.
   -9000005    1    1    2    0  503 -0.38673194359E+03  0.15405609264E+03  0.80472234818E+02  0.58289849584E+03  0.40000000000E+03 0. -1.
<mgrwt>
<rscale>  2 0.57731696E+03</rscale>
<asrwt>0</asrwt>
<pdfrwt beam="1">  1       21 0.82186121E-01 0.57731696E+03</pdfrwt>
<pdfrwt beam="2">  1       21 0.10194441E+00 0.57731696E+03</pdfrwt>
<totfact> 0.82021202E+02</totfact>
</mgrwt>
</event>
<event>
 4    1  0.4991790E-002  0.4318557E+03  0.7818608E-02  0.1033275E+00
         21   -1    0    0  503  502  0.00000000000E+00  0.00000000000E+00  0.14045613491E+03  0.14045613491E+03  0.00000000000E+00 0.  1.
         21   -1    0    0  501  503 -0.00000000000E+00 -0.00000000000E+00 -0.21504362512E+04  0.21504362512E+04  0.00000000000E+00 0.  1.
    9000005    1    1    2  501    0 -0.15971506809E+03 -0.31471592761E+02 -0.17134448113E+04  0.17670292826E+04  0.40000000000E+03 0.  1.
   -9000005    1    1    2    0  502  0.15971506809E+03  0.31471592761E+02 -0.29653530498E+03  0.52386310351E+03  0.40000000000E+03 0.  1.
<mgrwt>
<rscale>  2 0.43185572E+03</rscale>
<asrwt>0</asrwt>
<pdfrwt beam="1">  1       21 0.21608636E-01 0.43185572E+03</pdfrwt>
<pdfrwt beam="2">  1       21 0.33083635E+00 0.43185572E+03</pdfrwt>
<totfact> 0.35863384E+02</totfact>
</mgrwt>
</event>
<event>
 4    1  0.4991790E-002  0.4045807E+03  0.7818608E-02  0.1042205E+00
         21   -1    0    0  501  502  0.00000000000E+00  0.00000000000E+00  0.39254091591E+03  0.39254091591E+03  0.00000000000E+00 0.  1.
         21   -1    0    0  502  503 -0.00000000000E+00 -0.00000000000E+00 -0.71577307648E+03  0.71577307648E+03  0.00000000000E+00 0.  1.
    9000005    1    1    2  501    0 -0.55754665033E+02 -0.24020497879E+02  0.19641709272E+03  0.44973908136E+03  0.40000000000E+03 0.  1.
   -9000005    1    1    2    0  503  0.55754665033E+02  0.24020497879E+02 -0.51964925329E+03  0.65857491103E+03  0.40000000000E+03 0.  1.
<mgrwt>
<rscale>  2 0.40458073E+03</rscale>
<asrwt>0</asrwt>
<pdfrwt beam="1">  1       21 0.60390911E-01 0.40458073E+03</pdfrwt>
<pdfrwt beam="2">  1       21 0.11011893E+00 0.40458073E+03</pdfrwt>
<totfact> 0.14517148E+03</totfact>
</mgrwt>
</event>
<event>
 4    1  0.4991790E-002  0.4203081E+03  0.7818608E-02  0.1036966E+00
         21   -1    0    0  501  502  0.00000000000E+00  0.00000000000E+00  0.48346755885E+03  0.48346755885E+03  0.00000000000E+00 0.  1.
         21   -1    0    0  502  503 -0.00000000000E+00 -0.00000000000E+00 -0.17752465550E+04  0.17752465550E+04  0.00000000000E+00 0.  1.
    9000005    1    1    2  501    0  0.48998063234E+01  0.12897638581E+03  0.36055051742E+03  0.55376492468E+03  0.40000000000E+03 0.  1.
   -9000005    1    1    2    0  503 -0.48998063234E+01 -0.12897638581E+03 -0.16523295135E+04  0.17049491891E+04  0.40000000000E+03 0.  1.
<mgrwt>
<rscale>  2 0.42030812E+03</rscale>
<asrwt>0</asrwt>
<pdfrwt beam="1">  1       21 0.74379624E-01 0.42030812E+03</pdfrwt>
<pdfrwt beam="2">  1       21 0.27311486E+00 0.42030812E+03</pdfrwt>
<totfact> 0.62167601E+01</totfact>
</mgrwt>
</event>
<event>
 4    1  0.4991790E-002  0.5150582E+03  0.7818608E-02  0.1009922E+00
         21   -1    0    0  503  502  0.00000000000E+00  0.00000000000E+00  0.54010258042E+03  0.54010258042E+03  0.00000000000E+00 0.  1.
         21   -1    0    0  501  503 -0.00000000000E+00 -0.00000000000E+00 -0.58601258653E+03  0.58601258653E+03  0.00000000000E+00 0.  1.
    9000005    1    1    2  501    0 -0.47802288077E+02 -0.32093594201E+03  0.20355603138E+03  0.55382307241E+03  0.40000000000E+03 0.  1.
   -9000005    1    1    2    0  502  0.47802288077E+02  0.32093594201E+03 -0.24946603748E+03  0.57229209454E+03  0.40000000000E+03 0.  1.
<mgrwt>
<rscale>  2 0.51505819E+03</rscale>
<asrwt>0</asrwt>
<pdfrwt beam="1">  1       21 0.83092705E-01 0.51505819E+03</pdfrwt>
<pdfrwt beam="2">  1       21 0.90155782E-01 0.51505819E+03</pdfrwt>
<totfact> 0.10985979E+03</totfact>
</mgrwt>
</event>
<event>
 4    1  0.4991790E-002  0.4591692E+03  0.7818608E-02  0.1025022E+00
         21   -1    0    0  501  502  0.00000000000E+00  0.00000000000E+00  0.97176506505E+03  0.97176506505E+03  0.00000000000E+00 0.  1.
         21   -1    0    0  502  503 -0.00000000000E+00 -0.00000000000E+00 -0.36435546412E+03  0.36435546412E+03  0.00000000000E+00 0.  1.
    9000005    1    1    2  501    0  0.22283266664E+03 -0.34379435763E+02  0.72860969168E+03  0.86122495652E+03  0.40000000000E+03 0.  1.
   -9000005    1    1    2    0  503 -0.22283266664E+03  0.34379435763E+02 -0.12120009076E+03  0.47489557265E+03  0.40000000000E+03 0.  1.
<mgrwt>
<rscale>  2 0.45916919E+03</rscale>
<asrwt>0</asrwt>
<pdfrwt beam="1">  1       21 0.14950232E+00 0.45916919E+03</pdfrwt>
<pdfrwt beam="2">  1       21 0.56054687E-01 0.45916919E+03</pdfrwt>
<totfact> 0.75593312E+02</totfact>
</mgrwt>
</event>
<event>
 4    1  0.4991790E-002  0.6546737E+03  0.7818608E-02  0.9798049E-01
         21   -1    0    0  501  502  0.00000000000E+00  0.00000000000E+00  0.49093867088E+03  0.49093867088E+03  0.00000000000E+00 0.  1.
         21   -1    0    0  502  503 -0.00000000000E+00 -0.00000000000E+00 -0.91722301807E+03  0.91722301807E+03  0.00000000000E+00 0.  1.
    9000005    1    1    2  501    0  0.15525200180E+03  0.49446383857E+03 -0.58571501715E+02  0.65728859151E+03  0.40000000000E+03 0.  1.
   -9000005    1    1    2    0  503 -0.15525200180E+03 -0.49446383857E+03 -0.36771284548E+03  0.75087309743E+03  0.40000000000E+03 0.  1.
<mgrwt>
<rscale>  2 0.65467371E+03</rscale>
<asrwt>0</asrwt>
<pdfrwt beam="1">  1       21 0.75529027E-01 0.65467371E+03</pdfrwt>
<pdfrwt beam="2">  1       21 0.14111123E+00 0.65467371E+03</pdfrwt>
<totfact> 0.42282845E+02</totfact>
</mgrwt>
</event>
<event>
 4    1  0.4991790E-002  0.4476557E+03  0.7818608E-02  0.1028423E+00
         21   -1    0    0  501  502  0.00000000000E+00  0.00000000000E+00  0.18834919118E+04  0.18834919118E+04  0.00000000000E+00 0.  1.
         21   -1    0    0  502  503 -0.00000000000E+00 -0.00000000000E+00 -0.23382190181E+03  0.23382190181E+03  0.00000000000E+00 0.  1.
    9000005    1    1    2  501    0  0.68502492177E+02  0.18895257342E+03  0.16063580804E+04  0.16675676745E+04  0.40000000000E+03 0.  1.
   -9000005    1    1    2    0  503 -0.68502492177E+02 -0.18895257342E+03  0.43311929600E+02  0.44974613915E+03  0.40000000000E+03 0.  1.
<mgrwt>
<rscale>  2 0.44765575E+03</rscale>
<asrwt>0</asrwt>
<pdfrwt beam="1">  1       21 0.28976798E+00 0.44765575E+03</pdfrwt>
<pdfrwt beam="2">  1       21 0.35972602E-01 0.44765575E+03</pdfrwt>
<totfact> 0.22991659E+02</totfact>
</mgrwt>
</event>
<event>
 4    1  0.4991790E-002  0.4257931E+03  0.7818608E-02  0.1035197E+00
         21   -1    0    0  503  502  0.00000000000E+00  0.00000000000E+00  0.24619996150E+03  0.24619996150E+03  0.00000000000E+00 0. -1.
         21   -1    0    0  501  503 -0.00000000000E+00 -0.00000000000E+00 -0.80193830590E+03  0.80193830590E+03  0.00000000000E+00 0.  1.
    9000005    1    1    2  501    0 -0.56790590429E+02 -0.13444163379E+03 -0.42769671160E+03  0.60350990147E+03  0.40000000000E+03 0. -1.
   -9000005    1    1    2    0  502  0.56790590429E+02  0.13444163379E+03 -0.12804163280E+03  0.44462836593E+03  0.40000000000E+03 0. -1.
<mgrwt>
<rscale>  2 0.42579305E+03</rscale>
<asrwt>0</asrwt>
<pdfrwt beam="1">  1       21 0.37876916E-01 0.42579305E+03</pdfrwt>
<pdfrwt beam="2">  1       21 0.12337513E+00 0.42579305E+03</pdfrwt>
<totfact> 0.28963674E+03</totfact>
</mgrwt>
</event>
<event>
 4    1  0.4991790E-002  0.4727458E+03  0.7818608E-02  0.1021148E+00
         21   -1    0    0  503  502  0.00000000000E+00  0.00000000000E+00  0.58621107981E+03  0.58621107981E+03  0.00000000000E+00 0.  1.
         21   -1    0    0  501  503 -0.00000000000E+00 -0.00000000000E+00 -0.73686421208E+03  0.73686421208E+03  0.00000000000E+00 0. -1.
    9000005    1    1    2  501    0  0.13614438813E+03  0.21202190676E+03 -0.53490004625E+03  0.71386738463E+03  0.40000000000E+03 0. -1.
   -9000005    1    1    2    0  502 -0.13614438813E+03 -0.21202190676E+03  0.38424691398E+03  0.60920790726E+03  0.40000000000E+03 0.  1.
<mgrwt>
<rscale>  2 0.47274579E+03</rscale>
<asrwt>0</asrwt>
<pdfrwt beam="1">  1       21 0.90186320E-01 0.47274579E+03</pdfrwt>
<pdfrwt beam="2">  1       21 0.11336372E+00 0.47274579E+03</pdfrwt>
<totfact> 0.52644638E+02</totfact>
</mgrwt>
</event>
<event>
 4    1  0.4991790E-002  0.4049510E+03  0.7818608E-02  0.1042079E+00
         21   -1    0    0  501  502  0.00000000000E+00  0.00000000000E+00  0.14138488147E+03  0.14138488147E+03  0.00000000000E+00 0. -1.
         21   -1    0    0  502  503 -0.00000000000E+00 -0.00000000000E+00 -0.20006221943E+04  0.20006221943E+04  0.00000000000E+00 0. -1.
    9000005    1    1    2  501    0 -0.28136105989E+02 -0.56512297783E+02 -0.23531814059E+03  0.46835873810E+03  0.40000000000E+03 0. -1.
   -9000005    1    1    2    0  503  0.28136105989E+02  0.56512297783E+02 -0.16239191722E+04  0.16736483376E+04  0.40000000000E+03 0. -1.
<mgrwt>
<rscale>  2 0.40495096E+03</rscale>
<asrwt>0</asrwt>
<pdfrwt beam="1">  1       21 0.21751522E-01 0.40495096E+03</pdfrwt>
<pdfrwt beam="2">  1       21 0.30778801E+00 0.40495096E+03</pdfrwt>
<totfact> 0.49577715E+02</totfact>
</mgrwt>
</event>
<event>
 4    1  0.4991790E-002  0.8693028E+03  0.7818608E-02  0.9464789E-01
         21   -1    0    0  501  502  0.00000000000E+00  0.00000000000E+00  0.18271383767E+04  0.18271383767E+04  0.00000000000E+00 0.  1.
         21   -1    0    0  502  503 -0.00000000000E+00 -0.00000000000E+00 -0.45647902208E+03  0.45647902208E+03  0.00000000000E+00 0. -1.
    9000005    1    1    2  501    0 -0.75531975526E+03  0.15868041768E+03  0.10353171936E+04  0.13518761404E+04  0.40000000000E+03 0.  1.
   -9000005    1    1    2    0  503  0.75531975526E+03 -0.15868041768E+03  0.33534216105E+03  0.93174125841E+03  0.40000000000E+03 0. -1.
<mgrwt>
<rscale>  2 0.86930283E+03</rscale>
<asrwt>0</asrwt>
<pdfrwt beam="1">  1       21 0.28109821E+00 0.86930283E+03</pdfrwt>
<pdfrwt beam="2">  1       21 0.70227543E-01 0.86930283E+03</pdfrwt>
<totfact> 0.51461915E+01</totfact>
</mgrwt>
</event>
<event>
 4    1  0.4991790E-002  0.4289033E+03  0.7818608E-02  0.1034207E+00
         21   -1    0    0  501  502  0.00000000000E+00  0.00000000000E+00  0.16253950175E+03  0.16253950175E+03  0.00000000000E+00 0.  1.
         21   -1    0    0  502  503 -0.00000000000E+00 -0.00000000000E+00 -0.11424489287E+04  0.11424489287E+04  0.00000000000E+00 0.  1.
    9000005    1    1    2  501    0 -0.10869105731E+03 -0.11020102672E+03 -0.42688265833E+03  0.60513371763E+03  0.40000000000E+03 0.  1.
   -9000005    1    1    2    0  503  0.10869105731E+03  0.11020102672E+03 -0.55302676858E+03  0.69985471278E+03  0.40000000000E+03 0.  1.
<mgrwt>
<rscale>  2 0.42890327E+03</rscale>
<asrwt>0</asrwt>
<pdfrwt beam="1">  1       21 0.25006078E-01 0.42890327E+03</pdfrwt>
<pdfrwt beam="2">  1       21 0.17576137E+00 0.42890327E+03</pdfrwt>
<totfact> 0.25397287E+03</totfact>
</mgrwt>
</event>
<event>
 4    1  0.4991790E-002  0.4355365E+03  0.7818608E-02  0.1032125E+00
         21   -1    0    0  501  502  0.00000000000E+00  0.00000000000E+00  0.21875972557E+04  0.21875972557E+04  0.00000000000E+00 0. -1.
         21   -1    0    0  502  503 -0.00000000000E+00 -0.00000000000E+00 -0.13376928076E+03  0.13376928076E+03  0.00000000000E+00 0. -1.
    9000005    1    1    2  501    0 -0.64104755705E+02 -0.15994578306E+03  0.17153229835E+04  0.17697528107E+04  0.40000000000E+03 0. -1.
   -9000005    1    1    2    0  503  0.64104755705E+02  0.15994578306E+03  0.33850499141E+03  0.55161372574E+03  0.40000000000E+03 0. -1.
<mgrwt>
<rscale>  2 0.43553653E+03</rscale>
<asrwt>0</asrwt>
<pdfrwt beam="1">  1       21 0.33655340E+00 0.43553653E+03</pdfrwt>
<pdfrwt beam="2">  1       21 0.20579891E-01 0.43553653E+03</pdfrwt>
<totfact> 0.36264663E+02</totfact>
</mgrwt>
</event>
<event>
 4    1  0.4991790E-002  0.5253698E+03  0.7818608E-02  0.1007361E+00
         21   -1    0    0  503  502  0.00000000000E+00  0.00000000000E+00  0.19531279419E+03  0.19531279419E+03  0.00000000000E+00 0.  1.
         21   -1    0    0  501  503 -0.00000000000E+00 -0.00000000000E+00 -0.14414442755E+04  0.14414442755E+04  0.00000000000E+00 0.  1.
    9000005    1    1    2  501    0 -0.40614836482E+02 -0.33817727896E+03 -0.73764948000E+03  0.90561591875E+03  0.40000000000E+03 0.  1.
   -9000005    1    1    2    0  502  0.40614836482E+02  0.33817727896E+03 -0.50848200134E+03  0.73114115096E+03  0.40000000000E+03 0.  1.
<mgrwt>
<rscale>  2 0.52536981E+03</rscale>
<asrwt>0</asrwt>
<pdfrwt beam="1">  1       21 0.30048123E-01 0.52536981E+03</pdfrwt>
<pdfrwt beam="2">  1       21 0.22176065E+00 0.52536981E+03</pdfrwt>
<totfact> 0.83341127E+02</totfact>
</mgrwt>
</event>
<event>
 4    1  0.4991790E-002  0.4525660E+03  0.7818608E-02  0.1026960E+00
         21   -1    0    0  503  502  0.00000000000E+00  0.00000000000E+00  0.49350091060E+03  0.49350091060E+03  0.00000000000E+00 0.  1.
         21   -1    0    0  501  503 -0.00000000000E+00 -0.00000000000E+00 -0.42132691730E+03  0.42132691730E+03  0.00000000000E+00 0. -1.
    9000005    1    1    2  501    0  0.60499571209E+02 -0.20286895165E+03 -0.19847618635E+02  0.45300103491E+03  0.40000000000E+03 0. -1.
   -9000005    1    1    2    0  502 -0.60499571209E+02  0.20286895165E+03  0.92021611939E+02  0.46182679299E+03  0.40000000000E+03 0.  1.
<mgrwt>
<rscale>  2 0.45256603E+03</rscale>
<asrwt>0</asrwt>
<pdfrwt beam="1">  1       21 0.75923217E-01 0.45256603E+03</pdfrwt>
<pdfrwt beam="2">  1       21 0.64819526E-01 0.45256603E+03</pdfrwt>
<totfact> 0.29504540E+03</totfact>
</mgrwt>
</event>
<event>
 4    1  0.4991790E-002  0.4616190E+03  0.7818608E-02  0.1024313E+00
         21   -1    0    0  501  502  0.00000000000E+00  0.00000000000E+00  0.11238702586E+04  0.11238702586E+04  0.00000000000E+00 0. -1.
         21   -1    0    0  502  503 -0.00000000000E+00 -0.00000000000E+00 -0.22248901058E+03  0.22248901058E+03  0.00000000000E+00 0. -1.
    9000005    1    1    2  501    0  0.13906155202E+03  0.18372270202E+03  0.70949094458E+03  0.84644524155E+03  0.40000000000E+03 0. -1.
   -9000005    1    1    2    0  503 -0.13906155202E+03 -0.18372270202E+03  0.19189030345E+03  0.49991402766E+03  0.40000000000E+03 0. -1.
<mgrwt>
<rscale>  2 0.46161905E+03</rscale>
<asrwt>0</asrwt>
<pdfrwt beam="1">  1       21 0.17290311E+00 0.46161905E+03</pdfrwt>
<pdfrwt beam="2">  1       21 0.34229079E-01 0.46161905E+03</pdfrwt>
<totfact> 0.14102286E+03</totfact>
</mgrwt>
</event>
<event>
 4    1  0.4991790E-002  0.7201586E+03  0.7818608E-02  0.9683366E-01
         21   -1    0    0  503  502  0.00000000000E+00  0.00000000000E+00  0.52740215764E+03  0.52740215764E+03  0.00000000000E+00 0.  1.
         21   -1    0    0  501  503 -0.00000000000E+00 -0.00000000000E+00 -0.99024081366E+03  0.99024081366E+03  0.00000000000E+00 0.  1.
    9000005    1    1    2  501    0  0.52130086973E+03  0.29474363906E+03 -0.29465410609E+03  0.77810632422E+03  0.40000000000E+03 0.  1.
   -9000005    1    1    2    0  502 -0.52130086973E+03 -0.29474363906E+03 -0.16818454993E+03  0.73953664709E+03  0.40000000000E+03 0.  1.
<mgrwt>
<rscale>  2 0.72015860E+03</rscale>
<asrwt>0</asrwt>
<pdfrwt beam="1">  1       21 0.81138795E-01 0.72015860E+03</pdfrwt>
<pdfrwt beam="2">  1       21 0.15234474E+00 0.72015860E+03</pdfrwt>
<totfact> 0.28460377E+02</totfact>
</mgrwt>
</event>
<event>
 4    1  0.4991790E-002  0.4100357E+03  0.7818608E-02  0.1040359E+00
         21   -1    0    0  503  502  0.00000000000E+00  0.00000000000E+00  0.10909079068E+04  0.10909079068E+04  0.00000000000E+00 0.  1.
         21   -1    0    0  501  503 -0.00000000000E+00 -0.00000000000E+00 -0.16830784547E+03  0.16830784547E+03  0.00000000000E+00 0. -1.
    9000005    1    1    2  501    0 -0.13528204821E+02  0.89141833771E+02  0.27849147927E+03  0.49566801680E+03  0.40000000000E+03 0. -1.
   -9000005    1    1    2    0  502  0.13528204821E+02 -0.89141833771E+02  0.64410858206E+03  0.76354773547E+03  0.40000000000E+03 0.  1.
<mgrwt>
<rscale>  2 0.41003570E+03</rscale>
<asrwt>0</asrwt>
<pdfrwt beam="1">  1       21 0.16783198E+00 0.41003570E+03</pdfrwt>
<pdfrwt beam="2">  1       21 0.25893515E-01 0.41003570E+03</pdfrwt>
<totfact> 0.27287959E+03</totfact>
</mgrwt>
</event>
<event>
 4    1  0.4991790E-002  0.4334087E+03  0.7818608E-02  0.1032789E+00
         21   -1    0    0  503  502  0.00000000000E+00  0.00000000000E+00  0.54648996591E+03  0.54648996591E+03  0.00000000000E+00 0. -1.
         21   -1    0    0  501  503 -0.00000000000E+00 -0.00000000000E+00 -0.42751824289E+03  0.42751824289E+03  0.00000000000E+00 0. -1.
    9000005    1    1    2  501    0 -0.14870537711E+03  0.75695593889E+02  0.27508934370E+03  0.51333932163E+03  0.40000000000E+03 0. -1.
   -9000005    1    1    2    0  502  0.14870537711E+03 -0.75695593889E+02 -0.15611762069E+03  0.46066888717E+03  0.40000000000E+03 0. -1.
<mgrwt>
<rscale>  2 0.43340871E+03</rscale>
<asrwt>0</asrwt>
<pdfrwt beam="1">  1       21 0.84075380E-01 0.43340871E+03</pdfrwt>
<pdfrwt beam="2">  1       21 0.65772037E-01 0.43340871E+03</pdfrwt>
<totfact> 0.22729189E+03</totfact>
</mgrwt>
</event>
<event>
 4    1  0.4991790E-002  0.4146660E+03  0.7818608E-02  0.1038816E+00
         21   -1    0    0  503  502  0.00000000000E+00  0.00000000000E+00  0.89456046410E+03  0.89456046410E+03  0.00000000000E+00 0. -1.
         21   -1    0    0  501  503 -0.00000000000E+00 -0.00000000000E+00 -0.19342704162E+03  0.19342704162E+03  0.00000000000E+00 0. -1.
    9000005    1    1    2  501    0 -0.18357836511E+01  0.10929114925E+03  0.30750444035E+03  0.51624306895E+03  0.40000000000E+03 0. -1.
   -9000005    1    1    2    0  502  0.18357836511E+01 -0.10929114925E+03  0.39362898213E+03  0.57174443677E+03  0.40000000000E+03 0. -1.
<mgrwt>
<rscale>  2 0.41466604E+03</rscale>
<asrwt>0</asrwt>
<pdfrwt beam="1">  1       21 0.13762468E+00 0.41466604E+03</pdfrwt>
<pdfrwt beam="2">  1       21 0.29758007E-01 0.41466604E+03</pdfrwt>
<totfact> 0.35594309E+03</totfact>
</mgrwt>
</event>
<event>
 4    1  0.4991790E-002  0.4239670E+03  0.7818608E-02  0.1035783E+00
         21   -1    0    0  501  502  0.00000000000E+00  0.00000000000E+00  0.12178068853E+03  0.12178068853E+03  0.00000000000E+00 0.  1.
         21   -1    0    0  502  503 -0.00000000000E+00 -0.00000000000E+00 -0.17471114506E+04  0.17471114506E+04  0.00000000000E+00 0.  1.
    9000005    1    1    2  501    0 -0.13903745923E+03 -0.20410269447E+02 -0.44456195982E+03  0.61431533457E+03  0.40000000000E+03 0.  1.
   -9000005    1    1    2    0  503  0.13903745923E+03  0.20410269447E+02 -0.11807688023E+04  0.12545768046E+04  0.40000000000E+03 0.  1.
<mgrwt>
<rscale>  2 0.42396697E+03</rscale>
<asrwt>0</asrwt>
<pdfrwt beam="1">  1       21 0.18735491E-01 0.42396697E+03</pdfrwt>
<pdfrwt beam="2">  1       21 0.26878637E+00 0.42396697E+03</pdfrwt>
<totfact> 0.11162442E+03</totfact>
</mgrwt>
</event>
<event>
 4    1  0.4991790E-002  0.8218409E+03  0.7818608E-02  0.9528930E-01
         21   -1    0    0  503  502  0.00000000000E+00  0.00000000000E+00  0.87242223692E+03  0.87242223692E+03  0.00000000000E+00 0.  1.
         21   -1    0    0  501  503 -0.00000000000E+00 -0.00000000000E+00 -0.77428053165E+03  0.77428053165E+03  0.00000000000E+00 0.  1.
    9000005    1    1    2  501    0  0.71759260730E+03  0.21986014537E+02  0.57862501497E+02  0.82387535705E+03  0.40000000000E+03 0.  1.
   -9000005    1    1    2    0  502 -0.71759260730E+03 -0.21986014537E+02  0.40279203771E+02  0.82282741151E+03  0.40000000000E+03 0.  1.
<mgrwt>
<rscale>  2 0.82184094E+03</rscale>
<asrwt>0</asrwt>
<pdfrwt beam="1">  1       21 0.13421881E+00 0.82184094E+03</pdfrwt>
<pdfrwt beam="2">  1       21 0.11912008E+00 0.82184094E+03</pdfrwt>
<totfact> 0.15225663E+02</totfact>
</mgrwt>
</event>
<event>
 4    1  0.4991790E-002  0.4200937E+03  0.7818608E-02  0.1037036E+00
         21   -1    0    0  501  502  0.00000000000E+00  0.00000000000E+00  0.44370401701E+03  0.44370401701E+03  0.00000000000E+00 0. -1.
         21   -1    0    0  502  503 -0.00000000000E+00 -0.00000000000E+00 -0.40081934431E+03  0.40081934431E+03  0.00000000000E+00 0. -1.
    9000005    1    1    2  501    0  0.30663715796E+02 -0.12465324916E+03 -0.15571037007E+02  0.42038215136E+03  0.40000000000E+03 0. -1.
   -9000005    1    1    2    0  503 -0.30663715796E+02  0.12465324916E+03  0.58455709704E+02  0.42414120996E+03  0.40000000000E+03 0. -1.
<mgrwt>
<rscale>  2 0.42009368E+03</rscale>
<asrwt>0</asrwt>
<pdfrwt beam="1">  1       21 0.68262156E-01 0.42009368E+03</pdfrwt>
<pdfrwt beam="2">  1       21 0.61664514E-01 0.42009368E+03</pdfrwt>
<totfact> 0.42393086E+03</totfact>
</mgrwt>
</event>
<event>
 4    1  0.4991790E-002  0.5251014E+03  0.7818608E-02  0.1007427E+00
         21   -1    0    0  501  502  0.00000000000E+00  0.00000000000E+00  0.66362670981E+03  0.66362670981E+03  0.00000000000E+00 0.  1.
         21   -1    0    0  502  503 -0.00000000000E+00 -0.00000000000E+00 -0.63657582160E+03  0.63657582160E+03  0.00000000000E+00 0.  1.
    9000005    1    1    2  501    0 -0.50989340965E+02 -0.33635028647E+03 -0.36959441252E+03  0.64213040566E+03  0.40000000000E+03 0.  1.
   -9000005    1    1    2    0  503  0.50989340965E+02  0.33635028647E+03  0.39664530073E+03  0.65807212575E+03  0.40000000000E+03 0.  1.
<mgrwt>
<rscale>  2 0.52510135E+03</rscale>
<asrwt>0</asrwt>
<pdfrwt beam="1">  1       21 0.10209642E+00 0.52510135E+03</pdfrwt>
<pdfrwt beam="2">  1       21 0.97934741E-01 0.52510135E+03</pdfrwt>
<totfact> 0.54840848E+02</totfact>
</mgrwt>
</event>
<event>
 4    1  0.4991790E-002  0.4821688E+03  0.7818608E-02  0.1018541E+00
         21   -1    0    0  503  502  0.00000000000E+00  0.00000000000E+00  0.65761088500E+03  0.65761088500E+03  0.00000000000E+00 0. -1.
         21   -1    0    0  501  503 -0.00000000000E+00 -0.00000000000E+00 -0.47087810602E+03  0.47087810602E+03  0.00000000000E+00 0.  1.
    9000005    1    1    2  501    0 -0.61353304766E+02 -0.26214976692E+03 -0.18830760764E+03  0.51763547348E+03  0.40000000000E+03 0.  1.
   -9000005    1    1    2    0  502  0.61353304766E+02  0.26214976692E+03  0.37504038662E+03  0.61085351755E+03  0.40000000000E+03 0. -1.
<mgrwt>
<rscale>  2 0.48216878E+03</rscale>
<asrwt>0</asrwt>
<pdfrwt beam="1">  1       21 0.10117091E+00 0.48216878E+03</pdfrwt>
<pdfrwt beam="2">  1       21 0.72442785E-01 0.48216878E+03</pdfrwt>
<totfact> 0.11551119E+03</totfact>
</mgrwt>
</event>
<event>
 4    1  0.4991790E-002  0.4298045E+03  0.7818608E-02  0.1033922E+00
         21   -1    0    0  503  502  0.00000000000E+00  0.00000000000E+00  0.45059420385E+03  0.45059420385E+03  0.00000000000E+00 0.  1.
         21   -1    0    0  501  503 -0.00000000000E+00 -0.00000000000E+00 -0.41161175713E+03  0.41161175713E+03  0.00000000000E+00 0.  1.
    9000005    1    1    2  501    0  0.15573794674E+03  0.21853657207E+02  0.46684848690E+02  0.43233247100E+03  0.40000000000E+03 0.  1.
   -9000005    1    1    2    0  502 -0.15573794674E+03 -0.21853657207E+02 -0.77024019669E+01  0.42987348998E+03  0.40000000000E+03 0.  1.
<mgrwt>
<rscale>  2 0.42980448E+03</rscale>
<asrwt>0</asrwt>
<pdfrwt beam="1">  1       21 0.69322185E-01 0.42980448E+03</pdfrwt>
<pdfrwt beam="2">  1       21 0.63324886E-01 0.42980448E+03</pdfrwt>
<totfact> 0.38490193E+03</totfact>
</mgrwt>
</event>
<event>
 4    1  0.4991790E-002  0.5151389E+03  0.7818608E-02  0.1009901E+00
         21   -1    0    0  501  502  0.00000000000E+00  0.00000000000E+00  0.47875615987E+03  0.47875615987E+03  0.00000000000E+00 0.  1.
         21   -1    0    0  502  503 -0.00000000000E+00 -0.00000000000E+00 -0.14391960000E+04  0.14391960000E+04  0.00000000000E+00 0.  1.
    9000005    1    1    2  501    0  0.32034430462E+03 -0.52417683884E+02  0.27174438586E+03  0.58242003600E+03  0.40000000000E+03 0.  1.
   -9000005    1    1    2    0  503 -0.32034430462E+03  0.52417683884E+02 -0.12321842260E+04  0.13355321239E+04  0.40000000000E+03 0.  1.
<mgrwt>
<rscale>  2 0.51513890E+03</rscale>
<asrwt>0</asrwt>
<pdfrwt beam="1">  1       21 0.73654796E-01 0.51513890E+03</pdfrwt>
<pdfrwt beam="2">  1       21 0.22141476E+00 0.51513890E+03</pdfrwt>
<totfact> 0.12553739E+02</totfact>
</mgrwt>
</event>
<event>
 4    1  0.4991790E-002  0.5244692E+03  0.7818608E-02  0.1007582E+00
         21   -1    0    0  501  502  0.00000000000E+00  0.00000000000E+00  0.45252942259E+03  0.45252942259E+03  0.00000000000E+00 0. -1.
         21   -1    0    0  502  503 -0.00000000000E+00 -0.00000000000E+00 -0.88807034540E+03  0.88807034540E+03  0.00000000000E+00 0.  1.
    9000005    1    1    2  501    0 -0.17510565777E+03  0.29052710456E+03  0.15875881577E+03  0.54797112282E+03  0.40000000000E+03 0. -1.
   -9000005    1    1    2    0  503  0.17510565777E+03 -0.29052710456E+03 -0.59429973858E+03  0.79262864517E+03  0.40000000000E+03 0.  1.
<mgrwt>
<rscale>  2 0.52446925E+03</rscale>
<asrwt>0</asrwt>
<pdfrwt beam="1">  1       21 0.69619912E-01 0.52446925E+03</pdfrwt>
<pdfrwt beam="2">  1       21 0.13662620E+00 0.52446925E+03</pdfrwt>
<totfact> 0.58053740E+02</totfact>
</mgrwt>
</event>
<event>
 4    1  0.4991790E-002  0.4936758E+03  0.7818608E-02  0.1015443E+00
         21   -1    0    0  501  502  0.00000000000E+00  0.00000000000E+00  0.20570736840E+03  0.20570736840E+03  0.00000000000E+00 0. -1.
         21   -1    0    0  502  503 -0.00000000000E+00 -0.00000000000E+00 -0.15983853240E+04  0.15983853240E+04  0.00000000000E+00 0.  1.
    9000005    1    1    2  501    0 -0.80185953188E+02  0.27800355970E+03 -0.23747199500E+03  0.54782179101E+03  0.40000000000E+03 0. -1.
   -9000005    1    1    2    0  503  0.80185953188E+02 -0.27800355970E+03 -0.11552059606E+04  0.12562709014E+04  0.40000000000E+03 0.  1.
<mgrwt>
<rscale>  2 0.49367577E+03</rscale>
<asrwt>0</asrwt>
<pdfrwt beam="1">  1       21 0.31647287E-01 0.49367577E+03</pdfrwt>
<pdfrwt beam="2">  1       21 0.24590544E+00 0.49367577E+03</pdfrwt>
<totfact> 0.53677003E+02</totfact>
</mgrwt>
</event>
<event>
 4    1  0.4991790E-002  0.4769187E+03  0.7818608E-02  0.1019985E+00
         21   -1    0    0  501  502  0.00000000000E+00  0.00000000000E+00  0.66958609019E+03  0.66958609019E+03  0.00000000000E+00 0.  1.
         21   -1    0    0  502  503 -0.00000000000E+00 -0.00000000000E+00 -0.65421279530E+03  0.65421279530E+03  0.00000000000E+00 0. -1.
    9000005    1    1    2  501    0  0.25859937874E+03 -0.24038185651E+02  0.46662969460E+03  0.66722915474E+03  0.40000000000E+03 0.  1.
   -9000005    1    1    2    0  503 -0.25859937874E+03  0.24038185651E+02 -0.45125639971E+03  0.65656973074E+03  0.40000000000E+03 0. -1.
<mgrwt>
<rscale>  2 0.47691873E+03</rscale>
<asrwt>0</asrwt>
<pdfrwt beam="1">  1       21 0.10301324E+00 0.47691873E+03</pdfrwt>
<pdfrwt beam="2">  1       21 0.10064812E+00 0.47691873E+03</pdfrwt>
<totfact> 0.51175177E+02</totfact>
</mgrwt>
</event>
<event>
 4    1  0.4991790E-002  0.4084561E+03  0.7818608E-02  0.1040890E+00
         21   -1    0    0  503  502  0.00000000000E+00  0.00000000000E+00  0.30396924207E+03  0.30396924207E+03  0.00000000000E+00 0. -1.
         21   -1    0    0  501  503 -0.00000000000E+00 -0.00000000000E+00 -0.79730239827E+03  0.79730239827E+03  0.00000000000E+00 0. -1.
    9000005    1    1    2  501    0  0.81774530683E+02 -0.12218586683E+02 -0.55404001187E+03  0.68832892027E+03  0.40000000000E+03 0. -1.
   -9000005    1    1    2    0  502 -0.81774530683E+02  0.12218586683E+02  0.60706855678E+02  0.41294272007E+03  0.40000000000E+03 0. -1.
<mgrwt>
<rscale>  2 0.40845608E+03</rscale>
<asrwt>0</asrwt>
<pdfrwt beam="1">  1       21 0.46764499E-01 0.40845608E+03</pdfrwt>
<pdfrwt beam="2">  1       21 0.12266191E+00 0.40845608E+03</pdfrwt>
<totfact> 0.19128866E+03</totfact>
</mgrwt>
</event>
<event>
 4    1  0.4991790E-002  0.4029755E+03  0.7818608E-02  0.1042754E+00
         21   -1    0    0  503  502  0.00000000000E+00  0.00000000000E+00  0.17623748865E+04  0.17623748865E+04  0.00000000000E+00 0.  1.
         21   -1    0    0  501  503 -0.00000000000E+00 -0.00000000000E+00 -0.93245960462E+02  0.93245960462E+02  0.00000000000E+00 0.  1.
    9000005    1    1    2  501    0  0.43812795857E+02 -0.21672377538E+02  0.93550473857E+03  0.10186060911E+04  0.40000000000E+03 0.  1.
   -9000005    1    1    2    0  502 -0.43812795857E+02  0.21672377538E+02  0.73362418751E+03  0.83701475586E+03  0.40000000000E+03 0.  1.
<mgrwt>
<rscale>  2 0.40297550E+03</rscale>
<asrwt>0</asrwt>
<pdfrwt beam="1">  1       21 0.27113457E+00 0.40297550E+03</pdfrwt>
<pdfrwt beam="2">  1       21 0.14345534E-01 0.40297550E+03</pdfrwt>
<totfact> 0.17984157E+03</totfact>
</mgrwt>
</event>
<event>
 4    1  0.4991790E-002  0.4221734E+03  0.7818608E-02  0.1036361E+00
         21   -1    0    0  501  502  0.00000000000E+00  0.00000000000E+00  0.16036435564E+04  0.16036435564E+04  0.00000000000E+00 0. -1.
         21   -1    0    0  502  503 -0.00000000000E+00 -0.00000000000E+00 -0.12109601731E+03  0.12109601731E+03  0.00000000000E+00 0. -1.
    9000005    1    1    2  501    0  0.37113264054E+02 -0.12981893765E+03  0.98853287834E+03  0.10749081833E+04  0.40000000000E+03 0. -1.
   -9000005    1    1    2    0  503 -0.37113264054E+02  0.12981893765E+03  0.49401466077E+03  0.64983139044E+03  0.40000000000E+03 0. -1.
<mgrwt>
<rscale>  2 0.42217337E+03</rscale>
<asrwt>0</asrwt>
<pdfrwt beam="1">  1       21 0.24671438E+00 0.42217337E+03</pdfrwt>
<pdfrwt beam="2">  1       21 0.18630158E-01 0.42217337E+03</pdfrwt>
<totfact> 0.15386313E+03</totfact>
</mgrwt>
</event>
<event>
 4    1  0.4991790E-002  0.4668145E+03  0.7818608E-02  0.1022823E+00
         21   -1    0    0  503  502  0.00000000000E+00  0.00000000000E+00  0.14192062410E+04  0.14192062410E+04  0.00000000000E+00 0.  1.
         21   -1    0    0  501  503 -0.00000000000E+00 -0.00000000000E+00 -0.19472599896E+03  0.19472599896E+03  0.00000000000E+00 0.  1.
    9000005    1    1    2  501    0  0.12416871069E+03 -0.20615027014E+03  0.24115142609E+03  0.52542346055E+03  0.40000000000E+03 0.  1.
   -9000005    1    1    2    0  502 -0.12416871069E+03  0.20615027014E+03  0.98332881594E+03  0.10885087794E+04  0.40000000000E+03 0.  1.
<mgrwt>
<rscale>  2 0.46681453E+03</rscale>
<asrwt>0</asrwt>
<pdfrwt beam="1">  1       21 0.21833942E+00 0.46681453E+03</pdfrwt>
<pdfrwt beam="2">  1       21 0.29957847E-01 0.46681453E+03</pdfrwt>
<totfact> 0.90455165E+02</totfact>
</mgrwt>
</event>
<event>
 4    1  0.4991790E-002  0.4785245E+03  0.7818608E-02  0.1019541E+00
         21   -1    0    0  503  502  0.00000000000E+00  0.00000000000E+00  0.26646820216E+03  0.26646820216E+03  0.00000000000E+00 0. -1.
         21   -1    0    0  501  503 -0.00000000000E+00 -0.00000000000E+00 -0.87240956205E+03  0.87240956205E+03  0.00000000000E+00 0. -1.
    9000005    1    1    2  501    0 -0.24540036373E+03 -0.93618066374E+02 -0.23326209759E+03  0.53235034239E+03  0.40000000000E+03 0. -1.
   -9000005    1    1    2    0  502  0.24540036373E+03  0.93618066374E+02 -0.37267926230E+03  0.60652742182E+03  0.40000000000E+03 0. -1.
<mgrwt>
<rscale>  2 0.47852448E+03</rscale>
<asrwt>0</asrwt>
<pdfrwt beam="1">  1       21 0.40995108E-01 0.47852448E+03</pdfrwt>
<pdfrwt beam="2">  1       21 0.13421686E+00 0.47852448E+03</pdfrwt>
<totfact> 0.19403135E+03</totfact>
</mgrwt>
</event>
