<event>
 4    1  0.4821294E-002  0.4211589E+03  0.7818608E-02  0.1036690E+00
         21   -1    0    0  501  502  0.00000000000E+00  0.00000000000E+00  0.67857054458E+03  0.67857054458E+03  0.00000000000E+00 0.  1.
         21   -1    0    0  502  503 -0.00000000000E+00 -0.00000000000E+00 -0.48703237555E+03  0.48703237555E+03  0.00000000000E+00 0.  1.
    9000007    1    1    2  501    0 -0.81253125840E+02 -0.10379176408E+03  0.49245560484E+03  0.64798713219E+03  0.40000000000E+03 0.  1.
   -9000007    1    1    2    0  503  0.81253125840E+02  0.10379176408E+03 -0.30091743580E+03  0.51761578793E+03  0.40000000000E+03 0.  1.
<mgrwt>
<rscale>  2 0.42115888E+03</rscale>
<asrwt>0</asrwt>
<pdfrwt beam="1">  1       21 0.10439547E+00 0.42115888E+03</pdfrwt>
<pdfrwt beam="2">  1       21 0.74928057E-01 0.42115888E+03</pdfrwt>
<totfact> 0.10156715E+03</totfact>
</mgrwt>
</event>
<event>
 4    1  0.4821294E-002  0.4899520E+03  0.7818608E-02  0.1016435E+00
         21   -1    0    0  501  502  0.00000000000E+00  0.00000000000E+00  0.85155639116E+03  0.85155639116E+03  0.00000000000E+00 0. -1.
         21   -1    0    0  502  503 -0.00000000000E+00 -0.00000000000E+00 -0.34056142811E+03  0.34056142811E+03  0.00000000000E+00 0.  1.
    9000007    1    1    2  501    0 -0.61642235855E+02 -0.27613987619E+03  0.50288115361E+03  0.70209860499E+03  0.40000000000E+03 0. -1.
   -9000007    1    1    2    0  503  0.61642235855E+02  0.27613987619E+03  0.81138094456E+01  0.49001921429E+03  0.40000000000E+03 0.  1.
<mgrwt>
<rscale>  2 0.48995203E+03</rscale>
<asrwt>0</asrwt>
<pdfrwt beam="1">  1       21 0.13100868E+00 0.48995203E+03</pdfrwt>
<pdfrwt beam="2">  1       21 0.52394066E-01 0.48995203E+03</pdfrwt>
<totfact> 0.12271751E+03</totfact>
</mgrwt>
</event>
<event>
 4    1  0.4821294E-002  0.4893585E+03  0.7818608E-02  0.1016594E+00
         21   -1    0    0  503  502  0.00000000000E+00  0.00000000000E+00  0.14800144642E+04  0.14800144642E+04  0.00000000000E+00 0. -1.
         21   -1    0    0  501  503 -0.00000000000E+00 -0.00000000000E+00 -0.17974906011E+03  0.17974906011E+03  0.00000000000E+00 0. -1.
    9000007    1    1    2  501    0  0.99112874756E+02 -0.26390984901E+03  0.38791659135E+03  0.62446060900E+03  0.40000000000E+03 0. -1.
   -9000007    1    1    2    0  502 -0.99112874756E+02  0.26390984901E+03  0.91234881271E+03  0.10353029153E+04  0.40000000000E+03 0. -1.
<mgrwt>
<rscale>  2 0.48935853E+03</rscale>
<asrwt>0</asrwt>
<pdfrwt beam="1">  1       21 0.22769453E+00 0.48935853E+03</pdfrwt>
<pdfrwt beam="2">  1       21 0.27653703E-01 0.48935853E+03</pdfrwt>
<totfact> 0.91438276E+02</totfact>
</mgrwt>
</event>
<event>
 4    1  0.4821294E-002  0.4643948E+03  0.7818608E-02  0.1023514E+00
         21   -1    0    0  501  502  0.00000000000E+00  0.00000000000E+00  0.94073328555E+03  0.94073328555E+03  0.00000000000E+00 0.  1.
         21   -1    0    0  502  503 -0.00000000000E+00 -0.00000000000E+00 -0.32762062747E+03  0.32762062747E+03  0.00000000000E+00 0. -1.
    9000007    1    1    2  501    0  0.63440257916E+02 -0.22723963478E+03  0.65405963337E+03  0.80215741718E+03  0.40000000000E+03 0.  1.
   -9000007    1    1    2    0  503 -0.63440257916E+02  0.22723963478E+03 -0.40946975293E+02  0.46619649583E+03  0.40000000000E+03 0. -1.
<mgrwt>
<rscale>  2 0.46439479E+03</rscale>
<asrwt>0</asrwt>
<pdfrwt beam="1">  1       21 0.14472820E+00 0.46439479E+03</pdfrwt>
<pdfrwt beam="2">  1       21 0.50403174E-01 0.46439479E+03</pdfrwt>
<totfact> 0.10345880E+03</totfact>
</mgrwt>
</event>
<event>
 4    1  0.4821294E-002  0.4527723E+03  0.7818608E-02  0.1026899E+00
         21   -1    0    0  501  502  0.00000000000E+00  0.00000000000E+00  0.22364182703E+03  0.22364182703E+03  0.00000000000E+00 0.  1.
         21   -1    0    0  502  503 -0.00000000000E+00 -0.00000000000E+00 -0.94398634721E+03  0.94398634721E+03  0.00000000000E+00 0.  1.
    9000007    1    1    2  501    0 -0.16931981357E+01 -0.21213171680E+03 -0.26083540776E+03  0.52253023083E+03  0.40000000000E+03 0.  1.
   -9000007    1    1    2    0  503  0.16931981357E+01  0.21213171680E+03 -0.45950911242E+03  0.64509794341E+03  0.40000000000E+03 0.  1.
<mgrwt>
<rscale>  2 0.45277227E+03</rscale>
<asrwt>0</asrwt>
<pdfrwt beam="1">  1       21 0.34406434E-01 0.45277227E+03</pdfrwt>
<pdfrwt beam="2">  1       21 0.14522867E+00 0.45277227E+03</pdfrwt>
<totfact> 0.22728300E+03</totfact>
</mgrwt>
</event>
<event>
 4    1  0.4821294E-002  0.4104117E+03  0.7818608E-02  0.1040233E+00
         21   -1    0    0  503  502  0.00000000000E+00  0.00000000000E+00  0.27287258348E+03  0.27287258348E+03  0.00000000000E+00 0.  1.
         21   -1    0    0  501  503 -0.00000000000E+00 -0.00000000000E+00 -0.61756843278E+03  0.61756843278E+03  0.00000000000E+00 0.  1.
    9000007    1    1    2  501    0  0.38026705632E+02 -0.83616693128E+02 -0.16266482144E+03  0.44147211220E+03  0.40000000000E+03 0. -1.
   -9000007    1    1    2    0  502 -0.38026705632E+02  0.83616693128E+02 -0.18203102786E+03  0.44896890406E+03  0.40000000000E+03 0. -1.
<mgrwt>
<rscale>  2 0.41041172E+03</rscale>
<asrwt>0</asrwt>
<pdfrwt beam="1">  1       21 0.41980398E-01 0.41041172E+03</pdfrwt>
<pdfrwt beam="2">  1       21 0.95010527E-01 0.41041172E+03</pdfrwt>
<totfact> 0.44959567E+03</totfact>
</mgrwt>
</event>
<event>
 4    1  0.4821294E-002  0.4163395E+03  0.7818608E-02  0.1038264E+00
         21   -1    0    0  501  502  0.00000000000E+00  0.00000000000E+00  0.72395415651E+03  0.72395415651E+03  0.00000000000E+00 0. -1.
         21   -1    0    0  502  503 -0.00000000000E+00 -0.00000000000E+00 -0.25983724498E+03  0.25983724498E+03  0.00000000000E+00 0. -1.
    9000007    1    1    2  501    0  0.11279014431E+03  0.24838920229E+02  0.36990043994E+03  0.55692452279E+03  0.40000000000E+03 0. -1.
   -9000007    1    1    2    0  503 -0.11279014431E+03 -0.24838920229E+02  0.94216471589E+02  0.42686687870E+03  0.40000000000E+03 0. -1.
<mgrwt>
<rscale>  2 0.41633951E+03</rscale>
<asrwt>0</asrwt>
<pdfrwt beam="1">  1       21 0.11137756E+00 0.41633951E+03</pdfrwt>
<pdfrwt beam="2">  1       21 0.39974961E-01 0.41633951E+03</pdfrwt>
<totfact> 0.33671724E+03</totfact>
</mgrwt>
</event>
<event>
 4    1  0.4821294E-002  0.4011295E+03  0.7818608E-02  0.1043389E+00
         21   -1    0    0  501  502  0.00000000000E+00  0.00000000000E+00  0.89073026202E+03  0.89073026202E+03  0.00000000000E+00 0. -1.
         21   -1    0    0  502  503 -0.00000000000E+00 -0.00000000000E+00 -0.44221489139E+03  0.44221489139E+03  0.00000000000E+00 0. -1.
    9000007    1    1    2  501    0 -0.30069183300E+02  0.86263484607E+00  0.73683628973E+03  0.83894732718E+03  0.40000000000E+03 0. -1.
   -9000007    1    1    2    0  503  0.30069183300E+02 -0.86263484607E+00 -0.28832091910E+03  0.49399782622E+03  0.40000000000E+03 0. -1.
<mgrwt>
<rscale>  2 0.40112953E+03</rscale>
<asrwt>0</asrwt>
<pdfrwt beam="1">  1       21 0.13703542E+00 0.40112953E+03</pdfrwt>
<pdfrwt beam="2">  1       21 0.68033061E-01 0.40112953E+03</pdfrwt>
<totfact> 0.64020479E+02</totfact>
</mgrwt>
</event>
<event>
 4    1  0.4821294E-002  0.4245822E+03  0.7818608E-02  0.1035585E+00
         21   -1    0    0  501  502  0.00000000000E+00  0.00000000000E+00  0.10536258552E+04  0.10536258552E+04  0.00000000000E+00 0.  1.
         21   -1    0    0  502  503 -0.00000000000E+00 -0.00000000000E+00 -0.59150773703E+03  0.59150773703E+03  0.00000000000E+00 0.  1.
    9000007    1    1    2  501    0 -0.71117565046E+02  0.12333841398E+03  0.92453103228E+03  0.10173631122E+04  0.40000000000E+03 0.  1.
   -9000007    1    1    2    0  503  0.71117565046E+02 -0.12333841398E+03 -0.46241291413E+03  0.62777048001E+03  0.40000000000E+03 0.  1.
<mgrwt>
<rscale>  2 0.42458223E+03</rscale>
<asrwt>0</asrwt>
<pdfrwt beam="1">  1       21 0.16209628E+00 0.42458223E+03</pdfrwt>
<pdfrwt beam="2">  1       21 0.91001191E-01 0.42458223E+03</pdfrwt>
<totfact> 0.20556956E+02</totfact>
</mgrwt>
</event>
<event>
 4    1  0.4821294E-002  0.4287341E+03  0.7818608E-02  0.1034261E+00
         21   -1    0    0  503  502  0.00000000000E+00  0.00000000000E+00  0.66816915597E+03  0.66816915597E+03  0.00000000000E+00 0. -1.
         21   -1    0    0  501  503 -0.00000000000E+00 -0.00000000000E+00 -0.53597830815E+03  0.53597830815E+03  0.00000000000E+00 0. -1.
    9000007    1    1    2  501    0 -0.15355421221E+03  0.15299444879E+02 -0.35394927991E+03  0.55596138522E+03  0.40000000000E+03 0. -1.
   -9000007    1    1    2    0  502  0.15355421221E+03 -0.15299444879E+02  0.48614012772E+03  0.64818607890E+03  0.40000000000E+03 0. -1.
<mgrwt>
<rscale>  2 0.42873415E+03</rscale>
<asrwt>0</asrwt>
<pdfrwt beam="1">  1       21 0.10279525E+00 0.42873415E+03</pdfrwt>
<pdfrwt beam="2">  1       21 0.82458201E-01 0.42873415E+03</pdfrwt>
<totfact> 0.84358117E+02</totfact>
</mgrwt>
</event>
<event>
 4    1  0.4821294E-002  0.4806140E+03  0.7818608E-02  0.1018967E+00
         21   -1    0    0  501  502  0.00000000000E+00  0.00000000000E+00  0.15483172197E+03  0.15483172197E+03  0.00000000000E+00 0. -1.
         21   -1    0    0  502  503 -0.00000000000E+00 -0.00000000000E+00 -0.14948924514E+04  0.14948924514E+04  0.00000000000E+00 0. -1.
    9000007    1    1    2  501    0 -0.22581365225E+03 -0.14141436483E+03 -0.63298115657E+03  0.79476724435E+03  0.40000000000E+03 0. -1.
   -9000007    1    1    2    0  503  0.22581365225E+03  0.14141436483E+03 -0.70707957290E+03  0.85495692905E+03  0.40000000000E+03 0. -1.
<mgrwt>
<rscale>  2 0.48061401E+03</rscale>
<asrwt>0</asrwt>
<pdfrwt beam="1">  1       21 0.23820265E-01 0.48061401E+03</pdfrwt>
<pdfrwt beam="2">  1       21 0.22998345E+00 0.48061401E+03</pdfrwt>
<totfact> 0.11885662E+03</totfact>
</mgrwt>
</event>
<event>
 4    1  0.4821294E-002  0.5079560E+03  0.7818608E-02  0.1011723E+00
         21   -1    0    0  501  502  0.00000000000E+00  0.00000000000E+00  0.20809407498E+04  0.20809407498E+04  0.00000000000E+00 0.  1.
         21   -1    0    0  502  503 -0.00000000000E+00 -0.00000000000E+00 -0.23393214796E+03  0.23393214796E+03  0.00000000000E+00 0.  1.
    9000007    1    1    2  501    0  0.30971315778E+03 -0.45793776543E+02  0.17169752283E+04  0.17905371386E+04  0.40000000000E+03 0.  1.
   -9000007    1    1    2    0  503 -0.30971315778E+03  0.45793776543E+02  0.13003337348E+03  0.52433575912E+03  0.40000000000E+03 0.  1.
<mgrwt>
<rscale>  2 0.50795601E+03</rscale>
<asrwt>0</asrwt>
<pdfrwt beam="1">  1       21 0.32014472E+00 0.50795601E+03</pdfrwt>
<pdfrwt beam="2">  1       21 0.35989563E-01 0.50795601E+03</pdfrwt>
<totfact> 0.14539835E+02</totfact>
</mgrwt>
</event>
<event>
 4    1  0.4821294E-002  0.5769618E+03  0.7818608E-02  0.9954390E-01
         21   -1    0    0  503  502  0.00000000000E+00  0.00000000000E+00  0.24075593994E+03  0.24075593994E+03  0.00000000000E+00 0. -1.
         21   -1    0    0  501  503 -0.00000000000E+00 -0.00000000000E+00 -0.13879918462E+04  0.13879918462E+04  0.00000000000E+00 0.  1.
    9000007    1    1    2  501    0 -0.39922213966E+03 -0.11621808572E+03 -0.52317037598E+03  0.77884029335E+03  0.40000000000E+03 0. -1.
   -9000007    1    1    2    0  502  0.39922213966E+03  0.11621808572E+03 -0.62406553030E+03  0.84990749282E+03  0.40000000000E+03 0. -1.
<mgrwt>
<rscale>  2 0.57696184E+03</rscale>
<asrwt>0</asrwt>
<pdfrwt beam="1">  1       21 0.37039376E-01 0.57696184E+03</pdfrwt>
<pdfrwt beam="2">  1       21 0.21353720E+00 0.57696184E+03</pdfrwt>
<totfact> 0.60505732E+02</totfact>
</mgrwt>
</event>
<event>
 4    1  0.4821294E-002  0.4452170E+03  0.7818608E-02  0.1029158E+00
         21   -1    0    0  501  502  0.00000000000E+00  0.00000000000E+00  0.27559711782E+03  0.27559711782E+03  0.00000000000E+00 0. -1.
         21   -1    0    0  502  503 -0.00000000000E+00 -0.00000000000E+00 -0.94386726340E+03  0.94386726340E+03  0.00000000000E+00 0. -1.
    9000007    1    1    2  501    0 -0.19492485986E+03 -0.14914485759E+02 -0.36678848091E+02  0.44672528558E+03  0.40000000000E+03 0. -1.
   -9000007    1    1    2    0  503  0.19492485986E+03  0.14914485759E+02 -0.63159129749E+03  0.77273909565E+03  0.40000000000E+03 0. -1.
<mgrwt>
<rscale>  2 0.44521696E+03</rscale>
<asrwt>0</asrwt>
<pdfrwt beam="1">  1       21 0.42399557E-01 0.44521696E+03</pdfrwt>
<pdfrwt beam="2">  1       21 0.14521035E+00 0.44521696E+03</pdfrwt>
<totfact> 0.14869430E+03</totfact>
</mgrwt>
</event>
<event>
 4    1  0.4821294E-002  0.6018636E+03  0.7818608E-02  0.9901547E-01
         21   -1    0    0  503  502  0.00000000000E+00  0.00000000000E+00  0.57826013379E+03  0.57826013379E+03  0.00000000000E+00 0.  1.
         21   -1    0    0  501  503 -0.00000000000E+00 -0.00000000000E+00 -0.72336462523E+03  0.72336462523E+03  0.00000000000E+00 0.  1.
    9000007    1    1    2  501    0 -0.19679960495E+03  0.40436329492E+03 -0.31079276131E+03  0.67737131565E+03  0.40000000000E+03 0.  1.
   -9000007    1    1    2    0  502  0.19679960495E+03 -0.40436329492E+03  0.16568826988E+03  0.62425344337E+03  0.40000000000E+03 0.  1.
<mgrwt>
<rscale>  2 0.60186357E+03</rscale>
<asrwt>0</asrwt>
<pdfrwt beam="1">  1       21 0.88963099E-01 0.60186357E+03</pdfrwt>
<pdfrwt beam="2">  1       21 0.11128686E+00 0.60186357E+03</pdfrwt>
<totfact> 0.54281217E+02</totfact>
</mgrwt>
</event>
<event>
 4    1  0.4821294E-002  0.4420451E+03  0.7818608E-02  0.1030121E+00
         21   -1    0    0  503  502  0.00000000000E+00  0.00000000000E+00  0.32727455367E+03  0.32727455367E+03  0.00000000000E+00 0.  1.
         21   -1    0    0  501  503 -0.00000000000E+00 -0.00000000000E+00 -0.70565174019E+03  0.70565174019E+03  0.00000000000E+00 0.  1.
    9000007    1    1    2  501    0 -0.14068921436E+03 -0.12494155187E+03 -0.39178632247E+03  0.59067788929E+03  0.40000000000E+03 0.  1.
   -9000007    1    1    2    0  502  0.14068921436E+03  0.12494155187E+03  0.13409135950E+02  0.44224840457E+03  0.40000000000E+03 0.  1.
<mgrwt>
<rscale>  2 0.44204507E+03</rscale>
<asrwt>0</asrwt>
<pdfrwt beam="1">  1       21 0.50349932E-01 0.44204507E+03</pdfrwt>
<pdfrwt beam="2">  1       21 0.10856181E+00 0.44204507E+03</pdfrwt>
<totfact> 0.21923140E+03</totfact>
</mgrwt>
</event>
<event>
 4    1  0.4821294E-002  0.4112877E+03  0.7818608E-02  0.1039940E+00
         21   -1    0    0  503  502  0.00000000000E+00  0.00000000000E+00  0.12006707866E+04  0.12006707866E+04  0.00000000000E+00 0.  1.
         21   -1    0    0  501  503 -0.00000000000E+00 -0.00000000000E+00 -0.84209509414E+03  0.84209509414E+03  0.00000000000E+00 0.  1.
    9000007    1    1    2  501    0 -0.29811344875E+02  0.90933409564E+02 -0.75274630894E+03  0.85777887995E+03  0.40000000000E+03 0.  1.
   -9000007    1    1    2    0  502  0.29811344875E+02 -0.90933409564E+02  0.11113220014E+04  0.11849870008E+04  0.40000000000E+03 0.  1.
<mgrwt>
<rscale>  2 0.41128774E+03</rscale>
<asrwt>0</asrwt>
<pdfrwt beam="1">  1       21 0.18471858E+00 0.41128774E+03</pdfrwt>
<pdfrwt beam="2">  1       21 0.12955309E+00 0.41128774E+03</pdfrwt>
<totfact> 0.59482107E+01</totfact>
</mgrwt>
</event>
<event>
 4    1  0.4821294E-002  0.4473150E+03  0.7818608E-02  0.1028526E+00
         21   -1    0    0  503  502  0.00000000000E+00  0.00000000000E+00  0.66281167415E+03  0.66281167415E+03  0.00000000000E+00 0. -1.
         21   -1    0    0  501  503 -0.00000000000E+00 -0.00000000000E+00 -0.84356066302E+03  0.84356066302E+03  0.00000000000E+00 0.  1.
    9000007    1    1    2  501    0 -0.11556754623E+03  0.16350786940E+03 -0.69392717281E+03  0.82560620290E+03  0.40000000000E+03 0.  1.
   -9000007    1    1    2    0  502  0.11556754623E+03 -0.16350786940E+03  0.51317818394E+03  0.68076613427E+03  0.40000000000E+03 0. -1.
<mgrwt>
<rscale>  2 0.44731497E+03</rscale>
<asrwt>0</asrwt>
<pdfrwt beam="1">  1       21 0.10197103E+00 0.44731497E+03</pdfrwt>
<pdfrwt beam="2">  1       21 0.12977856E+00 0.44731497E+03</pdfrwt>
<totfact> 0.28085399E+02</totfact>
</mgrwt>
</event>
<event>
 4    1  0.4821294E-002  0.5639484E+03  0.7818608E-02  0.9983160E-01
         21   -1    0    0  501  502  0.00000000000E+00  0.00000000000E+00  0.34410628918E+03  0.34410628918E+03  0.00000000000E+00 0.  1.
         21   -1    0    0  502  503 -0.00000000000E+00 -0.00000000000E+00 -0.15736717607E+04  0.15736717607E+04  0.00000000000E+00 0. -1.
    9000007    1    1    2  501    0 -0.39734178620E+03  0.12540385165E+02  0.12121432707E+01  0.56394966585E+03  0.40000000000E+03 0.  1.
   -9000007    1    1    2    0  503  0.39734178620E+03 -0.12540385165E+02 -0.12307776148E+04  0.13538283840E+04  0.40000000000E+03 0. -1.
<mgrwt>
<rscale>  2 0.56394836E+03</rscale>
<asrwt>0</asrwt>
<pdfrwt beam="1">  1       21 0.52939430E-01 0.56394836E+03</pdfrwt>
<pdfrwt beam="2">  1       21 0.24210334E+00 0.56394836E+03</pdfrwt>
<totfact> 0.18870508E+02</totfact>
</mgrwt>
</event>
<event>
 4    1  0.4821294E-002  0.4164142E+03  0.7818608E-02  0.1038240E+00
         21   -1    0    0  503  502  0.00000000000E+00  0.00000000000E+00  0.86834145097E+03  0.86834145097E+03  0.00000000000E+00 0. -1.
         21   -1    0    0  501  503 -0.00000000000E+00 -0.00000000000E+00 -0.31498663251E+03  0.31498663251E+03  0.00000000000E+00 0. -1.
    9000007    1    1    2  501    0  0.11500438712E+03 -0.13219340626E+02 -0.81282042783E+02  0.42427294340E+03  0.40000000000E+03 0. -1.
   -9000007    1    1    2    0  502 -0.11500438712E+03  0.13219340626E+02  0.63463686124E+03  0.75905514007E+03  0.40000000000E+03 0. -1.
<mgrwt>
<rscale>  2 0.41641417E+03</rscale>
<asrwt>0</asrwt>
<pdfrwt beam="1">  1       21 0.13359099E+00 0.41641417E+03</pdfrwt>
<pdfrwt beam="2">  1       21 0.48459482E-01 0.41641417E+03</pdfrwt>
<totfact> 0.14191138E+03</totfact>
</mgrwt>
</event>
<event>
 4    1  0.4821294E-002  0.5735577E+03  0.7818608E-02  0.9961837E-01
         21   -1    0    0  503  502  0.00000000000E+00  0.00000000000E+00  0.34820776566E+03  0.34820776566E+03  0.00000000000E+00 0. -1.
         21   -1    0    0  501  503 -0.00000000000E+00 -0.00000000000E+00 -0.97214897371E+03  0.97214897371E+03  0.00000000000E+00 0. -1.
    9000007    1    1    2  501    0 -0.30934653202E+03  0.27069022611E+03 -0.42280651388E+03  0.71255443551E+03  0.40000000000E+03 0. -1.
   -9000007    1    1    2    0  502  0.30934653202E+03 -0.27069022611E+03 -0.20113469416E+03  0.60780230386E+03  0.40000000000E+03 0. -1.
<mgrwt>
<rscale>  2 0.57355774E+03</rscale>
<asrwt>0</asrwt>
<pdfrwt beam="1">  1       21 0.53570426E-01 0.57355774E+03</pdfrwt>
<pdfrwt beam="2">  1       21 0.14956138E+00 0.57355774E+03</pdfrwt>
<totfact> 0.79729248E+02</totfact>
</mgrwt>
</event>
<event>
 4    1  0.4821294E-002  0.4291955E+03  0.7818608E-02  0.1034114E+00
         21   -1    0    0  503  502  0.00000000000E+00  0.00000000000E+00  0.44191559628E+03  0.44191559628E+03  0.00000000000E+00 0.  1.
         21   -1    0    0  501  503 -0.00000000000E+00 -0.00000000000E+00 -0.56122147241E+03  0.56122147241E+03  0.00000000000E+00 0.  1.
    9000007    1    1    2  501    0  0.15514474388E+03 -0.11784490913E+02 -0.31405264207E+03  0.53182499731E+03  0.40000000000E+03 0.  1.
   -9000007    1    1    2    0  502 -0.15514474388E+03  0.11784490913E+02  0.19474676594E+03  0.47131207137E+03  0.40000000000E+03 0.  1.
<mgrwt>
<rscale>  2 0.42919549E+03</rscale>
<asrwt>0</asrwt>
<pdfrwt beam="1">  1       21 0.67987015E-01 0.42919549E+03</pdfrwt>
<pdfrwt beam="2">  1       21 0.86341765E-01 0.42919549E+03</pdfrwt>
<totfact> 0.19869205E+03</totfact>
</mgrwt>
</event>
<event>
 4    1  0.4821294E-002  0.5413654E+03  0.7818608E-02  0.1003512E+00
         21   -1    0    0  503  502  0.00000000000E+00  0.00000000000E+00  0.24787597818E+04  0.24787597818E+04  0.00000000000E+00 0. -1.
         21   -1    0    0  501  503 -0.00000000000E+00 -0.00000000000E+00 -0.27632262123E+03  0.27632262123E+03  0.00000000000E+00 0.  1.
    9000007    1    1    2  501    0 -0.20371490956E+03  0.30261638737E+03  0.59272717274E+02  0.54460049329E+03  0.40000000000E+03 0.  1.
   -9000007    1    1    2    0  502  0.20371490956E+03 -0.30261638737E+03  0.21431644433E+04  0.22104819098E+04  0.40000000000E+03 0. -1.
<mgrwt>
<rscale>  2 0.54136535E+03</rscale>
<asrwt>0</asrwt>
<pdfrwt beam="1">  1       21 0.38134764E+00 0.54136535E+03</pdfrwt>
<pdfrwt beam="2">  1       21 0.42511174E-01 0.54136535E+03</pdfrwt>
<totfact> 0.42324170E+01</totfact>
</mgrwt>
</event>
<event>
 4    1  0.4821294E-002  0.4786151E+03  0.7818608E-02  0.1019516E+00
         21   -1    0    0  503  502  0.00000000000E+00  0.00000000000E+00  0.24270992464E+04  0.24270992464E+04  0.00000000000E+00 0.  1.
         21   -1    0    0  501  503 -0.00000000000E+00 -0.00000000000E+00 -0.10255569905E+03  0.10255569905E+03  0.00000000000E+00 0. -1.
    9000007    1    1    2  501    0 -0.18431609657E+02 -0.26216920882E+03  0.80517716800E+03  0.93668708231E+03  0.40000000000E+03 0. -1.
   -9000007    1    1    2    0  502  0.18431609657E+02  0.26216920882E+03  0.15193663794E+04  0.15929678632E+04  0.40000000000E+03 0.  1.
<mgrwt>
<rscale>  2 0.47861510E+03</rscale>
<asrwt>0</asrwt>
<pdfrwt beam="1">  1       21 0.37339984E+00 0.47861510E+03</pdfrwt>
<pdfrwt beam="2">  1       21 0.15777802E-01 0.47861510E+03</pdfrwt>
<totfact> 0.34540766E+02</totfact>
</mgrwt>
</event>
<event>
 4    1  0.4821294E-002  0.4619950E+03  0.7818608E-02  0.1024204E+00
         21   -1    0    0  503  502  0.00000000000E+00  0.00000000000E+00  0.39468916336E+03  0.39468916336E+03  0.00000000000E+00 0. -1.
         21   -1    0    0  501  503 -0.00000000000E+00 -0.00000000000E+00 -0.55222312955E+03  0.55222312955E+03  0.00000000000E+00 0. -1.
    9000007    1    1    2  501    0  0.11256274760E+03  0.20191333254E+03 -0.14692636234E+03  0.48479554655E+03  0.40000000000E+03 0. -1.
   -9000007    1    1    2    0  502 -0.11256274760E+03 -0.20191333254E+03 -0.10607603854E+02  0.46211674636E+03  0.40000000000E+03 0. -1.
<mgrwt>
<rscale>  2 0.46199498E+03</rscale>
<asrwt>0</asrwt>
<pdfrwt beam="1">  1       21 0.60721410E-01 0.46199498E+03</pdfrwt>
<pdfrwt beam="2">  1       21 0.84957404E-01 0.46199498E+03</pdfrwt>
<totfact> 0.26191586E+03</totfact>
</mgrwt>
</event>
<event>
 4    1  0.4821294E-002  0.4171897E+03  0.7818608E-02  0.1037985E+00
         21   -1    0    0  503  502  0.00000000000E+00  0.00000000000E+00  0.38745603116E+03  0.38745603116E+03  0.00000000000E+00 0.  1.
         21   -1    0    0  501  503 -0.00000000000E+00 -0.00000000000E+00 -0.50929369988E+03  0.50929369988E+03  0.00000000000E+00 0.  1.
    9000007    1    1    2  501    0  0.74994593869E+02 -0.91777390146E+02 -0.21493015799E+03  0.46929974565E+03  0.40000000000E+03 0.  1.
   -9000007    1    1    2    0  502 -0.74994593869E+02  0.91777390146E+02  0.93092489279E+02  0.42744998539E+03  0.40000000000E+03 0.  1.
<mgrwt>
<rscale>  2 0.41718974E+03</rscale>
<asrwt>0</asrwt>
<pdfrwt beam="1">  1       21 0.59608620E-01 0.41718974E+03</pdfrwt>
<pdfrwt beam="2">  1       21 0.78352877E-01 0.41718974E+03</pdfrwt>
<totfact> 0.33443970E+03</totfact>
</mgrwt>
</event>
<event>
 4    1  0.4821294E-002  0.4419980E+03  0.7818608E-02  0.1030136E+00
         21   -1    0    0  503  502  0.00000000000E+00  0.00000000000E+00  0.32632462347E+03  0.32632462347E+03  0.00000000000E+00 0. -1.
         21   -1    0    0  501  503 -0.00000000000E+00 -0.00000000000E+00 -0.66542299669E+03  0.66542299669E+03  0.00000000000E+00 0. -1.
    9000007    1    1    2  501    0 -0.18521146968E+03  0.32541429794E+02 -0.32660101232E+03  0.54957297459E+03  0.40000000000E+03 0. -1.
   -9000007    1    1    2    0  502  0.18521146968E+03 -0.32541429794E+02 -0.12497360904E+02  0.44217464557E+03  0.40000000000E+03 0. -1.
<mgrwt>
<rscale>  2 0.44199800E+03</rscale>
<asrwt>0</asrwt>
<pdfrwt beam="1">  1       21 0.50203788E-01 0.44199800E+03</pdfrwt>
<pdfrwt beam="2">  1       21 0.10237277E+00 0.44199800E+03</pdfrwt>
<totfact> 0.25488728E+03</totfact>
</mgrwt>
</event>
<event>
 4    1  0.4821294E-002  0.4046932E+03  0.7818608E-02  0.1042167E+00
         21   -1    0    0  503  502  0.00000000000E+00  0.00000000000E+00  0.69397906858E+03  0.69397906858E+03  0.00000000000E+00 0. -1.
         21   -1    0    0  501  503 -0.00000000000E+00 -0.00000000000E+00 -0.26006629189E+03  0.26006629189E+03  0.00000000000E+00 0. -1.
    9000007    1    1    2  501    0  0.41955636172E+02 -0.44902979420E+02  0.71834078921E+02  0.41101908455E+03  0.40000000000E+03 0. -1.
   -9000007    1    1    2    0  502 -0.41955636172E+02  0.44902979420E+02  0.36207869777E+03  0.54302627593E+03  0.40000000000E+03 0. -1.
<mgrwt>
<rscale>  2 0.40469316E+03</rscale>
<asrwt>0</asrwt>
<pdfrwt beam="1">  1       21 0.10676601E+00 0.40469316E+03</pdfrwt>
<pdfrwt beam="2">  1       21 0.40010199E-01 0.40469316E+03</pdfrwt>
<totfact> 0.37482769E+03</totfact>
</mgrwt>
</event>
<event>
 4    1  0.4821294E-002  0.5017037E+03  0.7818608E-02  0.1013335E+00
         21   -1    0    0  501  502  0.00000000000E+00  0.00000000000E+00  0.12116032347E+04  0.12116032347E+04  0.00000000000E+00 0. -1.
         21   -1    0    0  502  503 -0.00000000000E+00 -0.00000000000E+00 -0.50268141892E+03  0.50268141892E+03  0.00000000000E+00 0.  1.
    9000007    1    1    2  501    0  0.21858107062E+03 -0.20959231413E+03  0.10110133871E+04  0.11286517140E+04  0.40000000000E+03 0. -1.
   -9000007    1    1    2    0  503 -0.21858107062E+03  0.20959231413E+03 -0.30209157129E+03  0.58563293967E+03  0.40000000000E+03 0.  1.
<mgrwt>
<rscale>  2 0.50170372E+03</rscale>
<asrwt>0</asrwt>
<pdfrwt beam="1">  1       21 0.18640050E+00 0.50170372E+03</pdfrwt>
<pdfrwt beam="2">  1       21 0.77335603E-01 0.50170372E+03</pdfrwt>
<totfact> 0.19322229E+02</totfact>
</mgrwt>
</event>
<event>
 4    1  0.4821294E-002  0.4138757E+03  0.7818608E-02  0.1039078E+00
         21   -1    0    0  503  502  0.00000000000E+00  0.00000000000E+00  0.36046164230E+03  0.36046164230E+03  0.00000000000E+00 0.  1.
         21   -1    0    0  501  503 -0.00000000000E+00 -0.00000000000E+00 -0.79450101020E+03  0.79450101020E+03  0.00000000000E+00 0. -1.
    9000007    1    1    2  501    0  0.68152722321E+02 -0.81536979384E+02 -0.58310950777E+03  0.71505927769E+03  0.40000000000E+03 0. -1.
   -9000007    1    1    2    0  502 -0.68152722321E+02  0.81536979384E+02  0.14907013987E+03  0.43990337481E+03  0.40000000000E+03 0.  1.
<mgrwt>
<rscale>  2 0.41387567E+03</rscale>
<asrwt>0</asrwt>
<pdfrwt beam="1">  1       21 0.55455637E-01 0.41387567E+03</pdfrwt>
<pdfrwt beam="2">  1       21 0.12223093E+00 0.41387567E+03</pdfrwt>
<totfact> 0.13395271E+03</totfact>
</mgrwt>
</event>
<event>
 4    1  0.4821294E-002  0.5187682E+03  0.7818608E-02  0.1008993E+00
         21   -1    0    0  501  502  0.00000000000E+00  0.00000000000E+00  0.49397662068E+03  0.49397662068E+03  0.00000000000E+00 0.  1.
         21   -1    0    0  502  503 -0.00000000000E+00 -0.00000000000E+00 -0.54668679166E+03  0.54668679166E+03  0.00000000000E+00 0.  1.
    9000007    1    1    2  501    0 -0.29125635044E+03  0.15585303513E+03  0.41810550030E+01  0.51878503395E+03  0.40000000000E+03 0.  1.
   -9000007    1    1    2    0  503  0.29125635044E+03 -0.15585303513E+03 -0.56891225981E+02  0.52187837838E+03  0.40000000000E+03 0.  1.
<mgrwt>
<rscale>  2 0.51876819E+03</rscale>
<asrwt>0</asrwt>
<pdfrwt beam="1">  1       21 0.75996403E-01 0.51876819E+03</pdfrwt>
<pdfrwt beam="2">  1       21 0.84105660E-01 0.51876819E+03</pdfrwt>
<totfact> 0.15894219E+03</totfact>
</mgrwt>
</event>
<event>
 4    1  0.4821294E-002  0.4329261E+03  0.7818608E-02  0.1032940E+00
         21   -1    0    0  503  502  0.00000000000E+00  0.00000000000E+00  0.61684368419E+03  0.61684368419E+03  0.00000000000E+00 0.  1.
         21   -1    0    0  501  503 -0.00000000000E+00 -0.00000000000E+00 -0.30386561303E+03  0.30386561303E+03  0.00000000000E+00 0. -1.
    9000007    1    1    2  501    0  0.51321566910E+02 -0.15745179963E+03  0.15271285452E+03  0.45907100581E+03  0.40000000000E+03 0. -1.
   -9000007    1    1    2    0  502 -0.51321566910E+02  0.15745179963E+03  0.16026521663E+03  0.46163829141E+03  0.40000000000E+03 0.  1.
<mgrwt>
<rscale>  2 0.43292606E+03</rscale>
<asrwt>0</asrwt>
<pdfrwt beam="1">  1       21 0.94899028E-01 0.43292606E+03</pdfrwt>
<pdfrwt beam="2">  1       21 0.46748556E-01 0.43292606E+03</pdfrwt>
<totfact> 0.35723798E+03</totfact>
</mgrwt>
</event>
<event>
 4    1  0.4821294E-002  0.4042410E+03  0.7818608E-02  0.1042321E+00
         21   -1    0    0  501  502  0.00000000000E+00  0.00000000000E+00  0.13462482809E+03  0.13462482809E+03  0.00000000000E+00 0.  1.
         21   -1    0    0  502  503 -0.00000000000E+00 -0.00000000000E+00 -0.15443330223E+04  0.15443330223E+04  0.00000000000E+00 0. -1.
    9000007    1    1    2  501    0  0.56043520847E+02 -0.16429502710E+02 -0.31649705368E+03  0.51340158724E+03  0.40000000000E+03 0.  1.
   -9000007    1    1    2    0  503 -0.56043520847E+02  0.16429502710E+02 -0.10932111405E+04  0.11655562632E+04  0.40000000000E+03 0. -1.
<mgrwt>
<rscale>  2 0.40424102E+03</rscale>
<asrwt>0</asrwt>
<pdfrwt beam="1">  1       21 0.20711512E-01 0.40424102E+03</pdfrwt>
<pdfrwt beam="2">  1       21 0.23758969E+00 0.40424102E+03</pdfrwt>
<totfact> 0.14460067E+03</totfact>
</mgrwt>
</event>
<event>
 4    1  0.4821294E-002  0.4068003E+03  0.7818608E-02  0.1041450E+00
         21   -1    0    0  501  502  0.00000000000E+00  0.00000000000E+00  0.11468194976E+04  0.11468194976E+04  0.00000000000E+00 0. -1.
         21   -1    0    0  502  503 -0.00000000000E+00 -0.00000000000E+00 -0.27081611016E+03  0.27081611016E+03  0.00000000000E+00 0. -1.
    9000007    1    1    2  501    0 -0.64020524108E+02 -0.37254259541E+02  0.92247472402E+03  0.10081895277E+04  0.40000000000E+03 0. -1.
   -9000007    1    1    2    0  503  0.64020524108E+02  0.37254259541E+02 -0.46471336556E+02  0.40944608007E+03  0.40000000000E+03 0. -1.
<mgrwt>
<rscale>  2 0.40680033E+03</rscale>
<asrwt>0</asrwt>
<pdfrwt beam="1">  1       21 0.17643377E+00 0.40680033E+03</pdfrwt>
<pdfrwt beam="2">  1       21 0.41664018E-01 0.40680033E+03</pdfrwt>
<totfact> 0.91289077E+02</totfact>
</mgrwt>
</event>
<event>
 4    1  0.4821294E-002  0.4634815E+03  0.7818608E-02  0.1023776E+00
         21   -1    0    0  501  502  0.00000000000E+00  0.00000000000E+00  0.69308243428E+03  0.69308243428E+03  0.00000000000E+00 0.  1.
         21   -1    0    0  502  503 -0.00000000000E+00 -0.00000000000E+00 -0.31541099826E+03  0.31541099826E+03  0.00000000000E+00 0.  1.
    9000007    1    1    2  501    0 -0.90797369231E+02  0.21580301904E+03  0.12243497970E+03  0.47938025568E+03  0.40000000000E+03 0.  1.
   -9000007    1    1    2    0  503  0.90797369231E+02 -0.21580301904E+03  0.25523645633E+03  0.52911317686E+03  0.40000000000E+03 0.  1.
<mgrwt>
<rscale>  2 0.46348150E+03</rscale>
<asrwt>0</asrwt>
<pdfrwt beam="1">  1       21 0.10662807E+00 0.46348150E+03</pdfrwt>
<pdfrwt beam="2">  1       21 0.48524769E-01 0.46348150E+03</pdfrwt>
<totfact> 0.24592843E+03</totfact>
</mgrwt>
</event>
<event>
 4    1  0.4821294E-002  0.4556819E+03  0.7818608E-02  0.1026041E+00
         21   -1    0    0  503  502  0.00000000000E+00  0.00000000000E+00  0.17891017478E+03  0.17891017478E+03  0.00000000000E+00 0. -1.
         21   -1    0    0  501  503 -0.00000000000E+00 -0.00000000000E+00 -0.12529795541E+04  0.12529795541E+04  0.00000000000E+00 0. -1.
    9000007    1    1    2  501    0  0.20410172344E+03 -0.77385455434E+02 -0.73141745747E+03  0.86175258591E+03  0.40000000000E+03 0. -1.
   -9000007    1    1    2    0  502 -0.20410172344E+03  0.77385455434E+02 -0.34265192180E+03  0.57013714292E+03  0.40000000000E+03 0. -1.
<mgrwt>
<rscale>  2 0.45568193E+03</rscale>
<asrwt>0</asrwt>
<pdfrwt beam="1">  1       21 0.27524642E-01 0.45568193E+03</pdfrwt>
<pdfrwt beam="2">  1       21 0.19276609E+00 0.45568193E+03</pdfrwt>
<totfact> 0.15852806E+03</totfact>
</mgrwt>
</event>
<event>
 4    1  0.4821294E-002  0.4010791E+03  0.7818608E-02  0.1043407E+00
         21   -1    0    0  501  502  0.00000000000E+00  0.00000000000E+00  0.21706763495E+03  0.21706763495E+03  0.00000000000E+00 0. -1.
         21   -1    0    0  502  503 -0.00000000000E+00 -0.00000000000E+00 -0.42135182526E+04  0.42135182526E+04  0.00000000000E+00 0. -1.
    9000007    1    1    2  501    0  0.29200322837E+02 -0.34314196932E+01  0.12839213167E+02  0.40128453607E+03  0.40000000000E+03 0. -1.
   -9000007    1    1    2    0  503 -0.29200322837E+02  0.34314196932E+01 -0.40092898308E+04  0.40293013515E+04  0.40000000000E+03 0. -1.
<mgrwt>
<rscale>  2 0.40107909E+03</rscale>
<asrwt>0</asrwt>
<pdfrwt beam="1">  1       21 0.33395021E-01 0.40107909E+03</pdfrwt>
<pdfrwt beam="2">  1       21 0.64823358E+00 0.40107909E+03</pdfrwt>
<totfact> 0.89218434E-01</totfact>
</mgrwt>
</event>
<event>
 4    1  0.4821294E-002  0.4939953E+03  0.7818608E-02  0.1015358E+00
         21   -1    0    0  501  502  0.00000000000E+00  0.00000000000E+00  0.41487170780E+03  0.41487170780E+03  0.00000000000E+00 0.  1.
         21   -1    0    0  502  503 -0.00000000000E+00 -0.00000000000E+00 -0.84355072116E+03  0.84355072116E+03  0.00000000000E+00 0. -1.
    9000007    1    1    2  501    0 -0.18718486478E+03 -0.22134399176E+03  0.13184020643E+03  0.51128580689E+03  0.40000000000E+03 0.  1.
   -9000007    1    1    2    0  503  0.18718486478E+03  0.22134399176E+03 -0.56051921978E+03  0.74713662207E+03  0.40000000000E+03 0. -1.
<mgrwt>
<rscale>  2 0.49399528E+03</rscale>
<asrwt>0</asrwt>
<pdfrwt beam="1">  1       21 0.63826416E-01 0.49399528E+03</pdfrwt>
<pdfrwt beam="2">  1       21 0.12977703E+00 0.49399528E+03</pdfrwt>
<totfact> 0.81628275E+02</totfact>
</mgrwt>
</event>
<event>
 4    1  0.4821294E-002  0.4747885E+03  0.7818608E-02  0.1020577E+00
         21   -1    0    0  503  502  0.00000000000E+00  0.00000000000E+00  0.94372205242E+03  0.94372205242E+03  0.00000000000E+00 0. -1.
         21   -1    0    0  501  503 -0.00000000000E+00 -0.00000000000E+00 -0.23984855490E+03  0.23984855490E+03  0.00000000000E+00 0. -1.
    9000007    1    1    2  501    0  0.25082439633E+03  0.50111992670E+02  0.38979363807E+03  0.61429892551E+03  0.40000000000E+03 0. -1.
   -9000007    1    1    2    0  502 -0.25082439633E+03 -0.50111992670E+02  0.31407985945E+03  0.56927168182E+03  0.40000000000E+03 0. -1.
<mgrwt>
<rscale>  2 0.47478847E+03</rscale>
<asrwt>0</asrwt>
<pdfrwt beam="1">  1       21 0.14518801E+00 0.47478847E+03</pdfrwt>
<pdfrwt beam="2">  1       21 0.36899778E-01 0.47478847E+03</pdfrwt>
<totfact> 0.19569712E+03</totfact>
</mgrwt>
</event>
<event>
 4    1  0.4821294E-002  0.4275273E+03  0.7818608E-02  0.1034644E+00
         21   -1    0    0  501  502  0.00000000000E+00  0.00000000000E+00  0.55852567787E+03  0.55852567787E+03  0.00000000000E+00 0. -1.
         21   -1    0    0  502  503 -0.00000000000E+00 -0.00000000000E+00 -0.32807356606E+03  0.32807356606E+03  0.00000000000E+00 0. -1.
    9000007    1    1    2  501    0  0.13245240535E+03 -0.72359827701E+02  0.93065121436E+02  0.43753937100E+03  0.40000000000E+03 0.  1.
   -9000007    1    1    2    0  503 -0.13245240535E+03  0.72359827701E+02  0.13738699038E+03  0.44905987293E+03  0.40000000000E+03 0.  1.
<mgrwt>
<rscale>  2 0.42752729E+03</rscale>
<asrwt>0</asrwt>
<pdfrwt beam="1">  1       21 0.85927027E-01 0.42752729E+03</pdfrwt>
<pdfrwt beam="2">  1       21 0.50472856E-01 0.42752729E+03</pdfrwt>
<totfact> 0.38501935E+03</totfact>
</mgrwt>
</event>
<event>
 4    1  0.4821294E-002  0.5513453E+03  0.7818608E-02  0.1001183E+00
         21   -1    0    0  503  502  0.00000000000E+00  0.00000000000E+00  0.20056281480E+04  0.20056281480E+04  0.00000000000E+00 0.  1.
         21   -1    0    0  501  503 -0.00000000000E+00 -0.00000000000E+00 -0.15613955592E+03  0.15613955592E+03  0.00000000000E+00 0.  1.
    9000007    1    1    2  501    0  0.28840357366E+03  0.24658683263E+03  0.11097686135E+04  0.12391803997E+04  0.40000000000E+03 0.  1.
   -9000007    1    1    2    0  502 -0.28840357366E+03 -0.24658683263E+03  0.73971997855E+03  0.92258730426E+03  0.40000000000E+03 0.  1.
<mgrwt>
<rscale>  2 0.55134534E+03</rscale>
<asrwt>0</asrwt>
<pdfrwt beam="1">  1       21 0.30855816E+00 0.55134534E+03</pdfrwt>
<pdfrwt beam="2">  1       21 0.24021472E-01 0.55134534E+03</pdfrwt>
<totfact> 0.37373955E+02</totfact>
</mgrwt>
</event>
<event>
 4    1  0.4821294E-002  0.4889759E+03  0.7818608E-02  0.1016697E+00
         21   -1    0    0  501  502  0.00000000000E+00  0.00000000000E+00  0.75019377161E+03  0.75019377161E+03  0.00000000000E+00 0. -1.
         21   -1    0    0  502  503 -0.00000000000E+00 -0.00000000000E+00 -0.38708025580E+03  0.38708025580E+03  0.00000000000E+00 0. -1.
    9000007    1    1    2  501    0 -0.25547582750E+03  0.11759902444E+03  0.42053303348E+03  0.64493833909E+03  0.40000000000E+03 0. -1.
   -9000007    1    1    2    0  503  0.25547582750E+03 -0.11759902444E+03 -0.57419517666E+02  0.49233568832E+03  0.40000000000E+03 0. -1.
<mgrwt>
<rscale>  2 0.48897590E+03</rscale>
<asrwt>0</asrwt>
<pdfrwt beam="1">  1       21 0.11541443E+00 0.48897590E+03</pdfrwt>
<pdfrwt beam="2">  1       21 0.59550809E-01 0.48897590E+03</pdfrwt>
<totfact> 0.12869628E+03</totfact>
</mgrwt>
</event>
<event>
 4    1  0.4821294E-002  0.4517797E+03  0.7818608E-02  0.1027193E+00
         21   -1    0    0  503  502  0.00000000000E+00  0.00000000000E+00  0.72462972085E+03  0.72462972085E+03  0.00000000000E+00 0.  1.
         21   -1    0    0  501  503 -0.00000000000E+00 -0.00000000000E+00 -0.34569445749E+03  0.34569445749E+03  0.00000000000E+00 0.  1.
    9000007    1    1    2  501    0 -0.19193200081E+03  0.85246698776E+02 -0.40845866288E+02  0.45362239515E+03  0.40000000000E+03 0.  1.
   -9000007    1    1    2    0  502  0.19193200081E+03 -0.85246698776E+02  0.41978112964E+03  0.61670178319E+03  0.40000000000E+03 0.  1.
<mgrwt>
<rscale>  2 0.45177969E+03</rscale>
<asrwt>0</asrwt>
<pdfrwt beam="1">  1       21 0.11148150E+00 0.45177969E+03</pdfrwt>
<pdfrwt beam="2">  1       21 0.53183763E-01 0.45177969E+03</pdfrwt>
<totfact> 0.18190522E+03</totfact>
</mgrwt>
</event>
<event>
 4    1  0.4821294E-002  0.4556977E+03  0.7818608E-02  0.1026036E+00
         21   -1    0    0  501  502  0.00000000000E+00  0.00000000000E+00  0.17268744625E+04  0.17268744625E+04  0.00000000000E+00 0.  1.
         21   -1    0    0  502  503 -0.00000000000E+00 -0.00000000000E+00 -0.15334875316E+03  0.15334875316E+03  0.00000000000E+00 0.  1.
    9000007    1    1    2  501    0  0.12505932494E+03 -0.17894300976E+03  0.12235106699E+04  0.13056181658E+04  0.40000000000E+03 0.  1.
   -9000007    1    1    2    0  503 -0.12505932494E+03  0.17894300976E+03  0.35001503942E+03  0.57460504985E+03  0.40000000000E+03 0.  1.
<mgrwt>
<rscale>  2 0.45569775E+03</rscale>
<asrwt>0</asrwt>
<pdfrwt beam="1">  1       21 0.26567298E+00 0.45569775E+03</pdfrwt>
<pdfrwt beam="2">  1       21 0.23592117E-01 0.45569775E+03</pdfrwt>
<totfact> 0.73787031E+02</totfact>
</mgrwt>
</event>
<event>
 4    1  0.4821294E-002  0.4849130E+03  0.7818608E-02  0.1017794E+00
         21   -1    0    0  501  502  0.00000000000E+00  0.00000000000E+00  0.39365299984E+03  0.39365299984E+03  0.00000000000E+00 0. -1.
         21   -1    0    0  502  503 -0.00000000000E+00 -0.00000000000E+00 -0.85044829214E+03  0.85044829214E+03  0.00000000000E+00 0.  1.
    9000007    1    1    2  501    0 -0.21869308483E+03  0.16526938750E+03  0.11096481089E+03  0.49744730882E+03  0.40000000000E+03 0.  1.
   -9000007    1    1    2    0  503  0.21869308483E+03 -0.16526938750E+03 -0.56776010319E+03  0.74665398316E+03  0.40000000000E+03 0.  1.
<mgrwt>
<rscale>  2 0.48491302E+03</rscale>
<asrwt>0</asrwt>
<pdfrwt beam="1">  1       21 0.60562001E-01 0.48491302E+03</pdfrwt>
<pdfrwt beam="2">  1       21 0.13083820E+00 0.48491302E+03</pdfrwt>
<totfact> 0.90069377E+02</totfact>
</mgrwt>
</event>
<event>
 4    1  0.4821294E-002  0.6084760E+03  0.7818608E-02  0.9887975E-01
         21   -1    0    0  503  502  0.00000000000E+00  0.00000000000E+00  0.33535664435E+03  0.33535664435E+03  0.00000000000E+00 0.  1.
         21   -1    0    0  501  503 -0.00000000000E+00 -0.00000000000E+00 -0.12253866002E+04  0.12253866002E+04  0.00000000000E+00 0. -1.
    9000007    1    1    2  501    0 -0.44271883045E+03 -0.11934460505E+03 -0.69059912685E+03  0.92041851980E+03  0.40000000000E+03 0. -1.
   -9000007    1    1    2    0  502  0.44271883045E+03  0.11934460505E+03 -0.19943082901E+03  0.64032472477E+03  0.40000000000E+03 0.  1.
<mgrwt>
<rscale>  2 0.60847605E+03</rscale>
<asrwt>0</asrwt>
<pdfrwt beam="1">  1       21 0.51593329E-01 0.60847605E+03</pdfrwt>
<pdfrwt beam="2">  1       21 0.18852102E+00 0.60847605E+03</pdfrwt>
<totfact> 0.43972787E+02</totfact>
</mgrwt>
</event>
<event>
 4    1  0.4821294E-002  0.4316883E+03  0.7818608E-02  0.1033328E+00
         21   -1    0    0  501  502  0.00000000000E+00  0.00000000000E+00  0.12213443892E+04  0.12213443892E+04  0.00000000000E+00 0. -1.
         21   -1    0    0  502  503 -0.00000000000E+00 -0.00000000000E+00 -0.26002073785E+03  0.26002073785E+03  0.00000000000E+00 0. -1.
    9000007    1    1    2  501    0  0.84537933600E+02 -0.13859347252E+03  0.95677386893E+03  0.10496528231E+04  0.40000000000E+03 0. -1.
   -9000007    1    1    2    0  503 -0.84537933600E+02  0.13859347252E+03  0.45497824237E+01  0.43171230393E+03  0.40000000000E+03 0. -1.
<mgrwt>
<rscale>  2 0.43168833E+03</rscale>
<asrwt>0</asrwt>
<pdfrwt beam="1">  1       21 0.18789913E+00 0.43168833E+03</pdfrwt>
<pdfrwt beam="2">  1       21 0.40003191E-01 0.43168833E+03</pdfrwt>
<totfact> 0.81570643E+02</totfact>
</mgrwt>
</event>
<event>
 4    1  0.4821294E-002  0.4373734E+03  0.7818608E-02  0.1031556E+00
         21   -1    0    0  501  502  0.00000000000E+00  0.00000000000E+00  0.31949196037E+03  0.31949196037E+03  0.00000000000E+00 0.  1.
         21   -1    0    0  502  503 -0.00000000000E+00 -0.00000000000E+00 -0.12347916474E+04  0.12347916474E+04  0.00000000000E+00 0.  1.
    9000007    1    1    2  501    0  0.17263287485E+03  0.38643811134E+02  0.10010915882E+03  0.44868396149E+03  0.40000000000E+03 0.  1.
   -9000007    1    1    2    0  503 -0.17263287485E+03 -0.38643811134E+02 -0.10154088459E+04  0.11055996463E+04  0.40000000000E+03 0.  1.
<mgrwt>
<rscale>  2 0.43737336E+03</rscale>
<asrwt>0</asrwt>
<pdfrwt beam="1">  1       21 0.49152610E-01 0.43737336E+03</pdfrwt>
<pdfrwt beam="2">  1       21 0.18996794E+00 0.43737336E+03</pdfrwt>
<totfact> 0.51201920E+02</totfact>
</mgrwt>
</event>
<event>
 4    1  0.4821294E-002  0.5763860E+03  0.7818608E-02  0.9955646E-01
         21   -1    0    0  501  502  0.00000000000E+00  0.00000000000E+00  0.78572776812E+03  0.78572776812E+03  0.00000000000E+00 0.  1.
         21   -1    0    0  502  503 -0.00000000000E+00 -0.00000000000E+00 -0.11869487830E+04  0.11869487830E+04  0.00000000000E+00 0. -1.
    9000007    1    1    2  501    0  0.41250084590E+03 -0.45429618194E+02  0.59078466979E+03  0.82537707997E+03  0.40000000000E+03 0.  1.
   -9000007    1    1    2    0  503 -0.41250084590E+03  0.45429618194E+02 -0.99200568466E+03  0.11472994711E+04  0.40000000000E+03 0. -1.
<mgrwt>
<rscale>  2 0.57638598E+03</rscale>
<asrwt>0</asrwt>
<pdfrwt beam="1">  1       21 0.12088119E+00 0.57638598E+03</pdfrwt>
<pdfrwt beam="2">  1       21 0.18260751E+00 0.57638598E+03</pdfrwt>
<totfact> 0.67261951E+01</totfact>
</mgrwt>
</event>
<event>
 4    1  0.4821294E-002  0.5357030E+03  0.7818608E-02  0.1004858E+00
         21   -1    0    0  503  502  0.00000000000E+00  0.00000000000E+00  0.26375595462E+03  0.26375595462E+03  0.00000000000E+00 0. -1.
         21   -1    0    0  501  503 -0.00000000000E+00 -0.00000000000E+00 -0.10882284235E+04  0.10882284235E+04  0.00000000000E+00 0. -1.
    9000007    1    1    2  501    0  0.32439097368E+03  0.14747263235E+03 -0.42107273777E+03  0.68138090052E+03  0.40000000000E+03 0. -1.
   -9000007    1    1    2    0  502 -0.32439097368E+03 -0.14747263235E+03 -0.40339973110E+03  0.67060347758E+03  0.40000000000E+03 0. -1.
<mgrwt>
<rscale>  2 0.53570298E+03</rscale>
<asrwt>0</asrwt>
<pdfrwt beam="1">  1       21 0.40577841E-01 0.53570298E+03</pdfrwt>
<pdfrwt beam="2">  1       21 0.16741975E+00 0.53570298E+03</pdfrwt>
<totfact> 0.10611687E+03</totfact>
</mgrwt>
</event>
<event>
 4    1  0.4821294E-002  0.4128875E+03  0.7818608E-02  0.1039406E+00
         21   -1    0    0  501  502  0.00000000000E+00  0.00000000000E+00  0.12104544677E+04  0.12104544677E+04  0.00000000000E+00 0. -1.
         21   -1    0    0  502  503 -0.00000000000E+00 -0.00000000000E+00 -0.17161984211E+03  0.17161984211E+03  0.00000000000E+00 0. -1.
    9000007    1    1    2  501    0  0.43773629551E+02  0.92519896437E+02  0.81208593824E+03  0.91102120336E+03  0.40000000000E+03 0. -1.
   -9000007    1    1    2    0  503 -0.43773629551E+02 -0.92519896437E+02  0.22674868736E+03  0.47105310645E+03  0.40000000000E+03 0. -1.
<mgrwt>
<rscale>  2 0.41288747E+03</rscale>
<asrwt>0</asrwt>
<pdfrwt beam="1">  1       21 0.18622376E+00 0.41288747E+03</pdfrwt>
<pdfrwt beam="2">  1       21 0.26403053E-01 0.41288747E+03</pdfrwt>
<totfact> 0.19428907E+03</totfact>
</mgrwt>
</event>
<event>
 4    1  0.4821294E-002  0.4886919E+03  0.7818608E-02  0.1016773E+00
         21   -1    0    0  501  502  0.00000000000E+00  0.00000000000E+00  0.11553616549E+03  0.11553616549E+03  0.00000000000E+00 0. -1.
         21   -1    0    0  502  503 -0.00000000000E+00 -0.00000000000E+00 -0.23597398351E+04  0.23597398351E+04  0.00000000000E+00 0. -1.
    9000007    1    1    2  501    0 -0.24252514446E+03 -0.14142599930E+03 -0.68622808166E+03  0.84245399817E+03  0.40000000000E+03 0. -1.
   -9000007    1    1    2    0  503  0.24252514446E+03  0.14142599930E+03 -0.15579755880E+04  0.16328220025E+04  0.40000000000E+03 0. -1.
<mgrwt>
<rscale>  2 0.48869189E+03</rscale>
<asrwt>0</asrwt>
<pdfrwt beam="1">  1       21 0.17774795E-01 0.48869189E+03</pdfrwt>
<pdfrwt beam="2">  1       21 0.36303689E+00 0.48869189E+03</pdfrwt>
<totfact> 0.31867660E+02</totfact>
</mgrwt>
</event>
<event>
 4    1  0.4821294E-002  0.5825221E+03  0.7818608E-02  0.9942346E-01
         21   -1    0    0  503  502  0.00000000000E+00  0.00000000000E+00  0.93085043845E+03  0.93085043845E+03  0.00000000000E+00 0. -1.
         21   -1    0    0  501  503 -0.00000000000E+00 -0.00000000000E+00 -0.46131644647E+03  0.46131644647E+03  0.00000000000E+00 0.  1.
    9000007    1    1    2  501    0  0.41417452160E+03  0.88269382216E+02 -0.84054175862E+02  0.58855511438E+03  0.40000000000E+03 0.  1.
   -9000007    1    1    2    0  502 -0.41417452160E+03 -0.88269382216E+02  0.55358816784E+03  0.80361177054E+03  0.40000000000E+03 0.  1.
<mgrwt>
<rscale>  2 0.58252212E+03</rscale>
<asrwt>0</asrwt>
<pdfrwt beam="1">  1       21 0.14320776E+00 0.58252212E+03</pdfrwt>
<pdfrwt beam="2">  1       21 0.70971761E-01 0.58252212E+03</pdfrwt>
<totfact> 0.47969023E+02</totfact>
</mgrwt>
</event>
<event>
 4    1  0.4821294E-002  0.4526375E+03  0.7818608E-02  0.1026938E+00
         21   -1    0    0  501  502  0.00000000000E+00  0.00000000000E+00  0.84372450479E+03  0.84372450479E+03  0.00000000000E+00 0. -1.
         21   -1    0    0  502  503 -0.00000000000E+00 -0.00000000000E+00 -0.24654000326E+03  0.24654000326E+03  0.00000000000E+00 0.  1.
    9000007    1    1    2  501    0 -0.43282960501E+02  0.20738207439E+03  0.36547382795E+03  0.58176615436E+03  0.40000000000E+03 0.  1.
   -9000007    1    1    2    0  503  0.43282960501E+02 -0.20738207439E+03  0.23171067358E+03  0.50849835368E+03  0.40000000000E+03 0.  1.
<mgrwt>
<rscale>  2 0.45263754E+03</rscale>
<asrwt>0</asrwt>
<pdfrwt beam="1">  1       21 0.12980377E+00 0.45263754E+03</pdfrwt>
<pdfrwt beam="2">  1       21 0.37929232E-01 0.45263754E+03</pdfrwt>
<totfact> 0.25081162E+03</totfact>
</mgrwt>
</event>
<event>
 4    1  0.4821294E-002  0.6572067E+03  0.7818608E-02  0.9793350E-01
         21   -1    0    0  503  502  0.00000000000E+00  0.00000000000E+00  0.73495199440E+03  0.73495199440E+03  0.00000000000E+00 0.  1.
         21   -1    0    0  501  503 -0.00000000000E+00 -0.00000000000E+00 -0.13061829643E+04  0.13061829643E+04  0.00000000000E+00 0.  1.
    9000007    1    1    2  501    0 -0.48623155601E+03  0.18841310625E+03 -0.10425395967E+04  0.12323998683E+04  0.40000000000E+03 0.  1.
   -9000007    1    1    2    0  502  0.48623155601E+03 -0.18841310625E+03  0.47130862684E+03  0.80873509038E+03  0.40000000000E+03 0.  1.
<mgrwt>
<rscale>  2 0.65720668E+03</rscale>
<asrwt>0</asrwt>
<pdfrwt beam="1">  1       21 0.11306954E+00 0.65720668E+03</pdfrwt>
<pdfrwt beam="2">  1       21 0.20095122E+00 0.65720668E+03</pdfrwt>
<totfact> 0.57553441E+01</totfact>
</mgrwt>
</event>
<event>
 4    1  0.4821294E-002  0.4245787E+03  0.7818608E-02  0.1035586E+00
         21   -1    0    0  501  502  0.00000000000E+00  0.00000000000E+00  0.47602203908E+03  0.47602203908E+03  0.00000000000E+00 0.  1.
         21   -1    0    0  502  503 -0.00000000000E+00 -0.00000000000E+00 -0.38768075868E+03  0.38768075868E+03  0.00000000000E+00 0.  1.
    9000007    1    1    2  501    0 -0.14235975566E+03  0.90243432818E+00  0.10991783173E+03  0.43857615548E+03  0.40000000000E+03 0. -1.
   -9000007    1    1    2    0  503  0.14235975566E+03 -0.90243432818E+00 -0.21576551335E+02  0.42512664229E+03  0.40000000000E+03 0. -1.
<mgrwt>
<rscale>  2 0.42457875E+03</rscale>
<asrwt>0</asrwt>
<pdfrwt beam="1">  1       21 0.73234160E-01 0.42457875E+03</pdfrwt>
<pdfrwt beam="2">  1       21 0.59643194E-01 0.42457875E+03</pdfrwt>
<totfact> 0.38863873E+03</totfact>
</mgrwt>
</event>
<event>
 4    1  0.4821294E-002  0.4099182E+03  0.7818608E-02  0.1040398E+00
         21   -1    0    0  501  502  0.00000000000E+00  0.00000000000E+00  0.13737055783E+03  0.13737055783E+03  0.00000000000E+00 0. -1.
         21   -1    0    0  502  503 -0.00000000000E+00 -0.00000000000E+00 -0.12735917426E+04  0.12735917426E+04  0.00000000000E+00 0. -1.
    9000007    1    1    2  501    0 -0.50283675492E+02  0.74192401723E+02 -0.70842729977E+03  0.81847553388E+03  0.40000000000E+03 0.  1.
   -9000007    1    1    2    0  503  0.50283675492E+02 -0.74192401723E+02 -0.42779388496E+03  0.59248676652E+03  0.40000000000E+03 0.  1.
<mgrwt>
<rscale>  2 0.40991824E+03</rscale>
<asrwt>0</asrwt>
<pdfrwt beam="1">  1       21 0.21133931E-01 0.40991824E+03</pdfrwt>
<pdfrwt beam="2">  1       21 0.19593720E+00 0.40991824E+03</pdfrwt>
<totfact> 0.25685549E+03</totfact>
</mgrwt>
</event>
<event>
 4    1  0.4821294E-002  0.4582705E+03  0.7818608E-02  0.1025284E+00
         21   -1    0    0  503  502  0.00000000000E+00  0.00000000000E+00  0.30818515780E+03  0.30818515780E+03  0.00000000000E+00 0.  1.
         21   -1    0    0  501  503 -0.00000000000E+00 -0.00000000000E+00 -0.74925399783E+03  0.74925399783E+03  0.00000000000E+00 0.  1.
    9000007    1    1    2  501    0 -0.23921979650E+02  0.22235021773E+03 -0.37958959810E+03  0.59506314238E+03  0.40000000000E+03 0.  1.
   -9000007    1    1    2    0  502  0.23921979650E+02 -0.22235021773E+03 -0.61479241930E+02  0.46237601324E+03  0.40000000000E+03 0.  1.
<mgrwt>
<rscale>  2 0.45827053E+03</rscale>
<asrwt>0</asrwt>
<pdfrwt beam="1">  1       21 0.47413102E-01 0.45827053E+03</pdfrwt>
<pdfrwt beam="2">  1       21 0.11526984E+00 0.45827053E+03</pdfrwt>
<totfact> 0.21319357E+03</totfact>
</mgrwt>
</event>
<event>
 4    1  0.4821294E-002  0.4951816E+03  0.7818608E-02  0.1015044E+00
         21   -1    0    0  501  502  0.00000000000E+00  0.00000000000E+00  0.21064336592E+03  0.21064336592E+03  0.00000000000E+00 0.  1.
         21   -1    0    0  502  503 -0.00000000000E+00 -0.00000000000E+00 -0.12130069818E+04  0.12130069818E+04  0.00000000000E+00 0. -1.
    9000007    1    1    2  501    0 -0.22001079434E+03 -0.19183342869E+03 -0.35821500948E+03  0.61116512254E+03  0.40000000000E+03 0.  1.
   -9000007    1    1    2    0  503  0.22001079434E+03  0.19183342869E+03 -0.64414860637E+03  0.81248522515E+03  0.40000000000E+03 0. -1.
<mgrwt>
<rscale>  2 0.49518160E+03</rscale>
<asrwt>0</asrwt>
<pdfrwt beam="1">  1       21 0.32406671E-01 0.49518160E+03</pdfrwt>
<pdfrwt beam="2">  1       21 0.18661646E+00 0.49518160E+03</pdfrwt>
<totfact> 0.12420993E+03</totfact>
</mgrwt>
</event>
<event>
 4    1  0.4821294E-002  0.4268469E+03  0.7818608E-02  0.1034861E+00
         21   -1    0    0  503  502  0.00000000000E+00  0.00000000000E+00  0.84047712092E+03  0.84047712092E+03  0.00000000000E+00 0. -1.
         21   -1    0    0  501  503 -0.00000000000E+00 -0.00000000000E+00 -0.41942677785E+03  0.41942677785E+03  0.00000000000E+00 0. -1.
    9000007    1    1    2  501    0 -0.14317904357E+03 -0.41206794192E+02 -0.22734937253E+03  0.48361759232E+03  0.40000000000E+03 0. -1.
   -9000007    1    1    2    0  502  0.14317904357E+03  0.41206794192E+02  0.64839971560E+03  0.77628630646E+03  0.40000000000E+03 0. -1.
<mgrwt>
<rscale>  2 0.42684686E+03</rscale>
<asrwt>0</asrwt>
<pdfrwt beam="1">  1       21 0.12930417E+00 0.42684686E+03</pdfrwt>
<pdfrwt beam="2">  1       21 0.64527197E-01 0.42684686E+03</pdfrwt>
<totfact> 0.82747200E+02</totfact>
</mgrwt>
</event>
<event>
 4    1  0.4821294E-002  0.4252625E+03  0.7818608E-02  0.1035367E+00
         21   -1    0    0  503  502  0.00000000000E+00  0.00000000000E+00  0.79006810757E+03  0.79006810757E+03  0.00000000000E+00 0.  1.
         21   -1    0    0  501  503 -0.00000000000E+00 -0.00000000000E+00 -0.24923549215E+03  0.24923549215E+03  0.00000000000E+00 0.  1.
    9000007    1    1    2  501    0 -0.13616792836E+03  0.48025819618E+02  0.12198917854E+03  0.44241331778E+03  0.40000000000E+03 0.  1.
   -9000007    1    1    2    0  502  0.13616792836E+03 -0.48025819618E+02  0.41884343688E+03  0.59689028195E+03  0.40000000000E+03 0.  1.
<mgrwt>
<rscale>  2 0.42526249E+03</rscale>
<asrwt>0</asrwt>
<pdfrwt beam="1">  1       21 0.12154894E+00 0.42526249E+03</pdfrwt>
<pdfrwt beam="2">  1       21 0.38343922E-01 0.42526249E+03</pdfrwt>
<totfact> 0.29350770E+03</totfact>
</mgrwt>
</event>
<event>
 4    1  0.4821294E-002  0.4375834E+03  0.7818608E-02  0.1031491E+00
         21   -1    0    0  501  502  0.00000000000E+00  0.00000000000E+00  0.43124059769E+03  0.43124059769E+03  0.00000000000E+00 0. -1.
         21   -1    0    0  502  503 -0.00000000000E+00 -0.00000000000E+00 -0.47170738137E+03  0.47170738137E+03  0.00000000000E+00 0. -1.
    9000007    1    1    2  501    0  0.35376050108E+02  0.17386122894E+03  0.89147645612E+02  0.44657193661E+03  0.40000000000E+03 0. -1.
   -9000007    1    1    2    0  503 -0.35376050108E+02 -0.17386122894E+03 -0.12961442929E+03  0.45637604246E+03  0.40000000000E+03 0. -1.
<mgrwt>
<rscale>  2 0.43758335E+03</rscale>
<asrwt>0</asrwt>
<pdfrwt beam="1">  1       21 0.66344707E-01 0.43758335E+03</pdfrwt>
<pdfrwt beam="2">  1       21 0.72570366E-01 0.43758335E+03</pdfrwt>
<totfact> 0.31216435E+03</totfact>
</mgrwt>
</event>
<event>
 4    1  0.4821294E-002  0.4785557E+03  0.7818608E-02  0.1019533E+00
         21   -1    0    0  503  502  0.00000000000E+00  0.00000000000E+00  0.46180513465E+03  0.46180513465E+03  0.00000000000E+00 0. -1.
         21   -1    0    0  501  503 -0.00000000000E+00 -0.00000000000E+00 -0.49845763546E+03  0.49845763546E+03  0.00000000000E+00 0.  1.
    9000007    1    1    2  501    0 -0.38154922553E+02 -0.25992259020E+03  0.15973289187E+02  0.47882219767E+03  0.40000000000E+03 0. -1.
   -9000007    1    1    2    0  502  0.38154922553E+02  0.25992259020E+03 -0.52625790001E+02  0.48144057244E+03  0.40000000000E+03 0.  1.
<mgrwt>
<rscale>  2 0.47855569E+03</rscale>
<asrwt>0</asrwt>
<pdfrwt beam="1">  1       21 0.71046944E-01 0.47855569E+03</pdfrwt>
<pdfrwt beam="2">  1       21 0.76685790E-01 0.47855569E+03</pdfrwt>
<totfact> 0.23265661E+03</totfact>
</mgrwt>
</event>
<event>
 4    1  0.4821294E-002  0.4164891E+03  0.7818608E-02  0.1038215E+00
         21   -1    0    0  503  502  0.00000000000E+00  0.00000000000E+00  0.44315957262E+03  0.44315957262E+03  0.00000000000E+00 0.  1.
         21   -1    0    0  501  503 -0.00000000000E+00 -0.00000000000E+00 -0.78096864902E+03  0.78096864902E+03  0.00000000000E+00 0.  1.
    9000007    1    1    2  501    0 -0.40925126208E+02 -0.10857414412E+03 -0.60117826394E+03  0.73135389229E+03  0.40000000000E+03 0.  1.
   -9000007    1    1    2    0  502  0.40925126208E+02  0.10857414412E+03  0.26336918754E+03  0.49277432936E+03  0.40000000000E+03 0.  1.
<mgrwt>
<rscale>  2 0.41648915E+03</rscale>
<asrwt>0</asrwt>
<pdfrwt beam="1">  1       21 0.68178397E-01 0.41648915E+03</pdfrwt>
<pdfrwt beam="2">  1       21 0.12014902E+00 0.41648915E+03</pdfrwt>
<totfact> 0.88790591E+02</totfact>
</mgrwt>
</event>
<event>
 4    1  0.4821294E-002  0.5494703E+03  0.7818608E-02  0.1001617E+00
         21   -1    0    0  501  502  0.00000000000E+00  0.00000000000E+00  0.27914556228E+03  0.27914556228E+03  0.00000000000E+00 0.  1.
         21   -1    0    0  502  503 -0.00000000000E+00 -0.00000000000E+00 -0.22544169695E+04  0.22544169695E+04  0.00000000000E+00 0. -1.
    9000007    1    1    2  501    0  0.21802539156E+03  0.30721740522E+03 -0.73935407739E+02  0.55442226683E+03  0.40000000000E+03 0.  1.
   -9000007    1    1    2    0  503 -0.21802539156E+03 -0.30721740522E+03 -0.19013359995E+04  0.19791402650E+04  0.40000000000E+03 0. -1.
<mgrwt>
<rscale>  2 0.54947030E+03</rscale>
<asrwt>0</asrwt>
<pdfrwt beam="1">  1       21 0.42945468E-01 0.54947030E+03</pdfrwt>
<pdfrwt beam="2">  1       21 0.34683341E+00 0.54947030E+03</pdfrwt>
<totfact> 0.67775599E+01</totfact>
</mgrwt>
</event>
<event>
 4    1  0.4821294E-002  0.5113078E+03  0.7818608E-02  0.1010869E+00
         21   -1    0    0  503  502  0.00000000000E+00  0.00000000000E+00  0.71266020657E+03  0.71266020657E+03  0.00000000000E+00 0. -1.
         21   -1    0    0  501  503 -0.00000000000E+00 -0.00000000000E+00 -0.64666825819E+03  0.64666825819E+03  0.00000000000E+00 0. -1.
    9000007    1    1    2  501    0 -0.31645931814E+03  0.35905094122E+02 -0.41409481191E+03  0.65795910897E+03  0.40000000000E+03 0. -1.
   -9000007    1    1    2    0  502  0.31645931814E+03 -0.35905094122E+02  0.48008676029E+03  0.70136935578E+03  0.40000000000E+03 0. -1.
<mgrwt>
<rscale>  2 0.51130781E+03</rscale>
<asrwt>0</asrwt>
<pdfrwt beam="1">  1       21 0.10964003E+00 0.51130781E+03</pdfrwt>
<pdfrwt beam="2">  1       21 0.99487424E-01 0.51130781E+03</pdfrwt>
<totfact> 0.44488586E+02</totfact>
</mgrwt>
</event>
<event>
 4    1  0.4821294E-002  0.4024271E+03  0.7818608E-02  0.1042942E+00
         21   -1    0    0  501  502  0.00000000000E+00  0.00000000000E+00  0.23154241766E+03  0.23154241766E+03  0.00000000000E+00 0.  1.
         21   -1    0    0  502  503 -0.00000000000E+00 -0.00000000000E+00 -0.15245851473E+04  0.15245851473E+04  0.00000000000E+00 0.  1.
    9000007    1    1    2  501    0  0.33766874578E+02  0.28414134505E+02 -0.54266641986E+00  0.40242745849E+03  0.40000000000E+03 0.  1.
   -9000007    1    1    2    0  503 -0.33766874578E+02 -0.28414134505E+02 -0.12925000632E+04  0.13537001065E+04  0.40000000000E+03 0.  1.
<mgrwt>
<rscale>  2 0.40242709E+03</rscale>
<asrwt>0</asrwt>
<pdfrwt beam="1">  1       21 0.35621911E-01 0.40242709E+03</pdfrwt>
<pdfrwt beam="2">  1       21 0.23455155E+00 0.40242709E+03</pdfrwt>
<totfact> 0.52192654E+02</totfact>
</mgrwt>
</event>
<event>
 4    1  0.4821294E-002  0.4225574E+03  0.7818608E-02  0.1036237E+00
         21   -1    0    0  503  502  0.00000000000E+00  0.00000000000E+00  0.81634687685E+03  0.81634687685E+03  0.00000000000E+00 0.  1.
         21   -1    0    0  501  503 -0.00000000000E+00 -0.00000000000E+00 -0.28846562528E+03  0.28846562528E+03  0.00000000000E+00 0. -1.
    9000007    1    1    2  501    0 -0.16279621834E+02  0.13523945444E+03 -0.76765756539E+01  0.42262710034E+03  0.40000000000E+03 0. -1.
   -9000007    1    1    2    0  502  0.16279621834E+02 -0.13523945444E+03  0.53555782722E+03  0.68218540179E+03  0.40000000000E+03 0.  1.
<mgrwt>
<rscale>  2 0.42255738E+03</rscale>
<asrwt>0</asrwt>
<pdfrwt beam="1">  1       21 0.12559183E+00 0.42255738E+03</pdfrwt>
<pdfrwt beam="2">  1       21 0.44379327E-01 0.42255738E+03</pdfrwt>
<totfact> 0.19975794E+03</totfact>
</mgrwt>
</event>
<event>
 4    1  0.4821294E-002  0.4394354E+03  0.7818608E-02  0.1030920E+00
         21   -1    0    0  503  502  0.00000000000E+00  0.00000000000E+00  0.20424231003E+03  0.20424231003E+03  0.00000000000E+00 0.  1.
         21   -1    0    0  501  503 -0.00000000000E+00 -0.00000000000E+00 -0.17939992331E+04  0.17939992331E+04  0.00000000000E+00 0.  1.
    9000007    1    1    2  501    0 -0.88827516300E+02  0.15878636890E+03 -0.14820136561E+04  0.15457903854E+04  0.40000000000E+03 0.  1.
   -9000007    1    1    2    0  502  0.88827516300E+02 -0.15878636890E+03 -0.10774326698E+03  0.45245115779E+03  0.40000000000E+03 0.  1.
<mgrwt>
<rscale>  2 0.43943536E+03</rscale>
<asrwt>0</asrwt>
<pdfrwt beam="1">  1       21 0.31421894E-01 0.43943536E+03</pdfrwt>
<pdfrwt beam="2">  1       21 0.27599988E+00 0.43943536E+03</pdfrwt>
<totfact> 0.36712471E+02</totfact>
</mgrwt>
</event>
<event>
 4    1  0.4821294E-002  0.4085852E+03  0.7818608E-02  0.1040847E+00
         21   -1    0    0  501  502  0.00000000000E+00  0.00000000000E+00  0.22526627693E+04  0.22526627693E+04  0.00000000000E+00 0.  1.
         21   -1    0    0  502  503 -0.00000000000E+00 -0.00000000000E+00 -0.11709943750E+03  0.11709943750E+03  0.00000000000E+00 0.  1.
    9000007    1    1    2  501    0  0.83298839322E+02  0.17797083621E+01  0.17857163226E+04  0.18318637091E+04  0.40000000000E+03 0.  1.
   -9000007    1    1    2    0  503 -0.83298839322E+02 -0.17797083621E+01  0.34984700929E+03  0.53789849777E+03  0.40000000000E+03 0.  1.
<mgrwt>
<rscale>  2 0.40858520E+03</rscale>
<asrwt>0</asrwt>
<pdfrwt beam="1">  1       21 0.34656347E+00 0.40858520E+03</pdfrwt>
<pdfrwt beam="2">  1       21 0.18015300E-01 0.40858520E+03</pdfrwt>
<totfact> 0.41265660E+02</totfact>
</mgrwt>
</event>
<event>
 4    1  0.4821294E-002  0.4194910E+03  0.7818608E-02  0.1037232E+00
         21   -1    0    0  503  502  0.00000000000E+00  0.00000000000E+00  0.26549229252E+03  0.26549229252E+03  0.00000000000E+00 0.  1.
         21   -1    0    0  501  503 -0.00000000000E+00 -0.00000000000E+00 -0.80529292568E+03  0.80529292568E+03  0.00000000000E+00 0.  1.
    9000007    1    1    2  501    0 -0.10894239970E+03 -0.64064555831E+02 -0.49509944027E+03  0.64891923189E+03  0.40000000000E+03 0.  1.
   -9000007    1    1    2    0  502  0.10894239970E+03  0.64064555831E+02 -0.44701192893E+02  0.42186598632E+03  0.40000000000E+03 0.  1.
<mgrwt>
<rscale>  2 0.41949102E+03</rscale>
<asrwt>0</asrwt>
<pdfrwt beam="1">  1       21 0.40844969E-01 0.41949102E+03</pdfrwt>
<pdfrwt beam="2">  1       21 0.12389122E+00 0.41949102E+03</pdfrwt>
<totfact> 0.24606082E+03</totfact>
</mgrwt>
</event>
<event>
 4    1  0.4821294E-002  0.5012682E+03  0.7818608E-02  0.1013448E+00
         21   -1    0    0  503  502  0.00000000000E+00  0.00000000000E+00  0.19638569557E+03  0.19638569557E+03  0.00000000000E+00 0. -1.
         21   -1    0    0  501  503 -0.00000000000E+00 -0.00000000000E+00 -0.15966318212E+04  0.15966318212E+04  0.00000000000E+00 0.  1.
    9000007    1    1    2  501    0  0.14871057276E+03  0.26297334251E+03 -0.10996921439E+04  0.12085498023E+04  0.40000000000E+03 0.  1.
   -9000007    1    1    2    0  502 -0.14871057276E+03 -0.26297334251E+03 -0.30055398177E+03  0.58446771449E+03  0.40000000000E+03 0. -1.
<mgrwt>
<rscale>  2 0.50126820E+03</rscale>
<asrwt>0</asrwt>
<pdfrwt beam="1">  1       21 0.30213185E-01 0.50126820E+03</pdfrwt>
<pdfrwt beam="2">  1       21 0.24563566E+00 0.50126820E+03</pdfrwt>
<totfact> 0.58910263E+02</totfact>
</mgrwt>
</event>
<event>
 4    1  0.4821294E-002  0.4323399E+03  0.7818608E-02  0.1033123E+00
         21   -1    0    0  503  502  0.00000000000E+00  0.00000000000E+00  0.19218959765E+03  0.19218959765E+03  0.00000000000E+00 0.  1.
         21   -1    0    0  501  503 -0.00000000000E+00 -0.00000000000E+00 -0.98689992560E+03  0.98689992560E+03  0.00000000000E+00 0.  1.
    9000007    1    1    2  501    0 -0.43017377367E+02 -0.15832641057E+03 -0.32631412792E+03  0.54166286297E+03  0.40000000000E+03 0.  1.
   -9000007    1    1    2    0  502  0.43017377367E+02  0.15832641057E+03 -0.46839620003E+03  0.63742666028E+03  0.40000000000E+03 0.  1.
<mgrwt>
<rscale>  2 0.43233985E+03</rscale>
<asrwt>0</asrwt>
<pdfrwt beam="1">  1       21 0.29567631E-01 0.43233985E+03</pdfrwt>
<pdfrwt beam="2">  1       21 0.15183076E+00 0.43233985E+03</pdfrwt>
<totfact> 0.27509856E+03</totfact>
</mgrwt>
</event>
<event>
 4    1  0.4821294E-002  0.4244163E+03  0.7818608E-02  0.1035638E+00
         21   -1    0    0  503  502  0.00000000000E+00  0.00000000000E+00  0.10143324512E+04  0.10143324512E+04  0.00000000000E+00 0. -1.
         21   -1    0    0  501  503 -0.00000000000E+00 -0.00000000000E+00 -0.18563490695E+03  0.18563490695E+03  0.00000000000E+00 0. -1.
    9000007    1    1    2  501    0  0.98675795348E+02 -0.10194243937E+03  0.53929786125E+03  0.68627352906E+03  0.40000000000E+03 0. -1.
   -9000007    1    1    2    0  502 -0.98675795348E+02  0.10194243937E+03  0.28939968300E+03  0.51369382909E+03  0.40000000000E+03 0. -1.
<mgrwt>
<rscale>  2 0.42441627E+03</rscale>
<asrwt>0</asrwt>
<pdfrwt beam="1">  1       21 0.15605114E+00 0.42441627E+03</pdfrwt>
<pdfrwt beam="2">  1       21 0.28559217E-01 0.42441627E+03</pdfrwt>
<totfact> 0.27422563E+03</totfact>
</mgrwt>
</event>
<event>
 4    1  0.4821294E-002  0.4567771E+03  0.7818608E-02  0.1025720E+00
         21   -1    0    0  503  502  0.00000000000E+00  0.00000000000E+00  0.11512868415E+04  0.11512868415E+04  0.00000000000E+00 0. -1.
         21   -1    0    0  501  503 -0.00000000000E+00 -0.00000000000E+00 -0.18289563440E+03  0.18289563440E+03  0.00000000000E+00 0. -1.
    9000007    1    1    2  501    0 -0.19983577034E+03  0.93332859347E+02  0.54789570058E+03  0.71332675294E+03  0.40000000000E+03 0. -1.
   -9000007    1    1    2    0  502  0.19983577034E+03 -0.93332859347E+02  0.42049550655E+03  0.62085572299E+03  0.40000000000E+03 0. -1.
<mgrwt>
<rscale>  2 0.45677714E+03</rscale>
<asrwt>0</asrwt>
<pdfrwt beam="1">  1       21 0.17712105E+00 0.45677714E+03</pdfrwt>
<pdfrwt beam="2">  1       21 0.28137791E-01 0.45677714E+03</pdfrwt>
<totfact> 0.19487665E+03</totfact>
</mgrwt>
</event>
<event>
 4    1  0.4821294E-002  0.4161212E+03  0.7818608E-02  0.1038336E+00
         21   -1    0    0  501  502  0.00000000000E+00  0.00000000000E+00  0.11611959862E+04  0.11611959862E+04  0.00000000000E+00 0. -1.
         21   -1    0    0  502  503 -0.00000000000E+00 -0.00000000000E+00 -0.35509322289E+03  0.35509322289E+03  0.00000000000E+00 0. -1.
    9000007    1    1    2  501    0 -0.98975292811E+02 -0.57972176233E+02  0.98046475936E+03  0.10651140907E+04  0.40000000000E+03 0. -1.
   -9000007    1    1    2    0  503  0.98975292811E+02  0.57972176233E+02 -0.17436199605E+03  0.45117511841E+03  0.40000000000E+03 0. -1.
<mgrwt>
<rscale>  2 0.41612123E+03</rscale>
<asrwt>0</asrwt>
<pdfrwt beam="1">  1       21 0.17864554E+00 0.41612123E+03</pdfrwt>
<pdfrwt beam="2">  1       21 0.54629727E-01 0.41612123E+03</pdfrwt>
<totfact> 0.49490967E+02</totfact>
</mgrwt>
</event>
<event>
 4    1  0.4821294E-002  0.5551951E+03  0.7818608E-02  0.1000299E+00
         21   -1    0    0  501  502  0.00000000000E+00  0.00000000000E+00  0.13197003721E+04  0.13197003721E+04  0.00000000000E+00 0. -1.
         21   -1    0    0  502  503 -0.00000000000E+00 -0.00000000000E+00 -0.32491212981E+03  0.32491212981E+03  0.00000000000E+00 0.  1.
    9000007    1    1    2  501    0 -0.38398923521E+03  0.28176435929E+02  0.61393020079E+02  0.55857922197E+03  0.40000000000E+03 0.  1.
   -9000007    1    1    2    0  503  0.38398923521E+03 -0.28176435929E+02  0.93339522222E+03  0.10860332799E+04  0.40000000000E+03 0. -1.
<mgrwt>
<rscale>  2 0.55519514E+03</rscale>
<asrwt>0</asrwt>
<pdfrwt beam="1">  1       21 0.20303082E+00 0.55519514E+03</pdfrwt>
<pdfrwt beam="2">  1       21 0.49986482E-01 0.55519514E+03</pdfrwt>
<totfact> 0.38243931E+02</totfact>
</mgrwt>
</event>
<event>
 4    1  0.4821294E-002  0.6133886E+03  0.7818608E-02  0.9878012E-01
         21   -1    0    0  503  502  0.00000000000E+00  0.00000000000E+00  0.12850272173E+04  0.12850272173E+04  0.00000000000E+00 0.  1.
         21   -1    0    0  501  503 -0.00000000000E+00 -0.00000000000E+00 -0.33717919286E+03  0.33717919286E+03  0.00000000000E+00 0.  1.
    9000007    1    1    2  501    0 -0.35153248557E+03  0.30441824254E+03  0.17963429668E+03  0.63915102703E+03  0.40000000000E+03 0.  1.
   -9000007    1    1    2    0  502  0.35153248557E+03 -0.30441824254E+03  0.76821372775E+03  0.98305538313E+03  0.40000000000E+03 0.  1.
<mgrwt>
<rscale>  2 0.61338858E+03</rscale>
<asrwt>0</asrwt>
<pdfrwt beam="1">  1       21 0.19769649E+00 0.61338858E+03</pdfrwt>
<pdfrwt beam="2">  1       21 0.51873723E-01 0.61338858E+03</pdfrwt>
<totfact> 0.37525378E+02</totfact>
</mgrwt>
</event>
<event>
 4    1  0.4821294E-002  0.6010125E+03  0.7818608E-02  0.9903308E-01
         21   -1    0    0  503  502  0.00000000000E+00  0.00000000000E+00  0.73225965068E+03  0.73225965068E+03  0.00000000000E+00 0. -1.
         21   -1    0    0  501  503 -0.00000000000E+00 -0.00000000000E+00 -0.59182690927E+03  0.59182690927E+03  0.00000000000E+00 0. -1.
    9000007    1    1    2  501    0  0.44320583768E+03  0.69170544104E+02 -0.19992410011E+03  0.63339215698E+03  0.40000000000E+03 0. -1.
   -9000007    1    1    2    0  502 -0.44320583768E+03 -0.69170544104E+02  0.34035684151E+03  0.69069440297E+03  0.40000000000E+03 0. -1.
<mgrwt>
<rscale>  2 0.60101246E+03</rscale>
<asrwt>0</asrwt>
<pdfrwt beam="1">  1       21 0.11265533E+00 0.60101246E+03</pdfrwt>
<pdfrwt beam="2">  1       21 0.91050294E-01 0.60101246E+03</pdfrwt>
<totfact> 0.49822438E+02</totfact>
</mgrwt>
</event>
<event>
 4    1  0.4821294E-002  0.4930324E+03  0.7818608E-02  0.1015614E+00
         21   -1    0    0  501  502  0.00000000000E+00  0.00000000000E+00  0.21646446295E+03  0.21646446295E+03  0.00000000000E+00 0. -1.
         21   -1    0    0  502  503 -0.00000000000E+00 -0.00000000000E+00 -0.11893076903E+04  0.11893076903E+04  0.00000000000E+00 0. -1.
    9000007    1    1    2  501    0 -0.18462947140E+03  0.22134340324E+03 -0.32040537435E+03  0.58799706443E+03  0.40000000000E+03 0. -1.
   -9000007    1    1    2    0  503  0.18462947140E+03 -0.22134340324E+03 -0.65243785299E+03  0.81777508881E+03  0.40000000000E+03 0. -1.
<mgrwt>
<rscale>  2 0.49303240E+03</rscale>
<asrwt>0</asrwt>
<pdfrwt beam="1">  1       21 0.33302225E-01 0.49303240E+03</pdfrwt>
<pdfrwt beam="2">  1       21 0.18297041E+00 0.49303240E+03</pdfrwt>
<totfact> 0.12477172E+03</totfact>
</mgrwt>
</event>
<event>
 4    1  0.4821294E-002  0.4475191E+03  0.7818608E-02  0.1028464E+00
         21   -1    0    0  501  502  0.00000000000E+00  0.00000000000E+00  0.53686880791E+03  0.53686880791E+03  0.00000000000E+00 0. -1.
         21   -1    0    0  502  503 -0.00000000000E+00 -0.00000000000E+00 -0.37314614649E+03  0.37314614649E+03  0.00000000000E+00 0. -1.
    9000007    1    1    2  501    0  0.62546733967E+02 -0.19068625195E+03  0.89548929460E+02  0.45639056890E+03  0.40000000000E+03 0.  1.
   -9000007    1    1    2    0  503 -0.62546733967E+02  0.19068625195E+03  0.74173731959E+02  0.45362438551E+03  0.40000000000E+03 0.  1.
<mgrwt>
<rscale>  2 0.44751910E+03</rscale>
<asrwt>0</asrwt>
<pdfrwt beam="1">  1       21 0.82595201E-01 0.44751910E+03</pdfrwt>
<pdfrwt beam="2">  1       21 0.57407099E-01 0.44751910E+03</pdfrwt>
<totfact> 0.31787387E+03</totfact>
</mgrwt>
</event>
<event>
 4    1  0.4821294E-002  0.4607756E+03  0.7818608E-02  0.1024557E+00
         21   -1    0    0  503  502  0.00000000000E+00  0.00000000000E+00  0.97590760295E+03  0.97590760295E+03  0.00000000000E+00 0.  1.
         21   -1    0    0  501  503 -0.00000000000E+00 -0.00000000000E+00 -0.22000344926E+03  0.22000344926E+03  0.00000000000E+00 0.  1.
    9000007    1    1    2  501    0  0.17113670447E+03 -0.15174458132E+03  0.44102517414E+03  0.63782238421E+03  0.40000000000E+03 0.  1.
   -9000007    1    1    2    0  502 -0.17113670447E+03  0.15174458132E+03  0.31487897955E+03  0.55808866799E+03  0.40000000000E+03 0.  1.
<mgrwt>
<rscale>  2 0.46077564E+03</rscale>
<asrwt>0</asrwt>
<pdfrwt beam="1">  1       21 0.15013963E+00 0.46077564E+03</pdfrwt>
<pdfrwt beam="2">  1       21 0.33846685E-01 0.46077564E+03</pdfrwt>
<totfact> 0.21406625E+03</totfact>
</mgrwt>
</event>
<event>
 4    1  0.4821294E-002  0.4052305E+03  0.7818608E-02  0.1041983E+00
         21   -1    0    0  503  502  0.00000000000E+00  0.00000000000E+00  0.11307253597E+04  0.11307253597E+04  0.00000000000E+00 0. -1.
         21   -1    0    0  501  503 -0.00000000000E+00 -0.00000000000E+00 -0.61444801994E+03  0.61444801994E+03  0.00000000000E+00 0. -1.
    9000007    1    1    2  501    0  0.58967578314E+01 -0.64629594387E+02 -0.50438754398E+03  0.64700738075E+03  0.40000000000E+03 0. -1.
   -9000007    1    1    2    0  502 -0.58967578314E+01  0.64629594387E+02  0.10206648838E+04  0.10981659989E+04  0.40000000000E+03 0. -1.
<mgrwt>
<rscale>  2 0.40523050E+03</rscale>
<asrwt>0</asrwt>
<pdfrwt beam="1">  1       21 0.17395775E+00 0.40523050E+03</pdfrwt>
<pdfrwt beam="2">  1       21 0.94530465E-01 0.40523050E+03</pdfrwt>
<totfact> 0.15551344E+02</totfact>
</mgrwt>
</event>
<event>
 4    1  0.4821294E-002  0.4570029E+03  0.7818608E-02  0.1025654E+00
         21   -1    0    0  501  502  0.00000000000E+00  0.00000000000E+00  0.69972166438E+02  0.69972166438E+02  0.00000000000E+00 0.  1.
         21   -1    0    0  502  503 -0.00000000000E+00 -0.00000000000E+00 -0.31680014837E+04  0.31680014837E+04  0.00000000000E+00 0.  1.
    9000007    1    1    2  501    0  0.19322965111E+03 -0.10730319701E+03 -0.19383611480E+04  0.19915058659E+04  0.40000000000E+03 0.  1.
   -9000007    1    1    2    0  503 -0.19322965111E+03  0.10730319701E+03 -0.11596681694E+04  0.12464677842E+04  0.40000000000E+03 0.  1.
<mgrwt>
<rscale>  2 0.45700293E+03</rscale>
<asrwt>0</asrwt>
<pdfrwt beam="1">  1       21 0.10764951E-01 0.45700293E+03</pdfrwt>
<pdfrwt beam="2">  1       21 0.48738473E+00 0.45700293E+03</pdfrwt>
<totfact> 0.12372570E+02</totfact>
</mgrwt>
</event>
<event>
 4    1  0.4821294E-002  0.4281340E+03  0.7818608E-02  0.1034451E+00
         21   -1    0    0  501  502  0.00000000000E+00  0.00000000000E+00  0.13518486115E+03  0.13518486115E+03  0.00000000000E+00 0. -1.
         21   -1    0    0  502  503 -0.00000000000E+00 -0.00000000000E+00 -0.13963178491E+04  0.13963178491E+04  0.00000000000E+00 0. -1.
    9000007    1    1    2  501    0 -0.12278992399E+03  0.90671616348E+02 -0.76082930667E+03  0.87301772109E+03  0.40000000000E+03 0.  1.
   -9000007    1    1    2    0  503  0.12278992399E+03 -0.90671616348E+02 -0.50030368127E+03  0.65848498915E+03  0.40000000000E+03 0.  1.
<mgrwt>
<rscale>  2 0.42813398E+03</rscale>
<asrwt>0</asrwt>
<pdfrwt beam="1">  1       21 0.20797670E-01 0.42813398E+03</pdfrwt>
<pdfrwt beam="2">  1       21 0.21481814E+00 0.42813398E+03</pdfrwt>
<totfact> 0.19740053E+03</totfact>
</mgrwt>
</event>
<event>
 4    1  0.4821294E-002  0.5079338E+03  0.7818608E-02  0.1011729E+00
         21   -1    0    0  503  502  0.00000000000E+00  0.00000000000E+00  0.78721072663E+03  0.78721072663E+03  0.00000000000E+00 0.  1.
         21   -1    0    0  501  503 -0.00000000000E+00 -0.00000000000E+00 -0.34510092914E+03  0.34510092914E+03  0.00000000000E+00 0. -1.
    9000007    1    1    2  501    0 -0.27542702146E+03 -0.14878402513E+03  0.94053532976E+02  0.51656828914E+03  0.40000000000E+03 0. -1.
   -9000007    1    1    2    0  502  0.27542702146E+03  0.14878402513E+03  0.34805626450E+03  0.61574336663E+03  0.40000000000E+03 0.  1.
<mgrwt>
<rscale>  2 0.50793379E+03</rscale>
<asrwt>0</asrwt>
<pdfrwt beam="1">  1       21 0.12110934E+00 0.50793379E+03</pdfrwt>
<pdfrwt beam="2">  1       21 0.53092451E-01 0.50793379E+03</pdfrwt>
<totfact> 0.14518213E+03</totfact>
</mgrwt>
</event>
<event>
 4    1  0.4821294E-002  0.6451355E+03  0.7818608E-02  0.9815950E-01
         21   -1    0    0  501  502  0.00000000000E+00  0.00000000000E+00  0.33218297273E+03  0.33218297273E+03  0.00000000000E+00 0.  1.
         21   -1    0    0  502  503 -0.00000000000E+00 -0.00000000000E+00 -0.12529414426E+04  0.12529414426E+04  0.00000000000E+00 0. -1.
    9000007    1    1    2  501    0  0.13876141610E+03 -0.48677003541E+03 -0.45736622397E+03  0.79081202621E+03  0.40000000000E+03 0.  1.
   -9000007    1    1    2    0  503 -0.13876141610E+03  0.48677003541E+03 -0.46339224594E+03  0.79431238916E+03  0.40000000000E+03 0. -1.
<mgrwt>
<rscale>  2 0.64513549E+03</rscale>
<asrwt>0</asrwt>
<pdfrwt beam="1">  1       21 0.51105074E-01 0.64513549E+03</pdfrwt>
<pdfrwt beam="2">  1       21 0.19276022E+00 0.64513549E+03</pdfrwt>
<totfact> 0.41432177E+02</totfact>
</mgrwt>
</event>
<event>
 4    1  0.4821294E-002  0.4519036E+03  0.7818608E-02  0.1027156E+00
         21   -1    0    0  501  502  0.00000000000E+00  0.00000000000E+00  0.36031957090E+03  0.36031957090E+03  0.00000000000E+00 0.  1.
         21   -1    0    0  502  503 -0.00000000000E+00 -0.00000000000E+00 -0.78297415072E+03  0.78297415072E+03  0.00000000000E+00 0.  1.
    9000007    1    1    2  501    0 -0.13497687093E+02  0.20984440266E+03 -0.51172056123E+03  0.68269670695E+03  0.40000000000E+03 0.  1.
   -9000007    1    1    2    0  503  0.13497687093E+02 -0.20984440266E+03  0.89065981415E+02  0.46059701468E+03  0.40000000000E+03 0.  1.
<mgrwt>
<rscale>  2 0.45190360E+03</rscale>
<asrwt>0</asrwt>
<pdfrwt beam="1">  1       21 0.55433780E-01 0.45190360E+03</pdfrwt>
<pdfrwt beam="2">  1       21 0.12045756E+00 0.45190360E+03</pdfrwt>
<totfact> 0.13696559E+03</totfact>
</mgrwt>
</event>
<event>
 4    1  0.4821294E-002  0.6568435E+03  0.7818608E-02  0.9794022E-01
         21   -1    0    0  503  502  0.00000000000E+00  0.00000000000E+00  0.27631040458E+04  0.27631040458E+04  0.00000000000E+00 0. -1.
         21   -1    0    0  501  503 -0.00000000000E+00 -0.00000000000E+00 -0.15653945127E+03  0.15653945127E+03  0.00000000000E+00 0.  1.
    9000007    1    1    2  501    0 -0.47254440751E+03 -0.21941994020E+03  0.12299502182E+04  0.13943532072E+04  0.40000000000E+03 0.  1.
   -9000007    1    1    2    0  502  0.47254440751E+03  0.21941994020E+03  0.13766143764E+04  0.15252902899E+04  0.40000000000E+03 0. -1.
<mgrwt>
<rscale>  2 0.65684346E+03</rscale>
<asrwt>0</asrwt>
<pdfrwt beam="1">  1       21 0.42509289E+00 0.65684346E+03</pdfrwt>
<pdfrwt beam="2">  1       21 0.24082995E-01 0.65684346E+03</pdfrwt>
<totfact> 0.65065230E+01</totfact>
</mgrwt>
</event>
<event>
 4    1  0.4821294E-002  0.4305775E+03  0.7818608E-02  0.1033678E+00
         21   -1    0    0  501  502  0.00000000000E+00  0.00000000000E+00  0.14460431239E+04  0.14460431239E+04  0.00000000000E+00 0.  1.
         21   -1    0    0  502  503 -0.00000000000E+00 -0.00000000000E+00 -0.13658291709E+03  0.13658291709E+03  0.00000000000E+00 0. -1.
    9000007    1    1    2  501    0 -0.35877054587E+02  0.15527346825E+03  0.85065592228E+03  0.95342147610E+03  0.40000000000E+03 0.  1.
   -9000007    1    1    2    0  503  0.35877054587E+02 -0.15527346825E+03  0.45880428457E+03  0.62920456493E+03  0.40000000000E+03 0. -1.
<mgrwt>
<rscale>  2 0.43057753E+03</rscale>
<asrwt>0</asrwt>
<pdfrwt beam="1">  1       21 0.22246816E+00 0.43057753E+03</pdfrwt>
<pdfrwt beam="2">  1       21 0.21012757E-01 0.43057753E+03</pdfrwt>
<totfact> 0.17273028E+03</totfact>
</mgrwt>
</event>
<event>
 4    1  0.4821294E-002  0.4369404E+03  0.7818608E-02  0.1031690E+00
         21   -1    0    0  501  502  0.00000000000E+00  0.00000000000E+00  0.40059759300E+03  0.40059759300E+03  0.00000000000E+00 0. -1.
         21   -1    0    0  502  503 -0.00000000000E+00 -0.00000000000E+00 -0.30175301227E+04  0.30175301227E+04  0.00000000000E+00 0. -1.
    9000007    1    1    2  501    0  0.13037244416E+03  0.11798261123E+03  0.25983877543E+03  0.50836311822E+03  0.40000000000E+03 0. -1.
   -9000007    1    1    2    0  503 -0.13037244416E+03 -0.11798261123E+03 -0.28767713051E+04  0.29097645974E+04  0.40000000000E+03 0. -1.
<mgrwt>
<rscale>  2 0.43694035E+03</rscale>
<asrwt>0</asrwt>
<pdfrwt beam="1">  1       21 0.61630400E-01 0.43694035E+03</pdfrwt>
<pdfrwt beam="2">  1       21 0.46423539E+00 0.43694035E+03</pdfrwt>
<totfact> 0.58612902E+00</totfact>
</mgrwt>
</event>
<event>
 4    1  0.4821294E-002  0.4715006E+03  0.7818608E-02  0.1021498E+00
         21   -1    0    0  503  502  0.00000000000E+00  0.00000000000E+00  0.20330072966E+03  0.20330072966E+03  0.00000000000E+00 0.  1.
         21   -1    0    0  501  503 -0.00000000000E+00 -0.00000000000E+00 -0.12938246197E+04  0.12938246197E+04  0.00000000000E+00 0. -1.
    9000007    1    1    2  501    0 -0.16945734583E+03 -0.18329485609E+03 -0.25072536564E+03  0.53401873123E+03  0.40000000000E+03 0.  1.
   -9000007    1    1    2    0  502  0.16945734583E+03  0.18329485609E+03 -0.83979852442E+03  0.96310661816E+03  0.40000000000E+03 0. -1.
<mgrwt>
<rscale>  2 0.47150058E+03</rscale>
<asrwt>0</asrwt>
<pdfrwt beam="1">  1       21 0.31277035E-01 0.47150058E+03</pdfrwt>
<pdfrwt beam="2">  1       21 0.19904994E+00 0.47150058E+03</pdfrwt>
<totfact> 0.11082398E+03</totfact>
</mgrwt>
</event>
<event>
 4    1  0.4821294E-002  0.4630630E+03  0.7818608E-02  0.1023897E+00
         21   -1    0    0  501  502  0.00000000000E+00  0.00000000000E+00  0.85374941141E+03  0.85374941141E+03  0.00000000000E+00 0. -1.
         21   -1    0    0  502  503 -0.00000000000E+00 -0.00000000000E+00 -0.63748934103E+03  0.63748934103E+03  0.00000000000E+00 0.  1.
    9000007    1    1    2  501    0 -0.15151351719E+03  0.17740057889E+03  0.68857336595E+03  0.82979551191E+03  0.40000000000E+03 0. -1.
   -9000007    1    1    2    0  503  0.15151351719E+03 -0.17740057889E+03 -0.47231329557E+03  0.66144324054E+03  0.40000000000E+03 0.  1.
<mgrwt>
<rscale>  2 0.46306297E+03</rscale>
<asrwt>0</asrwt>
<pdfrwt beam="1">  1       21 0.13134606E+00 0.46306297E+03</pdfrwt>
<pdfrwt beam="2">  1       21 0.98075283E-01 0.46306297E+03</pdfrwt>
<totfact> 0.29700872E+02</totfact>
</mgrwt>
</event>
<event>
 4    1  0.4821294E-002  0.6158809E+03  0.7818608E-02  0.9872995E-01
         21   -1    0    0  501  502  0.00000000000E+00  0.00000000000E+00  0.24342153068E+03  0.24342153068E+03  0.00000000000E+00 0.  1.
         21   -1    0    0  502  503 -0.00000000000E+00 -0.00000000000E+00 -0.18160457248E+04  0.18160457248E+04  0.00000000000E+00 0.  1.
    9000007    1    1    2  501    0  0.45234639154E+03 -0.12121061167E+03 -0.39833380800E+03  0.73347058081E+03  0.40000000000E+03 0.  1.
   -9000007    1    1    2    0  503 -0.45234639154E+03  0.12121061167E+03 -0.11742903861E+04  0.13259966747E+04  0.40000000000E+03 0.  1.
<mgrwt>
<rscale>  2 0.61588089E+03</rscale>
<asrwt>0</asrwt>
<pdfrwt beam="1">  1       21 0.37449466E-01 0.61588089E+03</pdfrwt>
<pdfrwt beam="2">  1       21 0.27939165E+00 0.61588089E+03</pdfrwt>
<totfact> 0.22506985E+02</totfact>
</mgrwt>
</event>
<event>
 4    1  0.4821294E-002  0.5072813E+03  0.7818608E-02  0.1011896E+00
         21   -1    0    0  501  502  0.00000000000E+00  0.00000000000E+00  0.47360388991E+03  0.47360388991E+03  0.00000000000E+00 0.  1.
         21   -1    0    0  502  503 -0.00000000000E+00 -0.00000000000E+00 -0.10561527645E+04  0.10561527645E+04  0.00000000000E+00 0. -1.
    9000007    1    1    2  501    0 -0.30026216932E+03 -0.84716725542E+02  0.24169550312E+03  0.56191726272E+03  0.40000000000E+03 0. -1.
   -9000007    1    1    2    0  503  0.30026216932E+03  0.84716725542E+02 -0.82424437768E+03  0.96783939166E+03  0.40000000000E+03 0. -1.
<mgrwt>
<rscale>  2 0.50728128E+03</rscale>
<asrwt>0</asrwt>
<pdfrwt beam="1">  1       21 0.72862138E-01 0.50728128E+03</pdfrwt>
<pdfrwt beam="2">  1       21 0.16248504E+00 0.50728128E+03</pdfrwt>
<totfact> 0.32859992E+02</totfact>
</mgrwt>
</event>
<event>
 4    1  0.4821294E-002  0.6096782E+03  0.7818608E-02  0.9885528E-01
         21   -1    0    0  503  502  0.00000000000E+00  0.00000000000E+00  0.50406485850E+03  0.50406485850E+03  0.00000000000E+00 0. -1.
         21   -1    0    0  501  503 -0.00000000000E+00 -0.00000000000E+00 -0.85191440202E+03  0.85191440202E+03  0.00000000000E+00 0.  1.
    9000007    1    1    2  501    0  0.40579634616E+03 -0.21687974829E+03 -0.42247675266E+03  0.74175070361E+03  0.40000000000E+03 0.  1.
   -9000007    1    1    2    0  502 -0.40579634616E+03  0.21687974829E+03  0.74627209141E+02  0.61422855690E+03  0.40000000000E+03 0. -1.
<mgrwt>
<rscale>  2 0.60967819E+03</rscale>
<asrwt>0</asrwt>
<pdfrwt beam="1">  1       21 0.77548440E-01 0.60967819E+03</pdfrwt>
<pdfrwt beam="2">  1       21 0.13106375E+00 0.60967819E+03</pdfrwt>
<totfact> 0.49113677E+02</totfact>
</mgrwt>
</event>
<event>
 4    1  0.4821294E-002  0.5468496E+03  0.7818608E-02  0.1002226E+00
         21   -1    0    0  501  502  0.00000000000E+00  0.00000000000E+00  0.99056672734E+03  0.99056672734E+03  0.00000000000E+00 0.  1.
         21   -1    0    0  502  503 -0.00000000000E+00 -0.00000000000E+00 -0.35919100461E+03  0.35919100461E+03  0.00000000000E+00 0. -1.
    9000007    1    1    2  501    0 -0.21354373031E+03  0.30568533641E+03  0.46140197037E+02  0.54879264521E+03  0.40000000000E+03 0. -1.
   -9000007    1    1    2    0  503  0.21354373031E+03 -0.30568533641E+03  0.58523552569E+03  0.80096508675E+03  0.40000000000E+03 0.  1.
<mgrwt>
<rscale>  2 0.54684957E+03</rscale>
<asrwt>0</asrwt>
<pdfrwt beam="1">  1       21 0.15239488E+00 0.54684957E+03</pdfrwt>
<pdfrwt beam="2">  1       21 0.55260155E-01 0.54684957E+03</pdfrwt>
<totfact> 0.71475174E+02</totfact>
</mgrwt>
</event>
<event>
 4    1  0.4821294E-002  0.4257522E+03  0.7818608E-02  0.1035210E+00
         21   -1    0    0  503  502  0.00000000000E+00  0.00000000000E+00  0.82349618744E+03  0.82349618744E+03  0.00000000000E+00 0.  1.
         21   -1    0    0  501  503 -0.00000000000E+00 -0.00000000000E+00 -0.39158059247E+03  0.39158059247E+03  0.00000000000E+00 0.  1.
    9000007    1    1    2  501    0  0.89161275588E+02  0.11539162914E+03 -0.18606432326E+03  0.46463415020E+03  0.40000000000E+03 0.  1.
   -9000007    1    1    2    0  502 -0.89161275588E+02 -0.11539162914E+03  0.61797991823E+03  0.75044262971E+03  0.40000000000E+03 0.  1.
<mgrwt>
<rscale>  2 0.42575223E+03</rscale>
<asrwt>0</asrwt>
<pdfrwt beam="1">  1       21 0.12669172E+00 0.42575223E+03</pdfrwt>
<pdfrwt beam="2">  1       21 0.60243169E-01 0.42575223E+03</pdfrwt>
<totfact> 0.10152888E+03</totfact>
</mgrwt>
</event>
<event>
 4    1  0.4821294E-002  0.4142261E+03  0.7818608E-02  0.1038962E+00
         21   -1    0    0  501  502  0.00000000000E+00  0.00000000000E+00  0.34008841740E+03  0.34008841740E+03  0.00000000000E+00 0.  1.
         21   -1    0    0  502  503 -0.00000000000E+00 -0.00000000000E+00 -0.10261228846E+04  0.10261228846E+04  0.00000000000E+00 0.  1.
    9000007    1    1    2  501    0  0.99431562649E+02 -0.41190553241E+02  0.14401294319E+03  0.43854649142E+03  0.40000000000E+03 0.  1.
   -9000007    1    1    2    0  503 -0.99431562649E+02  0.41190553241E+02 -0.83004741041E+03  0.92766481062E+03  0.40000000000E+03 0.  1.
<mgrwt>
<rscale>  2 0.41422614E+03</rscale>
<asrwt>0</asrwt>
<pdfrwt beam="1">  1       21 0.52321296E-01 0.41422614E+03</pdfrwt>
<pdfrwt beam="2">  1       21 0.15786506E+00 0.41422614E+03</pdfrwt>
<totfact> 0.77114580E+02</totfact>
</mgrwt>
</event>
<event>
 4    1  0.4821294E-002  0.4285180E+03  0.7818608E-02  0.1034329E+00
         21   -1    0    0  501  502  0.00000000000E+00  0.00000000000E+00  0.68896343763E+03  0.68896343763E+03  0.00000000000E+00 0.  1.
         21   -1    0    0  502  503 -0.00000000000E+00 -0.00000000000E+00 -0.27050238528E+03  0.27050238528E+03  0.00000000000E+00 0.  1.
    9000007    1    1    2  501    0 -0.13905538173E+03  0.65508049856E+02  0.15107698419E+03  0.45436984818E+03  0.40000000000E+03 0.  1.
   -9000007    1    1    2    0  503  0.13905538173E+03 -0.65508049856E+02  0.26738406816E+03  0.50509597473E+03  0.40000000000E+03 0.  1.
<mgrwt>
<rscale>  2 0.42851803E+03</rscale>
<asrwt>0</asrwt>
<pdfrwt beam="1">  1       21 0.10599437E+00 0.42851803E+03</pdfrwt>
<pdfrwt beam="2">  1       21 0.41615752E-01 0.42851803E+03</pdfrwt>
<totfact> 0.34866765E+03</totfact>
</mgrwt>
</event>
<event>
 4    1  0.4821294E-002  0.4349267E+03  0.7818608E-02  0.1032315E+00
         21   -1    0    0  501  502  0.00000000000E+00  0.00000000000E+00  0.55570466872E+03  0.55570466872E+03  0.00000000000E+00 0.  1.
         21   -1    0    0  502  503 -0.00000000000E+00 -0.00000000000E+00 -0.35508534010E+03  0.35508534010E+03  0.00000000000E+00 0.  1.
    9000007    1    1    2  501    0  0.16510417280E+03  0.43610654534E+02  0.19292430619E+03  0.47579519227E+03  0.40000000000E+03 0.  1.
   -9000007    1    1    2    0  503 -0.16510417280E+03 -0.43610654534E+02  0.76950224358E+01  0.43499481656E+03  0.40000000000E+03 0.  1.
<mgrwt>
<rscale>  2 0.43492675E+03</rscale>
<asrwt>0</asrwt>
<pdfrwt beam="1">  1       21 0.85493026E-01 0.43492675E+03</pdfrwt>
<pdfrwt beam="2">  1       21 0.54628514E-01 0.43492675E+03</pdfrwt>
<totfact> 0.32801845E+03</totfact>
</mgrwt>
</event>
<event>
 4    1  0.4821294E-002  0.4750005E+03  0.7818608E-02  0.1020518E+00
         21   -1    0    0  501  502  0.00000000000E+00  0.00000000000E+00  0.52329830200E+03  0.52329830200E+03  0.00000000000E+00 0. -1.
         21   -1    0    0  502  503 -0.00000000000E+00 -0.00000000000E+00 -0.12928566676E+04  0.12928566676E+04  0.00000000000E+00 0. -1.
    9000007    1    1    2  501    0  0.20167375244E+03  0.15796575683E+03  0.35657345083E+03  0.59394453326E+03  0.40000000000E+03 0. -1.
   -9000007    1    1    2    0  503 -0.20167375244E+03 -0.15796575683E+03 -0.11261318165E+04  0.12222104364E+04  0.40000000000E+03 0. -1.
<mgrwt>
<rscale>  2 0.47500051E+03</rscale>
<asrwt>0</asrwt>
<pdfrwt beam="1">  1       21 0.80507431E-01 0.47500051E+03</pdfrwt>
<pdfrwt beam="2">  1       21 0.19890103E+00 0.47500051E+03</pdfrwt>
<totfact> 0.14665918E+02</totfact>
</mgrwt>
</event>
<event>
 4    1  0.4821294E-002  0.5622080E+03  0.7818608E-02  0.9987071E-01
         21   -1    0    0  503  502  0.00000000000E+00  0.00000000000E+00  0.16560295091E+04  0.16560295091E+04  0.00000000000E+00 0. -1.
         21   -1    0    0  501  503 -0.00000000000E+00 -0.00000000000E+00 -0.21381459279E+03  0.21381459279E+03  0.00000000000E+00 0. -1.
    9000007    1    1    2  501    0 -0.38079735901E+03 -0.10521995027E+03  0.41480858492E+03  0.69867304849E+03  0.40000000000E+03 0. -1.
   -9000007    1    1    2    0  502  0.38079735901E+03  0.10521995027E+03  0.10274063314E+04  0.11711710534E+04  0.40000000000E+03 0. -1.
<mgrwt>
<rscale>  2 0.56220803E+03</rscale>
<asrwt>0</asrwt>
<pdfrwt beam="1">  1       21 0.25477376E+00 0.56220803E+03</pdfrwt>
<pdfrwt beam="2">  1       21 0.32894554E-01 0.56220803E+03</pdfrwt>
<totfact> 0.42458011E+02</totfact>
</mgrwt>
</event>
<event>
 4    1  0.4821294E-002  0.4972371E+03  0.7818608E-02  0.1014503E+00
         21   -1    0    0  503  502  0.00000000000E+00  0.00000000000E+00  0.79090437517E+02  0.79090437517E+02  0.00000000000E+00 0. -1.
         21   -1    0    0  501  503 -0.00000000000E+00 -0.00000000000E+00 -0.32563660612E+04  0.32563660612E+04  0.00000000000E+00 0. -1.
    9000007    1    1    2  501    0  0.17336742881E+02  0.29486295760E+03 -0.19221963058E+04  0.19854680467E+04  0.40000000000E+03 0. -1.
   -9000007    1    1    2    0  502 -0.17336742881E+02 -0.29486295760E+03 -0.12550793179E+04  0.13499884520E+04  0.40000000000E+03 0. -1.
<mgrwt>
<rscale>  2 0.49723709E+03</rscale>
<asrwt>0</asrwt>
<pdfrwt beam="1">  1       21 0.12167761E-01 0.49723709E+03</pdfrwt>
<pdfrwt beam="2">  1       21 0.50097935E+00 0.49723709E+03</pdfrwt>
<totfact> 0.77160218E+01</totfact>
</mgrwt>
</event>
<event>
 4    1  0.4821294E-002  0.4183863E+03  0.7818608E-02  0.1037593E+00
         21   -1    0    0  503  502  0.00000000000E+00  0.00000000000E+00  0.47098618929E+03  0.47098618929E+03  0.00000000000E+00 0. -1.
         21   -1    0    0  501  503 -0.00000000000E+00 -0.00000000000E+00 -0.71450801624E+03  0.71450801624E+03  0.00000000000E+00 0. -1.
    9000007    1    1    2  501    0  0.59969404640E+02 -0.10700842990E+03 -0.53235828133E+03  0.67709118534E+03  0.40000000000E+03 0. -1.
   -9000007    1    1    2    0  502 -0.59969404640E+02  0.10700842990E+03  0.28883645438E+03  0.50840302019E+03  0.40000000000E+03 0. -1.
<mgrwt>
<rscale>  2 0.41838634E+03</rscale>
<asrwt>0</asrwt>
<pdfrwt beam="1">  1       21 0.72459414E-01 0.41838634E+03</pdfrwt>
<pdfrwt beam="2">  1       21 0.10992431E+00 0.41838634E+03</pdfrwt>
<totfact> 0.96618233E+02</totfact>
</mgrwt>
</event>
<event>
 4    1  0.4821294E-002  0.4349088E+03  0.7818608E-02  0.1032320E+00
         21   -1    0    0  501  502  0.00000000000E+00  0.00000000000E+00  0.20950392583E+04  0.20950392583E+04  0.00000000000E+00 0. -1.
         21   -1    0    0  502  503 -0.00000000000E+00 -0.00000000000E+00 -0.20603997491E+03  0.20603997491E+03  0.00000000000E+00 0. -1.
    9000007    1    1    2  501    0  0.14010384268E+03  0.97552828520E+02  0.18068825159E+04  0.18584859610E+04  0.40000000000E+03 0. -1.
   -9000007    1    1    2    0  503 -0.14010384268E+03 -0.97552828520E+02  0.82116767511E+02  0.44259327219E+03  0.40000000000E+03 0. -1.
<mgrwt>
<rscale>  2 0.43490877E+03</rscale>
<asrwt>0</asrwt>
<pdfrwt beam="1">  1       21 0.32231372E+00 0.43490877E+03</pdfrwt>
<pdfrwt beam="2">  1       21 0.31698459E-01 0.43490877E+03</pdfrwt>
<totfact> 0.19051571E+02</totfact>
</mgrwt>
</event>
<event>
 4    1  0.4821294E-002  0.4730495E+03  0.7818608E-02  0.1021063E+00
         21   -1    0    0  501  502  0.00000000000E+00  0.00000000000E+00  0.32033505966E+03  0.32033505966E+03  0.00000000000E+00 0. -1.
         21   -1    0    0  502  503 -0.00000000000E+00 -0.00000000000E+00 -0.93030981791E+03  0.93030981791E+03  0.00000000000E+00 0. -1.
    9000007    1    1    2  501    0  0.15263897733E+03  0.20118949439E+03  0.71115474075E+01  0.47310299530E+03  0.40000000000E+03 0. -1.
   -9000007    1    1    2    0  503 -0.15263897733E+03 -0.20118949439E+03 -0.61708630565E+03  0.77754188227E+03  0.40000000000E+03 0. -1.
<mgrwt>
<rscale>  2 0.47304954E+03</rscale>
<asrwt>0</asrwt>
<pdfrwt beam="1">  1       21 0.49282318E-01 0.47304954E+03</pdfrwt>
<pdfrwt beam="2">  1       21 0.14312459E+00 0.47304954E+03</pdfrwt>
<totfact> 0.11143461E+03</totfact>
</mgrwt>
</event>
<event>
 4    1  0.4821294E-002  0.4331080E+03  0.7818608E-02  0.1032883E+00
         21   -1    0    0  503  502  0.00000000000E+00  0.00000000000E+00  0.28548464891E+03  0.28548464891E+03  0.00000000000E+00 0. -1.
         21   -1    0    0  501  503 -0.00000000000E+00 -0.00000000000E+00 -0.11728583735E+04  0.11728583735E+04  0.00000000000E+00 0. -1.
    9000007    1    1    2  501    0  0.88436189590E+02  0.14057601687E+03 -0.92723965130E+03  0.10234040977E+04  0.40000000000E+03 0. -1.
   -9000007    1    1    2    0  502 -0.88436189590E+02 -0.14057601687E+03  0.39865926726E+02  0.43493892475E+03  0.40000000000E+03 0. -1.
<mgrwt>
<rscale>  2 0.43310804E+03</rscale>
<asrwt>0</asrwt>
<pdfrwt beam="1">  1       21 0.43920716E-01 0.43310804E+03</pdfrwt>
<pdfrwt beam="2">  1       21 0.18043975E+00 0.43310804E+03</pdfrwt>
<totfact> 0.75679018E+02</totfact>
</mgrwt>
</event>
<event>
 4    1  0.4821294E-002  0.4061245E+03  0.7818608E-02  0.1041679E+00
         21   -1    0    0  501  502  0.00000000000E+00  0.00000000000E+00  0.61711586454E+03  0.61711586454E+03  0.00000000000E+00 0. -1.
         21   -1    0    0  502  503 -0.00000000000E+00 -0.00000000000E+00 -0.49003091650E+03  0.49003091650E+03  0.00000000000E+00 0. -1.
    9000007    1    1    2  501    0  0.54524652534E+02 -0.44319371469E+02  0.43677719304E+03  0.59641551018E+03  0.40000000000E+03 0. -1.
   -9000007    1    1    2    0  503 -0.54524652534E+02  0.44319371469E+02 -0.30969224499E+03  0.51073127086E+03  0.40000000000E+03 0. -1.
<mgrwt>
<rscale>  2 0.40612454E+03</rscale>
<asrwt>0</asrwt>
<pdfrwt beam="1">  1       21 0.94940901E-01 0.40612454E+03</pdfrwt>
<pdfrwt beam="2">  1       21 0.75389372E-01 0.40612454E+03</pdfrwt>
<totfact> 0.12689241E+03</totfact>
</mgrwt>
</event>
<event>
 4    1  0.4821294E-002  0.4289440E+03  0.7818608E-02  0.1034194E+00
         21   -1    0    0  503  502  0.00000000000E+00  0.00000000000E+00  0.22191075182E+03  0.22191075182E+03  0.00000000000E+00 0. -1.
         21   -1    0    0  501  503 -0.00000000000E+00 -0.00000000000E+00 -0.86110841691E+03  0.86110841691E+03  0.00000000000E+00 0. -1.
    9000007    1    1    2  501    0 -0.14969369123E+03  0.39808505178E+02 -0.42395160169E+03  0.60309856479E+03  0.40000000000E+03 0. -1.
   -9000007    1    1    2    0  502  0.14969369123E+03 -0.39808505178E+02 -0.21524606340E+03  0.47992060394E+03  0.40000000000E+03 0. -1.
<mgrwt>
<rscale>  2 0.42894396E+03</rscale>
<asrwt>0</asrwt>
<pdfrwt beam="1">  1       21 0.34140115E-01 0.42894396E+03</pdfrwt>
<pdfrwt beam="2">  1       21 0.13247822E+00 0.42894396E+03</pdfrwt>
<totfact> 0.29719160E+03</totfact>
</mgrwt>
</event>
<event>
 4    1  0.4821294E-002  0.5884244E+03  0.7818608E-02  0.9929717E-01
         21   -1    0    0  503  502  0.00000000000E+00  0.00000000000E+00  0.34891800950E+03  0.34891800950E+03  0.00000000000E+00 0. -1.
         21   -1    0    0  501  503 -0.00000000000E+00 -0.00000000000E+00 -0.99309639638E+03  0.99309639638E+03  0.00000000000E+00 0. -1.
    9000007    1    1    2  501    0 -0.16441226012E+03  0.39901365092E+03 -0.34067818696E+03  0.67993007873E+03  0.40000000000E+03 0. -1.
   -9000007    1    1    2    0  502  0.16441226012E+03 -0.39901365092E+03 -0.30350019993E+03  0.66208432715E+03  0.40000000000E+03 0. -1.
<mgrwt>
<rscale>  2 0.58842441E+03</rscale>
<asrwt>0</asrwt>
<pdfrwt beam="1">  1       21 0.53679694E-01 0.58842441E+03</pdfrwt>
<pdfrwt beam="2">  1       21 0.15278406E+00 0.58842441E+03</pdfrwt>
<totfact> 0.74491076E+02</totfact>
</mgrwt>
</event>
<event>
 4    1  0.4821294E-002  0.4455138E+03  0.7818608E-02  0.1029068E+00
         21   -1    0    0  503  502  0.00000000000E+00  0.00000000000E+00  0.63808612785E+03  0.63808612785E+03  0.00000000000E+00 0. -1.
         21   -1    0    0  501  503 -0.00000000000E+00 -0.00000000000E+00 -0.31176107980E+03  0.31176107980E+03  0.00000000000E+00 0.  1.
    9000007    1    1    2  501    0  0.14972509662E+03 -0.12674770169E+03  0.14062882185E+03  0.46718203088E+03  0.40000000000E+03 0.  1.
   -9000007    1    1    2    0  502 -0.14972509662E+03  0.12674770169E+03  0.18569622620E+03  0.48266517677E+03  0.40000000000E+03 0. -1.
<mgrwt>
<rscale>  2 0.44551384E+03</rscale>
<asrwt>0</asrwt>
<pdfrwt beam="1">  1       21 0.98167096E-01 0.44551384E+03</pdfrwt>
<pdfrwt beam="2">  1       21 0.47963243E-01 0.44551384E+03</pdfrwt>
<totfact> 0.31055863E+03</totfact>
</mgrwt>
</event>
<event>
 4    1  0.4821294E-002  0.4831108E+03  0.7818608E-02  0.1018284E+00
         21   -1    0    0  501  502  0.00000000000E+00  0.00000000000E+00  0.78511180660E+03  0.78511180660E+03  0.00000000000E+00 0.  1.
         21   -1    0    0  502  503 -0.00000000000E+00 -0.00000000000E+00 -0.30435453505E+03  0.30435453505E+03  0.00000000000E+00 0.  1.
    9000007    1    1    2  501    0  0.23016885737E+03  0.14289283297E+03  0.32344400804E+03  0.58138807259E+03  0.40000000000E+03 0.  1.
   -9000007    1    1    2    0  503 -0.23016885737E+03 -0.14289283297E+03  0.15731326351E+03  0.50807826906E+03  0.40000000000E+03 0.  1.
<mgrwt>
<rscale>  2 0.48311082E+03</rscale>
<asrwt>0</asrwt>
<pdfrwt beam="1">  1       21 0.12078643E+00 0.48311082E+03</pdfrwt>
<pdfrwt beam="2">  1       21 0.46823775E-01 0.48311082E+03</pdfrwt>
<totfact> 0.19273793E+03</totfact>
</mgrwt>
</event>
<event>
 4    1  0.4821294E-002  0.6905844E+03  0.7818608E-02  0.9733471E-01
         21   -1    0    0  501  502  0.00000000000E+00  0.00000000000E+00  0.12692781695E+04  0.12692781695E+04  0.00000000000E+00 0. -1.
         21   -1    0    0  502  503 -0.00000000000E+00 -0.00000000000E+00 -0.44427031775E+03  0.44427031775E+03  0.00000000000E+00 0. -1.
    9000007    1    1    2  501    0 -0.45753162827E+03 -0.32798108583E+03  0.74902601094E+03  0.10187967160E+04  0.40000000000E+03 0. -1.
   -9000007    1    1    2    0  503  0.45753162827E+03  0.32798108583E+03  0.75981840856E+02  0.69475177126E+03  0.40000000000E+03 0. -1.
<mgrwt>
<rscale>  2 0.69058438E+03</rscale>
<asrwt>0</asrwt>
<pdfrwt beam="1">  1       21 0.19527356E+00 0.69058438E+03</pdfrwt>
<pdfrwt beam="2">  1       21 0.68349280E-01 0.69058438E+03</pdfrwt>
<totfact> 0.20652355E+02</totfact>
</mgrwt>
</event>
<event>
 4    1  0.4821294E-002  0.4505548E+03  0.7818608E-02  0.1027557E+00
         21   -1    0    0  503  502  0.00000000000E+00  0.00000000000E+00  0.30583675952E+03  0.30583675952E+03  0.00000000000E+00 0. -1.
         21   -1    0    0  501  503 -0.00000000000E+00 -0.00000000000E+00 -0.97897170182E+03  0.97897170182E+03  0.00000000000E+00 0. -1.
    9000007    1    1    2  501    0 -0.12443715764E+03 -0.16587658947E+03 -0.70109493305E+03  0.83338691752E+03  0.40000000000E+03 0. -1.
   -9000007    1    1    2    0  502  0.12443715764E+03  0.16587658947E+03  0.27959990753E+02  0.45142154382E+03  0.40000000000E+03 0. -1.
<mgrwt>
<rscale>  2 0.45055482E+03</rscale>
<asrwt>0</asrwt>
<pdfrwt beam="1">  1       21 0.47051809E-01 0.45055482E+03</pdfrwt>
<pdfrwt beam="2">  1       21 0.15061103E+00 0.45055482E+03</pdfrwt>
<totfact> 0.10810329E+03</totfact>
</mgrwt>
</event>
<event>
 4    1  0.4821294E-002  0.4763387E+03  0.7818608E-02  0.1020146E+00
         21   -1    0    0  503  502  0.00000000000E+00  0.00000000000E+00  0.37503580619E+03  0.37503580619E+03  0.00000000000E+00 0.  1.
         21   -1    0    0  501  503 -0.00000000000E+00 -0.00000000000E+00 -0.63583044095E+03  0.63583044095E+03  0.00000000000E+00 0.  1.
    9000007    1    1    2  501    0  0.19370745213E+03  0.17139424680E+03 -0.24168502203E+03  0.53414437629E+03  0.40000000000E+03 0.  1.
   -9000007    1    1    2    0  502 -0.19370745213E+03 -0.17139424680E+03 -0.19109612729E+02  0.47672187085E+03  0.40000000000E+03 0.  1.
<mgrwt>
<rscale>  2 0.47633871E+03</rscale>
<asrwt>0</asrwt>
<pdfrwt beam="1">  1       21 0.57697817E-01 0.47633871E+03</pdfrwt>
<pdfrwt beam="2">  1       21 0.97820067E-01 0.47633871E+03</pdfrwt>
<totfact> 0.20840653E+03</totfact>
</mgrwt>
</event>
<event>
 4    1  0.4821294E-002  0.4884078E+03  0.7818608E-02  0.1016850E+00
         21   -1    0    0  503  502  0.00000000000E+00  0.00000000000E+00  0.15689138484E+04  0.15689138484E+04  0.00000000000E+00 0.  1.
         21   -1    0    0  501  503 -0.00000000000E+00 -0.00000000000E+00 -0.16388032685E+03  0.16388032685E+03  0.00000000000E+00 0.  1.
    9000007    1    1    2  501    0  0.10395278058E+03  0.26026143795E+03  0.46966345984E+03  0.67758834272E+03  0.40000000000E+03 0.  1.
   -9000007    1    1    2    0  502 -0.10395278058E+03 -0.26026143795E+03  0.93537006174E+03  0.10552058326E+04  0.40000000000E+03 0.  1.
<mgrwt>
<rscale>  2 0.48840782E+03</rscale>
<asrwt>0</asrwt>
<pdfrwt beam="1">  1       21 0.24137135E+00 0.48840782E+03</pdfrwt>
<pdfrwt beam="2">  1       21 0.25212359E-01 0.48840782E+03</pdfrwt>
<totfact> 0.89980632E+02</totfact>
</mgrwt>
</event>
<event>
 4    1  0.4821294E-002  0.5951077E+03  0.7818608E-02  0.9915608E-01
         21   -1    0    0  503  502  0.00000000000E+00  0.00000000000E+00  0.13690409935E+04  0.13690409935E+04  0.00000000000E+00 0. -1.
         21   -1    0    0  501  503 -0.00000000000E+00 -0.00000000000E+00 -0.40231551611E+03  0.40231551611E+03  0.00000000000E+00 0. -1.
    9000007    1    1    2  501    0 -0.41461411023E+03  0.14915879717E+03 -0.45828709790E+02  0.59686973270E+03  0.40000000000E+03 0. -1.
   -9000007    1    1    2    0  502  0.41461411023E+03 -0.14915879717E+03  0.10125541872E+04  0.11744867770E+04  0.40000000000E+03 0. -1.
<mgrwt>
<rscale>  2 0.59510773E+03</rscale>
<asrwt>0</asrwt>
<pdfrwt beam="1">  1       21 0.21062169E+00 0.59510773E+03</pdfrwt>
<pdfrwt beam="2">  1       21 0.61894696E-01 0.59510773E+03</pdfrwt>
<totfact> 0.21053878E+02</totfact>
</mgrwt>
</event>
<event>
 4    1  0.4821294E-002  0.6041882E+03  0.7818608E-02  0.9896755E-01
         21   -1    0    0  501  502  0.00000000000E+00  0.00000000000E+00  0.10633401817E+04  0.10633401817E+04  0.00000000000E+00 0. -1.
         21   -1    0    0  502  503 -0.00000000000E+00 -0.00000000000E+00 -0.36500509952E+03  0.36500509952E+03  0.00000000000E+00 0.  1.
    9000007    1    1    2  501    0  0.45066653079E+03  0.44079752865E+02  0.52332706131E+03  0.79932131192E+03  0.40000000000E+03 0. -1.
   -9000007    1    1    2    0  503 -0.45066653079E+03 -0.44079752865E+02  0.17500802087E+03  0.62902396930E+03  0.40000000000E+03 0. -1.
<mgrwt>
<rscale>  2 0.60418817E+03</rscale>
<asrwt>0</asrwt>
<pdfrwt beam="1">  1       21 0.16359080E+00 0.60418817E+03</pdfrwt>
<pdfrwt beam="2">  1       21 0.56154631E-01 0.60418817E+03</pdfrwt>
<totfact> 0.55490369E+02</totfact>
</mgrwt>
</event>
<event>
 4    1  0.4821294E-002  0.4226292E+03  0.7818608E-02  0.1036214E+00
         21   -1    0    0  503  502  0.00000000000E+00  0.00000000000E+00  0.55948112874E+03  0.55948112874E+03  0.00000000000E+00 0.  1.
         21   -1    0    0  501  503 -0.00000000000E+00 -0.00000000000E+00 -0.38632229429E+03  0.38632229429E+03  0.00000000000E+00 0. -1.
    9000007    1    1    2  501    0  0.13639339358E+03 -0.35021241449E+01 -0.11046374826E+03  0.43682681049E+03  0.40000000000E+03 0. -1.
   -9000007    1    1    2    0  502 -0.13639339358E+03  0.35021241449E+01  0.28362258272E+03  0.50897661254E+03  0.40000000000E+03 0.  1.
<mgrwt>
<rscale>  2 0.42262918E+03</rscale>
<asrwt>0</asrwt>
<pdfrwt beam="1">  1       21 0.86074019E-01 0.42262918E+03</pdfrwt>
<pdfrwt beam="2">  1       21 0.59434199E-01 0.42262918E+03</pdfrwt>
<totfact> 0.27011475E+03</totfact>
</mgrwt>
</event>
<event>
 4    1  0.4821294E-002  0.4338589E+03  0.7818608E-02  0.1032648E+00
         21   -1    0    0  501  502  0.00000000000E+00  0.00000000000E+00  0.49174174238E+03  0.49174174238E+03  0.00000000000E+00 0. -1.
         21   -1    0    0  502  503 -0.00000000000E+00 -0.00000000000E+00 -0.38315133754E+03  0.38315133754E+03  0.00000000000E+00 0. -1.
    9000007    1    1    2  501    0  0.16386163838E+03 -0.37187130924E+02  0.67740348115E+02  0.43911533109E+03  0.40000000000E+03 0. -1.
   -9000007    1    1    2    0  503 -0.16386163838E+03  0.37187130924E+02  0.40850056726E+02  0.43577774883E+03  0.40000000000E+03 0. -1.
<mgrwt>
<rscale>  2 0.43385887E+03</rscale>
<asrwt>0</asrwt>
<pdfrwt beam="1">  1       21 0.75652576E-01 0.43385887E+03</pdfrwt>
<pdfrwt beam="2">  1       21 0.58946360E-01 0.43385887E+03</pdfrwt>
<totfact> 0.36910669E+03</totfact>
</mgrwt>
</event>
<event>
 4    1  0.4821294E-002  0.5023443E+03  0.7818608E-02  0.1013169E+00
         21   -1    0    0  503  502  0.00000000000E+00  0.00000000000E+00  0.10673859880E+04  0.10673859880E+04  0.00000000000E+00 0. -1.
         21   -1    0    0  501  503 -0.00000000000E+00 -0.00000000000E+00 -0.23748590674E+03  0.23748590674E+03  0.00000000000E+00 0. -1.
    9000007    1    1    2  501    0  0.25071551818E+03 -0.17173101477E+03  0.37120987285E+03  0.62461714850E+03  0.40000000000E+03 0. -1.
   -9000007    1    1    2    0  502 -0.25071551818E+03  0.17173101477E+03  0.45869020840E+03  0.68025474624E+03  0.40000000000E+03 0. -1.
<mgrwt>
<rscale>  2 0.50234432E+03</rscale>
<asrwt>0</asrwt>
<pdfrwt beam="1">  1       21 0.16421323E+00 0.50234432E+03</pdfrwt>
<pdfrwt beam="2">  1       21 0.36536294E-01 0.50234432E+03</pdfrwt>
<totfact> 0.14077181E+03</totfact>
</mgrwt>
</event>
<event>
 4    1  0.4821294E-002  0.4683438E+03  0.7818608E-02  0.1022389E+00
         21   -1    0    0  501  502  0.00000000000E+00  0.00000000000E+00  0.25277355962E+03  0.25277355962E+03  0.00000000000E+00 0. -1.
         21   -1    0    0  502  503 -0.00000000000E+00 -0.00000000000E+00 -0.92769448739E+03  0.92769448739E+03  0.00000000000E+00 0.  1.
    9000007    1    1    2  501    0 -0.23062103154E+03 -0.78484608901E+02 -0.18743226092E+03  0.50445688265E+03  0.40000000000E+03 0.  1.
   -9000007    1    1    2    0  503  0.23062103154E+03  0.78484608901E+02 -0.48748866686E+03  0.67601116436E+03  0.40000000000E+03 0. -1.
<mgrwt>
<rscale>  2 0.46834378E+03</rscale>
<asrwt>0</asrwt>
<pdfrwt beam="1">  1       21 0.38888241E-01 0.46834378E+03</pdfrwt>
<pdfrwt beam="2">  1       21 0.14272223E+00 0.46834378E+03</pdfrwt>
<totfact> 0.18450101E+03</totfact>
</mgrwt>
</event>
<event>
 4    1  0.4821294E-002  0.4107625E+03  0.7818608E-02  0.1040115E+00
         21   -1    0    0  501  502  0.00000000000E+00  0.00000000000E+00  0.16810455412E+04  0.16810455412E+04  0.00000000000E+00 0. -1.
         21   -1    0    0  502  503 -0.00000000000E+00 -0.00000000000E+00 -0.10299636621E+03  0.10299636621E+03  0.00000000000E+00 0. -1.
    9000007    1    1    2  501    0  0.88000517192E+02 -0.31332385017E+02  0.93147959675E+03  0.10180275284E+04  0.40000000000E+03 0. -1.
   -9000007    1    1    2    0  503 -0.88000517192E+02  0.31332385017E+02  0.64656957823E+03  0.76601437903E+03  0.40000000000E+03 0. -1.
<mgrwt>
<rscale>  2 0.41076247E+03</rscale>
<asrwt>0</asrwt>
<pdfrwt beam="1">  1       21 0.25862237E+00 0.41076247E+03</pdfrwt>
<pdfrwt beam="2">  1       21 0.15845596E-01 0.41076247E+03</pdfrwt>
<totfact> 0.17727277E+03</totfact>
</mgrwt>
</event>
<event>
 4    1  0.4821294E-002  0.4324104E+03  0.7818608E-02  0.1033101E+00
         21   -1    0    0  501  502  0.00000000000E+00  0.00000000000E+00  0.36495224740E+03  0.36495224740E+03  0.00000000000E+00 0.  1.
         21   -1    0    0  502  503 -0.00000000000E+00 -0.00000000000E+00 -0.93781615267E+03  0.93781615267E+03  0.00000000000E+00 0.  1.
    9000007    1    1    2  501    0 -0.15000572678E+03 -0.66910873265E+02  0.15231808648E+03  0.45845346819E+03  0.40000000000E+03 0.  1.
   -9000007    1    1    2    0  503  0.15000572678E+03  0.66910873265E+02 -0.72518199175E+03  0.84431493187E+03  0.40000000000E+03 0.  1.
<mgrwt>
<rscale>  2 0.43241043E+03</rscale>
<asrwt>0</asrwt>
<pdfrwt beam="1">  1       21 0.56146499E-01 0.43241043E+03</pdfrwt>
<pdfrwt beam="2">  1       21 0.14427941E+00 0.43241043E+03</pdfrwt>
<totfact> 0.83899221E+02</totfact>
</mgrwt>
</event>
<event>
 4    1  0.4821294E-002  0.4206967E+03  0.7818608E-02  0.1036840E+00
         21   -1    0    0  501  502  0.00000000000E+00  0.00000000000E+00  0.30058689565E+03  0.30058689565E+03  0.00000000000E+00 0. -1.
         21   -1    0    0  502  503 -0.00000000000E+00 -0.00000000000E+00 -0.73614201347E+03  0.73614201347E+03  0.00000000000E+00 0. -1.
    9000007    1    1    2  501    0  0.12629912662E+03 -0.32159370830E+02  0.14131157421E+02  0.42093394271E+03  0.40000000000E+03 0. -1.
   -9000007    1    1    2    0  503 -0.12629912662E+03  0.32159370830E+02 -0.44968627524E+03  0.61579496641E+03  0.40000000000E+03 0. -1.
<mgrwt>
<rscale>  2 0.42069668E+03</rscale>
<asrwt>0</asrwt>
<pdfrwt beam="1">  1       21 0.46244138E-01 0.42069668E+03</pdfrwt>
<pdfrwt beam="2">  1       21 0.11325262E+00 0.42069668E+03</pdfrwt>
<totfact> 0.23824139E+03</totfact>
</mgrwt>
</event>
<event>
 4    1  0.4821294E-002  0.6052190E+03  0.7818608E-02  0.9894637E-01
         21   -1    0    0  501  502  0.00000000000E+00  0.00000000000E+00  0.83542973475E+03  0.83542973475E+03  0.00000000000E+00 0. -1.
         21   -1    0    0  502  503 -0.00000000000E+00 -0.00000000000E+00 -0.45202461061E+03  0.45202461061E+03  0.00000000000E+00 0.  1.
    9000007    1    1    2  501    0 -0.13593534287E+03  0.43337237590E+03  0.30327672201E+03  0.67695406325E+03  0.40000000000E+03 0. -1.
   -9000007    1    1    2    0  503  0.13593534287E+03 -0.43337237590E+03  0.80128402122E+02  0.61050028211E+03  0.40000000000E+03 0.  1.
<mgrwt>
<rscale>  2 0.60521900E+03</rscale>
<asrwt>0</asrwt>
<pdfrwt beam="1">  1       21 0.12852765E+00 0.60521900E+03</pdfrwt>
<pdfrwt beam="2">  1       21 0.69542248E-01 0.60521900E+03</pdfrwt>
<totfact> 0.66420928E+02</totfact>
</mgrwt>
</event>
<event>
 4    1  0.4821294E-002  0.5258347E+03  0.7818608E-02  0.1007247E+00
         21   -1    0    0  501  502  0.00000000000E+00  0.00000000000E+00  0.25106850392E+03  0.25106850392E+03  0.00000000000E+00 0. -1.
         21   -1    0    0  502  503 -0.00000000000E+00 -0.00000000000E+00 -0.12397335305E+04  0.12397335305E+04  0.00000000000E+00 0. -1.
    9000007    1    1    2  501    0 -0.79789086058E+02 -0.33186716866E+03 -0.24524949062E+03  0.58021498476E+03  0.40000000000E+03 0. -1.
   -9000007    1    1    2    0  503  0.79789086058E+02  0.33186716866E+03 -0.74341553595E+03  0.91058704964E+03  0.40000000000E+03 0. -1.
<mgrwt>
<rscale>  2 0.52583468E+03</rscale>
<asrwt>0</asrwt>
<pdfrwt beam="1">  1       21 0.38625924E-01 0.52583468E+03</pdfrwt>
<pdfrwt beam="2">  1       21 0.19072823E+00 0.52583468E+03</pdfrwt>
<totfact> 0.80480841E+02</totfact>
</mgrwt>
</event>
<event>
 4    1  0.4821294E-002  0.5546285E+03  0.7818608E-02  0.1000428E+00
         21   -1    0    0  501  502  0.00000000000E+00  0.00000000000E+00  0.68150882251E+03  0.68150882251E+03  0.00000000000E+00 0. -1.
         21   -1    0    0  502  503 -0.00000000000E+00 -0.00000000000E+00 -0.61194610927E+03  0.61194610927E+03  0.00000000000E+00 0. -1.
    9000007    1    1    2  501    0 -0.22087307951E+03 -0.31436904610E+03  0.36606868935E+03  0.66454427973E+03  0.40000000000E+03 0. -1.
   -9000007    1    1    2    0  503  0.22087307951E+03  0.31436904610E+03 -0.29650597610E+03  0.62891065205E+03  0.40000000000E+03 0. -1.
<mgrwt>
<rscale>  2 0.55462854E+03</rscale>
<asrwt>0</asrwt>
<pdfrwt beam="1">  1       21 0.10484751E+00 0.55462854E+03</pdfrwt>
<pdfrwt beam="2">  1       21 0.94145555E-01 0.55462854E+03</pdfrwt>
<totfact> 0.55886958E+02</totfact>
</mgrwt>
</event>
<event>
 4    1  0.4821294E-002  0.4370350E+03  0.7818608E-02  0.1031660E+00
         21   -1    0    0  503  502  0.00000000000E+00  0.00000000000E+00  0.10701753541E+03  0.10701753541E+03  0.00000000000E+00 0.  1.
         21   -1    0    0  501  503 -0.00000000000E+00 -0.00000000000E+00 -0.18433377610E+04  0.18433377610E+04  0.00000000000E+00 0.  1.
    9000007    1    1    2  501    0  0.77725616863E+02  0.15798198287E+03 -0.10420136844E+04  0.11299522543E+04  0.40000000000E+03 0. -1.
   -9000007    1    1    2    0  502 -0.77725616863E+02 -0.15798198287E+03 -0.69430654111E+03  0.82040304208E+03  0.40000000000E+03 0. -1.
<mgrwt>
<rscale>  2 0.43703499E+03</rscale>
<asrwt>0</asrwt>
<pdfrwt beam="1">  1       21 0.16464236E-01 0.43703499E+03</pdfrwt>
<pdfrwt beam="2">  1       21 0.28359043E+00 0.43703499E+03</pdfrwt>
<totfact> 0.11506992E+03</totfact>
</mgrwt>
</event>
<event>
 4    1  0.4821294E-002  0.5468166E+03  0.7818608E-02  0.1002233E+00
         21   -1    0    0  503  502  0.00000000000E+00  0.00000000000E+00  0.25317139389E+03  0.25317139389E+03  0.00000000000E+00 0. -1.
         21   -1    0    0  501  503 -0.00000000000E+00 -0.00000000000E+00 -0.12459695704E+04  0.12459695704E+04  0.00000000000E+00 0. -1.
    9000007    1    1    2  501    0  0.37132158683E+03 -0.33595614887E+02 -0.66749611476E+03  0.86287858324E+03  0.40000000000E+03 0. -1.
   -9000007    1    1    2    0  502 -0.37132158683E+03  0.33595614887E+02 -0.32530206177E+03  0.63626238108E+03  0.40000000000E+03 0. -1.
<mgrwt>
<rscale>  2 0.54681659E+03</rscale>
<asrwt>0</asrwt>
<pdfrwt beam="1">  1       21 0.38949445E-01 0.54681659E+03</pdfrwt>
<pdfrwt beam="2">  1       21 0.19168763E+00 0.54681659E+03</pdfrwt>
<totfact> 0.77298683E+02</totfact>
</mgrwt>
</event>
<event>
 4    1  0.4821294E-002  0.4659816E+03  0.7818608E-02  0.1023061E+00
         21   -1    0    0  503  502  0.00000000000E+00  0.00000000000E+00  0.11227245477E+03  0.11227245477E+03  0.00000000000E+00 0.  1.
         21   -1    0    0  501  503 -0.00000000000E+00 -0.00000000000E+00 -0.23061905267E+04  0.23061905267E+04  0.00000000000E+00 0. -1.
    9000007    1    1    2  501    0  0.21223821716E+03 -0.10997192716E+03 -0.15827214910E+04  0.16498927855E+04  0.40000000000E+03 0. -1.
   -9000007    1    1    2    0  502 -0.21223821716E+03  0.10997192716E+03 -0.61119658094E+03  0.76857019598E+03  0.40000000000E+03 0.  1.
<mgrwt>
<rscale>  2 0.46598164E+03</rscale>
<asrwt>0</asrwt>
<pdfrwt beam="1">  1       21 0.17272687E-01 0.46598164E+03</pdfrwt>
<pdfrwt beam="2">  1       21 0.35479852E+00 0.46598164E+03</pdfrwt>
<totfact> 0.38344173E+02</totfact>
</mgrwt>
</event>
<event>
 4    1  0.4821294E-002  0.4417489E+03  0.7818608E-02  0.1030212E+00
         21   -1    0    0  501  502  0.00000000000E+00  0.00000000000E+00  0.20779499883E+03  0.20779499883E+03  0.00000000000E+00 0.  1.
         21   -1    0    0  502  503 -0.00000000000E+00 -0.00000000000E+00 -0.11304666774E+04  0.11304666774E+04  0.00000000000E+00 0.  1.
    9000007    1    1    2  501    0  0.12206563735E+03 -0.14227462786E+03 -0.18603631684E+03  0.47932410824E+03  0.40000000000E+03 0.  1.
   -9000007    1    1    2    0  503 -0.12206563735E+03  0.14227462786E+03 -0.73663536174E+03  0.85893756800E+03  0.40000000000E+03 0.  1.
<mgrwt>
<rscale>  2 0.44174890E+03</rscale>
<asrwt>0</asrwt>
<pdfrwt beam="1">  1       21 0.31968462E-01 0.44174890E+03</pdfrwt>
<pdfrwt beam="2">  1       21 0.17391795E+00 0.44174890E+03</pdfrwt>
<totfact> 0.16042532E+03</totfact>
</mgrwt>
</event>
<event>
 4    1  0.4821294E-002  0.6385537E+03  0.7818608E-02  0.9828498E-01
         21   -1    0    0  503  502  0.00000000000E+00  0.00000000000E+00  0.81529594637E+03  0.81529594637E+03  0.00000000000E+00 0.  1.
         21   -1    0    0  501  503 -0.00000000000E+00 -0.00000000000E+00 -0.50187488866E+03  0.50187488866E+03  0.00000000000E+00 0. -1.
    9000007    1    1    2  501    0  0.20706804584E+02 -0.49731488554E+03  0.19558549953E+03  0.66783572438E+03  0.40000000000E+03 0. -1.
   -9000007    1    1    2    0  502 -0.20706804584E+02  0.49731488554E+03  0.11783555818E+03  0.64933511064E+03  0.40000000000E+03 0. -1.
<mgrwt>
<rscale>  2 0.63855373E+03</rscale>
<asrwt>0</asrwt>
<pdfrwt beam="1">  1       21 0.12543015E+00 0.63855373E+03</pdfrwt>
<pdfrwt beam="2">  1       21 0.77211521E-01 0.63855373E+03</pdfrwt>
<totfact> 0.55139779E+02</totfact>
</mgrwt>
</event>
<event>
 4    1  0.4821294E-002  0.4191831E+03  0.7818608E-02  0.1037333E+00
         21   -1    0    0  503  502  0.00000000000E+00  0.00000000000E+00  0.18963621091E+04  0.18963621091E+04  0.00000000000E+00 0. -1.
         21   -1    0    0  501  503 -0.00000000000E+00 -0.00000000000E+00 -0.11604859950E+03  0.11604859950E+03  0.00000000000E+00 0. -1.
    9000007    1    1    2  501    0  0.12170940326E+03 -0.30021389919E+02  0.43842483742E+03  0.60657299706E+03  0.40000000000E+03 0.  1.
   -9000007    1    1    2    0  502 -0.12170940326E+03  0.30021389919E+02  0.13418886722E+04  0.14058377116E+04  0.40000000000E+03 0.  1.
<mgrwt>
<rscale>  2 0.41918309E+03</rscale>
<asrwt>0</asrwt>
<pdfrwt beam="1">  1       21 0.29174800E+00 0.41918309E+03</pdfrwt>
<pdfrwt beam="2">  1       21 0.17853632E-01 0.41918309E+03</pdfrwt>
<totfact> 0.89187124E+02</totfact>
</mgrwt>
</event>
<event>
 4    1  0.4821294E-002  0.4374018E+03  0.7818608E-02  0.1031547E+00
         21   -1    0    0  503  502  0.00000000000E+00  0.00000000000E+00  0.23055110490E+03  0.23055110490E+03  0.00000000000E+00 0.  1.
         21   -1    0    0  501  503 -0.00000000000E+00 -0.00000000000E+00 -0.17046589359E+04  0.17046589359E+04  0.00000000000E+00 0.  1.
    9000007    1    1    2  501    0  0.14420669592E+03  0.10259029903E+03 -0.14302221520E+04  0.14956121639E+04  0.40000000000E+03 0.  1.
   -9000007    1    1    2    0  502 -0.14420669592E+03 -0.10259029903E+03 -0.43885679023E+02  0.43959787696E+03  0.40000000000E+03 0.  1.
<mgrwt>
<rscale>  2 0.43740181E+03</rscale>
<asrwt>0</asrwt>
<pdfrwt beam="1">  1       21 0.35469402E-01 0.43740181E+03</pdfrwt>
<pdfrwt beam="2">  1       21 0.26225522E+00 0.43740181E+03</pdfrwt>
<totfact> 0.34885603E+02</totfact>
</mgrwt>
</event>
<event>
 4    1  0.4821294E-002  0.4247444E+03  0.7818608E-02  0.1035533E+00
         21   -1    0    0  501  502  0.00000000000E+00  0.00000000000E+00  0.23170936519E+03  0.23170936519E+03  0.00000000000E+00 0. -1.
         21   -1    0    0  502  503 -0.00000000000E+00 -0.00000000000E+00 -0.22182910360E+04  0.22182910360E+04  0.00000000000E+00 0. -1.
    9000007    1    1    2  501    0 -0.37721174072E+02 -0.13778580553E+03 -0.64155753803E+01  0.42479286104E+03  0.40000000000E+03 0. -1.
   -9000007    1    1    2    0  503  0.37721174072E+02  0.13778580553E+03 -0.19801660955E+04  0.20252075402E+04  0.40000000000E+03 0. -1.
<mgrwt>
<rscale>  2 0.42474441E+03</rscale>
<asrwt>0</asrwt>
<pdfrwt beam="1">  1       21 0.35647594E-01 0.42474441E+03</pdfrwt>
<pdfrwt beam="2">  1       21 0.34127555E+00 0.42474441E+03</pdfrwt>
<totfact> 0.11626950E+02</totfact>
</mgrwt>
</event>
<event>
 4    1  0.4821294E-002  0.4581727E+03  0.7818608E-02  0.1025313E+00
         21   -1    0    0  501  502  0.00000000000E+00  0.00000000000E+00  0.48466241629E+03  0.48466241629E+03  0.00000000000E+00 0.  1.
         21   -1    0    0  502  503 -0.00000000000E+00 -0.00000000000E+00 -0.43379361973E+03  0.43379361973E+03  0.00000000000E+00 0. -1.
    9000007    1    1    2  501    0  0.17036958297E+03 -0.14455603045E+03  0.74841460109E+01  0.45823384116E+03  0.40000000000E+03 0. -1.
   -9000007    1    1    2    0  503 -0.17036958297E+03  0.14455603045E+03  0.43384650549E+02  0.46022219486E+03  0.40000000000E+03 0.  1.
<mgrwt>
<rscale>  2 0.45817272E+03</rscale>
<asrwt>0</asrwt>
<pdfrwt beam="1">  1       21 0.74563449E-01 0.45817272E+03</pdfrwt>
<pdfrwt beam="2">  1       21 0.66737480E-01 0.45817272E+03</pdfrwt>
<totfact> 0.28757077E+03</totfact>
</mgrwt>
</event>
<event>
 4    1  0.4821294E-002  0.4336561E+03  0.7818608E-02  0.1032711E+00
         21   -1    0    0  501  502  0.00000000000E+00  0.00000000000E+00  0.85053543949E+03  0.85053543949E+03  0.00000000000E+00 0.  1.
         21   -1    0    0  502  503 -0.00000000000E+00 -0.00000000000E+00 -0.25464865643E+03  0.25464865643E+03  0.00000000000E+00 0. -1.
    9000007    1    1    2  501    0 -0.75484239552E+01 -0.16733386210E+03  0.49850113196E+03  0.66072761307E+03  0.40000000000E+03 0.  1.
   -9000007    1    1    2    0  503  0.75484239552E+01  0.16733386210E+03  0.97385651099E+02  0.44445648285E+03  0.40000000000E+03 0. -1.
<mgrwt>
<rscale>  2 0.43365609E+03</rscale>
<asrwt>0</asrwt>
<pdfrwt beam="1">  1       21 0.13085160E+00 0.43365609E+03</pdfrwt>
<pdfrwt beam="2">  1       21 0.39176717E-01 0.43365609E+03</pdfrwt>
<totfact> 0.23156383E+03</totfact>
</mgrwt>
</event>
<event>
 4    1  0.4821294E-002  0.4011142E+03  0.7818608E-02  0.1043395E+00
         21   -1    0    0  501  502  0.00000000000E+00  0.00000000000E+00  0.49703325906E+03  0.49703325906E+03  0.00000000000E+00 0.  1.
         21   -1    0    0  502  503 -0.00000000000E+00 -0.00000000000E+00 -0.33572197092E+03  0.33572197092E+03  0.00000000000E+00 0.  1.
    9000007    1    1    2  501    0 -0.72357307787E+01 -0.28986951732E+02  0.15942888369E+03  0.43163661583E+03  0.40000000000E+03 0.  1.
   -9000007    1    1    2    0  503  0.72357307787E+01  0.28986951732E+02  0.18824044435E+01  0.40111861415E+03  0.40000000000E+03 0.  1.
<mgrwt>
<rscale>  2 0.40111420E+03</rscale>
<asrwt>0</asrwt>
<pdfrwt beam="1">  1       21 0.76466655E-01 0.40111420E+03</pdfrwt>
<pdfrwt beam="2">  1       21 0.51649534E-01 0.40111420E+03</pdfrwt>
<totfact> 0.48472957E+03</totfact>
</mgrwt>
</event>
<event>
 4    1  0.4821294E-002  0.4494566E+03  0.7818608E-02  0.1027884E+00
         21   -1    0    0  503  502  0.00000000000E+00  0.00000000000E+00  0.99014711296E+03  0.99014711296E+03  0.00000000000E+00 0. -1.
         21   -1    0    0  501  503 -0.00000000000E+00 -0.00000000000E+00 -0.22505037779E+03  0.22505037779E+03  0.00000000000E+00 0. -1.
    9000007    1    1    2  501    0  0.62242205269E+02 -0.19528740859E+03  0.56827980090E+03  0.72453653889E+03  0.40000000000E+03 0. -1.
   -9000007    1    1    2    0  502 -0.62242205269E+02  0.19528740859E+03  0.19681693427E+03  0.49066095187E+03  0.40000000000E+03 0. -1.
<mgrwt>
<rscale>  2 0.44945663E+03</rscale>
<asrwt>0</asrwt>
<pdfrwt beam="1">  1       21 0.15233032E+00 0.44945663E+03</pdfrwt>
<pdfrwt beam="2">  1       21 0.34623136E-01 0.44945663E+03</pdfrwt>
<totfact> 0.19745228E+03</totfact>
</mgrwt>
</event>
<event>
 4    1  0.4821294E-002  0.5198962E+03  0.7818608E-02  0.1008712E+00
         21   -1    0    0  501  502  0.00000000000E+00  0.00000000000E+00  0.95427164144E+03  0.95427164144E+03  0.00000000000E+00 0.  1.
         21   -1    0    0  502  503 -0.00000000000E+00 -0.00000000000E+00 -0.28325242597E+03  0.28325242597E+03  0.00000000000E+00 0.  1.
    9000007    1    1    2  501    0 -0.14096657085E+03 -0.30069995290E+03  0.33220243206E+03  0.61696879308E+03  0.40000000000E+03 0.  1.
   -9000007    1    1    2    0  503  0.14096657085E+03  0.30069995290E+03  0.33881678341E+03  0.62055527433E+03  0.40000000000E+03 0.  1.
<mgrwt>
<rscale>  2 0.51989618E+03</rscale>
<asrwt>0</asrwt>
<pdfrwt beam="1">  1       21 0.14681102E+00 0.51989618E+03</pdfrwt>
<pdfrwt beam="2">  1       21 0.43577297E-01 0.51989618E+03</pdfrwt>
<totfact> 0.13250445E+03</totfact>
</mgrwt>
</event>
<event>
 4    1  0.4821294E-002  0.4048971E+03  0.7818608E-02  0.1042097E+00
         21   -1    0    0  503  502  0.00000000000E+00  0.00000000000E+00  0.54110533517E+03  0.54110533517E+03  0.00000000000E+00 0. -1.
         21   -1    0    0  501  503 -0.00000000000E+00 -0.00000000000E+00 -0.37844641590E+03  0.37844641590E+03  0.00000000000E+00 0. -1.
    9000007    1    1    2  501    0 -0.48048102643E+02 -0.40410477766E+02  0.28665074073E+03  0.49609502521E+03  0.40000000000E+03 0. -1.
   -9000007    1    1    2    0  502  0.48048102643E+02  0.40410477766E+02 -0.12399182146E+03  0.42345672585E+03  0.40000000000E+03 0. -1.
<mgrwt>
<rscale>  2 0.40489706E+03</rscale>
<asrwt>0</asrwt>
<pdfrwt beam="1">  1       21 0.83246975E-01 0.40489706E+03</pdfrwt>
<pdfrwt beam="2">  1       21 0.58222525E-01 0.40489706E+03</pdfrwt>
<totfact> 0.30752947E+03</totfact>
</mgrwt>
</event>
<event>
 4    1  0.4821294E-002  0.4800375E+03  0.7818608E-02  0.1019125E+00
         21   -1    0    0  501  502  0.00000000000E+00  0.00000000000E+00  0.17925647150E+04  0.17925647150E+04  0.00000000000E+00 0.  1.
         21   -1    0    0  502  503 -0.00000000000E+00 -0.00000000000E+00 -0.19759633931E+03  0.19759633931E+03  0.00000000000E+00 0.  1.
    9000007    1    1    2  501    0 -0.16213770003E+03 -0.21011276615E+03  0.13856989594E+04  0.14664916005E+04  0.40000000000E+03 0.  1.
   -9000007    1    1    2    0  503  0.16213770003E+03  0.21011276615E+03  0.20926941633E+03  0.52366945384E+03  0.40000000000E+03 0.  1.
<mgrwt>
<rscale>  2 0.48003751E+03</rscale>
<asrwt>0</asrwt>
<pdfrwt beam="1">  1       21 0.27577918E+00 0.48003751E+03</pdfrwt>
<pdfrwt beam="2">  1       21 0.30399438E-01 0.48003751E+03</pdfrwt>
<totfact> 0.38461285E+02</totfact>
</mgrwt>
</event>
<event>
 4    1  0.4821294E-002  0.4561190E+03  0.7818608E-02  0.1025913E+00
         21   -1    0    0  503  502  0.00000000000E+00  0.00000000000E+00  0.82576756816E+03  0.82576756816E+03  0.00000000000E+00 0.  1.
         21   -1    0    0  501  503 -0.00000000000E+00 -0.00000000000E+00 -0.26958306065E+03  0.26958306065E+03  0.00000000000E+00 0.  1.
    9000007    1    1    2  501    0 -0.82894635428E+02  0.20291139638E+03  0.13798720670E+03  0.47653438971E+03  0.40000000000E+03 0.  1.
   -9000007    1    1    2    0  502  0.82894635428E+02 -0.20291139638E+03  0.41819730080E+03  0.61881623909E+03  0.40000000000E+03 0.  1.
<mgrwt>
<rscale>  2 0.45611901E+03</rscale>
<asrwt>0</asrwt>
<pdfrwt beam="1">  1       21 0.12704116E+00 0.45611901E+03</pdfrwt>
<pdfrwt beam="2">  1       21 0.41474317E-01 0.45611901E+03</pdfrwt>
<totfact> 0.22034059E+03</totfact>
</mgrwt>
</event>
<event>
 4    1  0.4821294E-002  0.4316716E+03  0.7818608E-02  0.1033333E+00
         21   -1    0    0  503  502  0.00000000000E+00  0.00000000000E+00  0.15525150242E+04  0.15525150242E+04  0.00000000000E+00 0.  1.
         21   -1    0    0  501  503 -0.00000000000E+00 -0.00000000000E+00 -0.12598938332E+03  0.12598938332E+03  0.00000000000E+00 0.  1.
    9000007    1    1    2  501    0  0.16223338985E+03  0.45462840085E+01  0.53065695588E+03  0.68405931490E+03  0.40000000000E+03 0.  1.
   -9000007    1    1    2    0  502 -0.16223338985E+03 -0.45462840085E+01  0.89586868496E+03  0.99444509259E+03  0.40000000000E+03 0.  1.
<mgrwt>
<rscale>  2 0.43167157E+03</rscale>
<asrwt>0</asrwt>
<pdfrwt beam="1">  1       21 0.23884845E+00 0.43167157E+03</pdfrwt>
<pdfrwt beam="2">  1       21 0.19382983E-01 0.43167157E+03</pdfrwt>
<totfact> 0.15888432E+03</totfact>
</mgrwt>
</event>
<event>
 4    1  0.4821294E-002  0.4774454E+03  0.7818608E-02  0.1019840E+00
         21   -1    0    0  503  502  0.00000000000E+00  0.00000000000E+00  0.13075624359E+04  0.13075624359E+04  0.00000000000E+00 0.  1.
         21   -1    0    0  501  503 -0.00000000000E+00 -0.00000000000E+00 -0.17628240117E+03  0.17628240117E+03  0.00000000000E+00 0.  1.
    9000007    1    1    2  501    0  0.17633075413E+03 -0.19199367845E+03  0.64361652959E+03  0.80137153966E+03  0.40000000000E+03 0.  1.
   -9000007    1    1    2    0  502 -0.17633075413E+03  0.19199367845E+03  0.48766350512E+03  0.68247329739E+03  0.40000000000E+03 0.  1.
<mgrwt>
<rscale>  2 0.47744540E+03</rscale>
<asrwt>0</asrwt>
<pdfrwt beam="1">  1       21 0.20116345E+00 0.47744540E+03</pdfrwt>
<pdfrwt beam="2">  1       21 0.27120370E-01 0.47744540E+03</pdfrwt>
<totfact> 0.14196380E+03</totfact>
</mgrwt>
</event>
<event>
 4    1  0.4821294E-002  0.5654404E+03  0.7818608E-02  0.9979819E-01
         21   -1    0    0  501  502  0.00000000000E+00  0.00000000000E+00  0.48548434370E+03  0.48548434370E+03  0.00000000000E+00 0.  1.
         21   -1    0    0  502  503 -0.00000000000E+00 -0.00000000000E+00 -0.66154946206E+03  0.66154946206E+03  0.00000000000E+00 0.  1.
    9000007    1    1    2  501    0  0.29168750384E+03  0.27320548880E+03 -0.49509413648E+02  0.56760375355E+03  0.40000000000E+03 0.  1.
   -9000007    1    1    2    0  503 -0.29168750384E+03 -0.27320548880E+03 -0.12655570471E+03  0.57943005221E+03  0.40000000000E+03 0.  1.
<mgrwt>
<rscale>  2 0.56544039E+03</rscale>
<asrwt>0</asrwt>
<pdfrwt beam="1">  1       21 0.74689899E-01 0.56544039E+03</pdfrwt>
<pdfrwt beam="2">  1       21 0.10177684E+00 0.56544039E+03</pdfrwt>
<totfact> 0.10314867E+03</totfact>
</mgrwt>
</event>
<event>
 4    1  0.4821294E-002  0.4040969E+03  0.7818608E-02  0.1042370E+00
         21   -1    0    0  503  502  0.00000000000E+00  0.00000000000E+00  0.32790879202E+03  0.32790879202E+03  0.00000000000E+00 0.  1.
         21   -1    0    0  501  503 -0.00000000000E+00 -0.00000000000E+00 -0.56940248911E+03  0.56940248911E+03  0.00000000000E+00 0.  1.
    9000007    1    1    2  501    0  0.48944998165E+02  0.29978587543E+02 -0.27963793657E+03  0.49141805433E+03  0.40000000000E+03 0.  1.
   -9000007    1    1    2    0  502 -0.48944998165E+02 -0.29978587543E+02  0.38144239481E+02  0.40589322680E+03  0.40000000000E+03 0.  1.
<mgrwt>
<rscale>  2 0.40409693E+03</rscale>
<asrwt>0</asrwt>
<pdfrwt beam="1">  1       21 0.50447507E-01 0.40409693E+03</pdfrwt>
<pdfrwt beam="2">  1       21 0.87600381E-01 0.40409693E+03</pdfrwt>
<totfact> 0.37161554E+03</totfact>
</mgrwt>
</event>
<event>
 4    1  0.4821294E-002  0.4366547E+03  0.7818608E-02  0.1031778E+00
         21   -1    0    0  503  502  0.00000000000E+00  0.00000000000E+00  0.35887673019E+03  0.35887673019E+03  0.00000000000E+00 0.  1.
         21   -1    0    0  501  503 -0.00000000000E+00 -0.00000000000E+00 -0.75406790769E+03  0.75406790769E+03  0.00000000000E+00 0.  1.
    9000007    1    1    2  501    0 -0.29235730196E+02  0.17266331467E+03 -0.50006059072E+03  0.66387343865E+03  0.40000000000E+03 0.  1.
   -9000007    1    1    2    0  502  0.29235730196E+02 -0.17266331467E+03  0.10486941323E+03  0.44907119923E+03  0.40000000000E+03 0.  1.
<mgrwt>
<rscale>  2 0.43665472E+03</rscale>
<asrwt>0</asrwt>
<pdfrwt beam="1">  1       21 0.55211805E-01 0.43665472E+03</pdfrwt>
<pdfrwt beam="2">  1       21 0.11601045E+00 0.43665472E+03</pdfrwt>
<totfact> 0.15286200E+03</totfact>
</mgrwt>
</event>
<event>
 4    1  0.4821294E-002  0.4437832E+03  0.7818608E-02  0.1029592E+00
         21   -1    0    0  503  502  0.00000000000E+00  0.00000000000E+00  0.26491507985E+03  0.26491507985E+03  0.00000000000E+00 0.  1.
         21   -1    0    0  501  503 -0.00000000000E+00 -0.00000000000E+00 -0.75929444687E+03  0.75929444687E+03  0.00000000000E+00 0. -1.
    9000007    1    1    2  501    0  0.16745699041E+03  0.94348762385E+02 -0.17314664860E+03  0.47636466549E+03  0.40000000000E+03 0.  1.
   -9000007    1    1    2    0  502 -0.16745699041E+03 -0.94348762385E+02 -0.32123271841E+03  0.54784486124E+03  0.40000000000E+03 0.  1.
<mgrwt>
<rscale>  2 0.44378320E+03</rscale>
<asrwt>0</asrwt>
<pdfrwt beam="1">  1       21 0.40756166E-01 0.44378320E+03</pdfrwt>
<pdfrwt beam="2">  1       21 0.11681453E+00 0.44378320E+03</pdfrwt>
<totfact> 0.28433369E+03</totfact>
</mgrwt>
</event>
<event>
 4    1  0.4821294E-002  0.4898915E+03  0.7818608E-02  0.1016452E+00
         21   -1    0    0  503  502  0.00000000000E+00  0.00000000000E+00  0.16757444081E+04  0.16757444081E+04  0.00000000000E+00 0. -1.
         21   -1    0    0  501  503 -0.00000000000E+00 -0.00000000000E+00 -0.28903105216E+03  0.28903105216E+03  0.00000000000E+00 0. -1.
    9000007    1    1    2  501    0  0.13993431547E+03  0.24578866368E+03 -0.44122362740E+01  0.48991136715E+03  0.40000000000E+03 0. -1.
   -9000007    1    1    2    0  502 -0.13993431547E+03 -0.24578866368E+03  0.13911255923E+04  0.14748640932E+04  0.40000000000E+03 0. -1.
<mgrwt>
<rscale>  2 0.48989150E+03</rscale>
<asrwt>0</asrwt>
<pdfrwt beam="1">  1       21 0.25780683E+00 0.48989150E+03</pdfrwt>
<pdfrwt beam="2">  1       21 0.44466317E-01 0.48989150E+03</pdfrwt>
<totfact> 0.22645420E+02</totfact>
</mgrwt>
</event>
<event>
 4    1  0.4821294E-002  0.4651730E+03  0.7818608E-02  0.1023292E+00
         21   -1    0    0  503  502  0.00000000000E+00  0.00000000000E+00  0.14172828932E+04  0.14172828932E+04  0.00000000000E+00 0.  1.
         21   -1    0    0  501  503 -0.00000000000E+00 -0.00000000000E+00 -0.15545634761E+03  0.15545634761E+03  0.00000000000E+00 0. -1.
    9000007    1    1    2  501    0  0.83385197099E+02  0.22233492495E+03  0.52575910986E+03  0.70200324183E+03  0.40000000000E+03 0. -1.
   -9000007    1    1    2    0  502 -0.83385197099E+02 -0.22233492495E+03  0.73606743572E+03  0.87073599895E+03  0.40000000000E+03 0.  1.
<mgrwt>
<rscale>  2 0.46517299E+03</rscale>
<asrwt>0</asrwt>
<pdfrwt beam="1">  1       21 0.21804351E+00 0.46517299E+03</pdfrwt>
<pdfrwt beam="2">  1       21 0.23916362E-01 0.46517299E+03</pdfrwt>
<totfact> 0.14145522E+03</totfact>
</mgrwt>
</event>
<event>
 4    1  0.4821294E-002  0.4321233E+03  0.7818608E-02  0.1033191E+00
         21   -1    0    0  501  502  0.00000000000E+00  0.00000000000E+00  0.28814836900E+03  0.28814836900E+03  0.00000000000E+00 0. -1.
         21   -1    0    0  502  503 -0.00000000000E+00 -0.00000000000E+00 -0.95758196677E+03  0.95758196677E+03  0.00000000000E+00 0. -1.
    9000007    1    1    2  501    0  0.16343902679E+03  0.42702803533E+01  0.19417960921E+02  0.43255936931E+03  0.40000000000E+03 0. -1.
   -9000007    1    1    2    0  503 -0.16343902679E+03 -0.42702803533E+01 -0.68885155869E+03  0.81317096646E+03  0.40000000000E+03 0. -1.
<mgrwt>
<rscale>  2 0.43212331E+03</rscale>
<asrwt>0</asrwt>
<pdfrwt beam="1">  1       21 0.44330519E-01 0.43212331E+03</pdfrwt>
<pdfrwt beam="2">  1       21 0.14732030E+00 0.43212331E+03</pdfrwt>
<totfact> 0.13108037E+03</totfact>
</mgrwt>
</event>
<event>
 4    1  0.4821294E-002  0.4107844E+03  0.7818608E-02  0.1040108E+00
         21   -1    0    0  503  502  0.00000000000E+00  0.00000000000E+00  0.75316417154E+02  0.75316417154E+02  0.00000000000E+00 0. -1.
         21   -1    0    0  501  503 -0.00000000000E+00 -0.00000000000E+00 -0.22879396509E+04  0.22879396509E+04  0.00000000000E+00 0. -1.
    9000007    1    1    2  501    0  0.90547912684E+02  0.23343559510E+02 -0.12765221276E+04  0.13409894066E+04  0.40000000000E+03 0. -1.
   -9000007    1    1    2    0  502 -0.90547912684E+02 -0.23343559510E+02 -0.93610110612E+03  0.10222666615E+04  0.40000000000E+03 0. -1.
<mgrwt>
<rscale>  2 0.41078443E+03</rscale>
<asrwt>0</asrwt>
<pdfrwt beam="1">  1       21 0.11587141E-01 0.41078443E+03</pdfrwt>
<pdfrwt beam="2">  1       21 0.35199071E+00 0.41078443E+03</pdfrwt>
<totfact> 0.86232681E+02</totfact>
</mgrwt>
</event>
<event>
 4    1  0.4821294E-002  0.6085457E+03  0.7818608E-02  0.9887833E-01
         21   -1    0    0  503  502  0.00000000000E+00  0.00000000000E+00  0.17536122930E+04  0.17536122930E+04  0.00000000000E+00 0.  1.
         21   -1    0    0  501  503 -0.00000000000E+00 -0.00000000000E+00 -0.23099437641E+03  0.23099437641E+03  0.00000000000E+00 0. -1.
    9000007    1    1    2  501    0 -0.67305603188E+02 -0.45364944839E+03  0.10519345223E+04  0.12152753208E+04  0.40000000000E+03 0. -1.
   -9000007    1    1    2    0  502  0.67305603188E+02  0.45364944839E+03  0.47068339432E+03  0.76933134860E+03  0.40000000000E+03 0. -1.
<mgrwt>
<rscale>  2 0.60854570E+03</rscale>
<asrwt>0</asrwt>
<pdfrwt beam="1">  1       21 0.26978650E+00 0.60854570E+03</pdfrwt>
<pdfrwt beam="2">  1       21 0.35537597E-01 0.60854570E+03</pdfrwt>
<totfact> 0.28776168E+02</totfact>
</mgrwt>
</event>
<event>
 4    1  0.4821294E-002  0.4613387E+03  0.7818608E-02  0.1024394E+00
         21   -1    0    0  503  502  0.00000000000E+00  0.00000000000E+00  0.19427559093E+03  0.19427559093E+03  0.00000000000E+00 0. -1.
         21   -1    0    0  501  503 -0.00000000000E+00 -0.00000000000E+00 -0.11077289163E+04  0.11077289163E+04  0.00000000000E+00 0. -1.
    9000007    1    1    2  501    0  0.10239504114E+03  0.20578787485E+03 -0.38839067059E+03  0.60305945552E+03  0.40000000000E+03 0. -1.
   -9000007    1    1    2    0  502 -0.10239504114E+03 -0.20578787485E+03 -0.52506265479E+03  0.69894505173E+03  0.40000000000E+03 0. -1.
<mgrwt>
<rscale>  2 0.46133870E+03</rscale>
<asrwt>0</asrwt>
<pdfrwt beam="1">  1       21 0.29888552E-01 0.46133870E+03</pdfrwt>
<pdfrwt beam="2">  1       21 0.17041983E+00 0.46133870E+03</pdfrwt>
<totfact> 0.19286957E+03</totfact>
</mgrwt>
</event>
<event>
 4    1  0.4821294E-002  0.4258601E+03  0.7818608E-02  0.1035176E+00
         21   -1    0    0  503  502  0.00000000000E+00  0.00000000000E+00  0.39057849558E+03  0.39057849558E+03  0.00000000000E+00 0.  1.
         21   -1    0    0  501  503 -0.00000000000E+00 -0.00000000000E+00 -0.47995654405E+03  0.47995654405E+03  0.00000000000E+00 0.  1.
    9000007    1    1    2  501    0  0.26023474712E+02 -0.14380403980E+03 -0.12323142936E+03  0.44333148803E+03  0.40000000000E+03 0.  1.
   -9000007    1    1    2    0  502 -0.26023474712E+02  0.14380403980E+03  0.33853380901E+02  0.42720355160E+03  0.40000000000E+03 0.  1.
<mgrwt>
<rscale>  2 0.42586010E+03</rscale>
<asrwt>0</asrwt>
<pdfrwt beam="1">  1       21 0.60088999E-01 0.42586010E+03</pdfrwt>
<pdfrwt beam="2">  1       21 0.73839468E-01 0.42586010E+03</pdfrwt>
<totfact> 0.37510680E+03</totfact>
</mgrwt>
</event>
<event>
 4    1  0.4821294E-002  0.4175415E+03  0.7818608E-02  0.1037869E+00
         21   -1    0    0  501  502  0.00000000000E+00  0.00000000000E+00  0.61494663528E+03  0.61494663528E+03  0.00000000000E+00 0. -1.
         21   -1    0    0  502  503 -0.00000000000E+00 -0.00000000000E+00 -0.35984787492E+03  0.35984787492E+03  0.00000000000E+00 0. -1.
    9000007    1    1    2  501    0  0.21748650273E+02 -0.11776204586E+03  0.35204390190E+03  0.54614632847E+03  0.40000000000E+03 0.  1.
   -9000007    1    1    2    0  503 -0.21748650273E+02  0.11776204586E+03 -0.96945141536E+02  0.42864818173E+03  0.40000000000E+03 0.  1.
<mgrwt>
<rscale>  2 0.41754150E+03</rscale>
<asrwt>0</asrwt>
<pdfrwt beam="1">  1       21 0.94607175E-01 0.41754150E+03</pdfrwt>
<pdfrwt beam="2">  1       21 0.55361211E-01 0.41754150E+03</pdfrwt>
<totfact> 0.25247554E+03</totfact>
</mgrwt>
</event>
<event>
 4    1  0.4821294E-002  0.4144730E+03  0.7818608E-02  0.1038880E+00
         21   -1    0    0  501  502  0.00000000000E+00  0.00000000000E+00  0.80626756749E+03  0.80626756749E+03  0.00000000000E+00 0. -1.
         21   -1    0    0  502  503 -0.00000000000E+00 -0.00000000000E+00 -0.25010386247E+03  0.25010386247E+03  0.00000000000E+00 0. -1.
    9000007    1    1    2  501    0  0.32544485139E+02  0.10357950009E+03  0.74821839817E+02  0.42117236859E+03  0.40000000000E+03 0. -1.
   -9000007    1    1    2    0  503 -0.32544485139E+02 -0.10357950009E+03  0.48134186521E+03  0.63519906136E+03  0.40000000000E+03 0. -1.
<mgrwt>
<rscale>  2 0.41447299E+03</rscale>
<asrwt>0</asrwt>
<pdfrwt beam="1">  1       21 0.12404116E+00 0.41447299E+03</pdfrwt>
<pdfrwt beam="2">  1       21 0.38477518E-01 0.41447299E+03</pdfrwt>
<totfact> 0.27786647E+03</totfact>
</mgrwt>
</event>
<event>
 4    1  0.4821294E-002  0.6105640E+03  0.7818608E-02  0.9883728E-01
         21   -1    0    0  503  502  0.00000000000E+00  0.00000000000E+00  0.11048747504E+04  0.11048747504E+04  0.00000000000E+00 0. -1.
         21   -1    0    0  501  503 -0.00000000000E+00 -0.00000000000E+00 -0.36770948372E+03  0.36770948372E+03  0.00000000000E+00 0. -1.
    9000007    1    1    2  501    0  0.53449425388E+02 -0.45818285642E+03  0.15720284235E+03  0.63047688668E+03  0.40000000000E+03 0. -1.
   -9000007    1    1    2    0  502 -0.53449425388E+02  0.45818285642E+03  0.57996242437E+03  0.84210734747E+03  0.40000000000E+03 0. -1.
<mgrwt>
<rscale>  2 0.61056398E+03</rscale>
<asrwt>0</asrwt>
<pdfrwt beam="1">  1       21 0.16998073E+00 0.61056398E+03</pdfrwt>
<pdfrwt beam="2">  1       21 0.56570690E-01 0.61056398E+03</pdfrwt>
<totfact> 0.48837078E+02</totfact>
</mgrwt>
</event>
<event>
 4    1  0.4821294E-002  0.4213355E+03  0.7818608E-02  0.1036633E+00
         21   -1    0    0  503  502  0.00000000000E+00  0.00000000000E+00  0.12623910075E+03  0.12623910075E+03  0.00000000000E+00 0. -1.
         21   -1    0    0  501  503 -0.00000000000E+00 -0.00000000000E+00 -0.14100633688E+04  0.14100633688E+04  0.00000000000E+00 0. -1.
    9000007    1    1    2  501    0 -0.89660295586E+02 -0.97389017226E+02 -0.68186498108E+03  0.80153817233E+03  0.40000000000E+03 0. -1.
   -9000007    1    1    2    0  502  0.89660295586E+02  0.97389017226E+02 -0.60195928694E+03  0.73476429718E+03  0.40000000000E+03 0. -1.
<mgrwt>
<rscale>  2 0.42133548E+03</rscale>
<asrwt>0</asrwt>
<pdfrwt beam="1">  1       21 0.19421400E-01 0.42133548E+03</pdfrwt>
<pdfrwt beam="2">  1       21 0.21693283E+00 0.42133548E+03</pdfrwt>
<totfact> 0.21860835E+03</totfact>
</mgrwt>
</event>
<event>
 4    1  0.4821294E-002  0.4824051E+03  0.7818608E-02  0.1018476E+00
         21   -1    0    0  503  502  0.00000000000E+00  0.00000000000E+00  0.18571859315E+03  0.18571859315E+03  0.00000000000E+00 0. -1.
         21   -1    0    0  501  503 -0.00000000000E+00 -0.00000000000E+00 -0.14406843477E+04  0.14406843477E+04  0.00000000000E+00 0.  1.
    9000007    1    1    2  501    0 -0.19324175824E+03  0.18807519272E+03 -0.92095718116E+03  0.10396522422E+04  0.40000000000E+03 0.  1.
   -9000007    1    1    2    0  502  0.19324175824E+03 -0.18807519272E+03 -0.33400857340E+03  0.58675069864E+03  0.40000000000E+03 0. -1.
<mgrwt>
<rscale>  2 0.48240507E+03</rscale>
<asrwt>0</asrwt>
<pdfrwt beam="1">  1       21 0.28572090E-01 0.48240507E+03</pdfrwt>
<pdfrwt beam="2">  1       21 0.22164375E+00 0.48240507E+03</pdfrwt>
<totfact> 0.93963050E+02</totfact>
</mgrwt>
</event>
<event>
 4    1  0.4821294E-002  0.5930625E+03  0.7818608E-02  0.9919905E-01
         21   -1    0    0  503  502  0.00000000000E+00  0.00000000000E+00  0.12953328078E+04  0.12953328078E+04  0.00000000000E+00 0.  1.
         21   -1    0    0  501  503 -0.00000000000E+00 -0.00000000000E+00 -0.43694777247E+03  0.43694777247E+03  0.00000000000E+00 0.  1.
    9000007    1    1    2  501    0  0.54063626778E+01 -0.43782859343E+03 -0.10372887368E+03  0.60206543267E+03  0.40000000000E+03 0.  1.
   -9000007    1    1    2    0  502 -0.54063626778E+01  0.43782859343E+03  0.96211390898E+03  0.11302151476E+04  0.40000000000E+03 0.  1.
<mgrwt>
<rscale>  2 0.59306248E+03</rscale>
<asrwt>0</asrwt>
<pdfrwt beam="1">  1       21 0.19928197E+00 0.59306248E+03</pdfrwt>
<pdfrwt beam="2">  1       21 0.67222735E-01 0.59306248E+03</pdfrwt>
<totfact> 0.20854752E+02</totfact>
</mgrwt>
</event>
<event>
 4    1  0.4821294E-002  0.5137525E+03  0.7818608E-02  0.1010250E+00
         21   -1    0    0  501  502  0.00000000000E+00  0.00000000000E+00  0.86448893374E+03  0.86448893374E+03  0.00000000000E+00 0. -1.
         21   -1    0    0  502  503 -0.00000000000E+00 -0.00000000000E+00 -0.34227864623E+03  0.34227864623E+03  0.00000000000E+00 0.  1.
    9000007    1    1    2  501    0 -0.22394940036E+03 -0.23192305500E+03  0.62820176909E+02  0.51757899106E+03  0.40000000000E+03 0.  1.
   -9000007    1    1    2    0  503  0.22394940036E+03  0.23192305500E+03  0.45939011060E+03  0.68918858891E+03  0.40000000000E+03 0. -1.
<mgrwt>
<rscale>  2 0.51375251E+03</rscale>
<asrwt>0</asrwt>
<pdfrwt beam="1">  1       21 0.13299830E+00 0.51375251E+03</pdfrwt>
<pdfrwt beam="2">  1       21 0.52658254E-01 0.51375251E+03</pdfrwt>
<totfact> 0.11570420E+03</totfact>
</mgrwt>
</event>
<event>
 4    1  0.4821294E-002  0.4027972E+03  0.7818608E-02  0.1042815E+00
         21   -1    0    0  501  502  0.00000000000E+00  0.00000000000E+00  0.92286967216E+03  0.92286967216E+03  0.00000000000E+00 0.  1.
         21   -1    0    0  502  503 -0.00000000000E+00 -0.00000000000E+00 -0.17806874114E+03  0.17806874114E+03  0.00000000000E+00 0.  1.
    9000007    1    1    2  501    0 -0.39328869908E+02  0.26435347918E+02  0.31034183914E+03  0.50848563868E+03  0.40000000000E+03 0.  1.
   -9000007    1    1    2    0  503  0.39328869908E+02 -0.26435347918E+02  0.43445909189E+03  0.59245277462E+03  0.40000000000E+03 0.  1.
<mgrwt>
<rscale>  2 0.40279720E+03</rscale>
<asrwt>0</asrwt>
<pdfrwt beam="1">  1       21 0.14197995E+00 0.40279720E+03</pdfrwt>
<pdfrwt beam="2">  1       21 0.27395191E-01 0.40279720E+03</pdfrwt>
<totfact> 0.38762403E+03</totfact>
</mgrwt>
</event>
<event>
 4    1  0.4821294E-002  0.4035445E+03  0.7818608E-02  0.1042559E+00
         21   -1    0    0  503  502  0.00000000000E+00  0.00000000000E+00  0.25038166933E+03  0.25038166933E+03  0.00000000000E+00 0. -1.
         21   -1    0    0  501  503 -0.00000000000E+00 -0.00000000000E+00 -0.65076747953E+03  0.65076747953E+03  0.00000000000E+00 0. -1.
    9000007    1    1    2  501    0 -0.51608048736E+02 -0.13592320695E+02 -0.18948026677E+03  0.44581488689E+03  0.40000000000E+03 0. -1.
   -9000007    1    1    2    0  502  0.51608048736E+02  0.13592320695E+02 -0.21090554343E+03  0.45533426197E+03  0.40000000000E+03 0. -1.
<mgrwt>
<rscale>  2 0.40354447E+03</rscale>
<asrwt>0</asrwt>
<pdfrwt beam="1">  1       21 0.38520257E-01 0.40354447E+03</pdfrwt>
<pdfrwt beam="2">  1       21 0.10011807E+00 0.40354447E+03</pdfrwt>
<totfact> 0.47436460E+03</totfact>
</mgrwt>
</event>
<event>
 4    1  0.4821294E-002  0.4066679E+03  0.7818608E-02  0.1041495E+00
         21   -1    0    0  503  502  0.00000000000E+00  0.00000000000E+00  0.27296693124E+04  0.27296693124E+04  0.00000000000E+00 0. -1.
         21   -1    0    0  501  503 -0.00000000000E+00 -0.00000000000E+00 -0.92699063163E+02  0.92699063163E+02  0.00000000000E+00 0. -1.
    9000007    1    1    2  501    0  0.72876528540E+02 -0.82311645725E+01  0.48788998759E+03  0.63514988819E+03  0.40000000000E+03 0. -1.
   -9000007    1    1    2    0  502 -0.72876528540E+02  0.82311645725E+01  0.21490802616E+04  0.21872184874E+04  0.40000000000E+03 0. -1.
<mgrwt>
<rscale>  2 0.40666785E+03</rscale>
<asrwt>0</asrwt>
<pdfrwt beam="1">  1       21 0.41994906E+00 0.40666785E+03</pdfrwt>
<pdfrwt beam="2">  1       21 0.14261396E-01 0.40666785E+03</pdfrwt>
<totfact> 0.22027347E+02</totfact>
</mgrwt>
</event>
<event>
 4    1  0.4821294E-002  0.5926666E+03  0.7818608E-02  0.9920738E-01
         21   -1    0    0  503  502  0.00000000000E+00  0.00000000000E+00  0.26219579739E+04  0.26219579739E+04  0.00000000000E+00 0. -1.
         21   -1    0    0  501  503 -0.00000000000E+00 -0.00000000000E+00 -0.14531249521E+03  0.14531249521E+03  0.00000000000E+00 0.  1.
    9000007    1    1    2  501    0 -0.41404098292E+03  0.14079705726E+03  0.16249541805E+04  0.17296617691E+04  0.40000000000E+03 0. -1.
   -9000007    1    1    2    0  502  0.41404098292E+03 -0.14079705726E+03  0.85169129818E+03  0.10376087000E+04  0.40000000000E+03 0.  1.
<mgrwt>
<rscale>  2 0.59266664E+03</rscale>
<asrwt>0</asrwt>
<pdfrwt beam="1">  1       21 0.40337811E+00 0.59266664E+03</pdfrwt>
<pdfrwt beam="2">  1       21 0.22355770E-01 0.59266664E+03</pdfrwt>
<totfact> 0.10773587E+02</totfact>
</mgrwt>
</event>
<event>
 4    1  0.4821294E-002  0.4123520E+03  0.7818608E-02  0.1039585E+00
         21   -1    0    0  503  502  0.00000000000E+00  0.00000000000E+00  0.12761777739E+04  0.12761777739E+04  0.00000000000E+00 0.  1.
         21   -1    0    0  501  503 -0.00000000000E+00 -0.00000000000E+00 -0.15366818679E+03  0.15366818679E+03  0.00000000000E+00 0.  1.
    9000007    1    1    2  501    0 -0.53638819253E+02 -0.84599202601E+02  0.30057122654E+03  0.51027170237E+03  0.40000000000E+03 0.  1.
   -9000007    1    1    2    0  502  0.53638819253E+02  0.84599202601E+02  0.82193836056E+03  0.91957425833E+03  0.40000000000E+03 0.  1.
<mgrwt>
<rscale>  2 0.41235197E+03</rscale>
<asrwt>0</asrwt>
<pdfrwt beam="1">  1       21 0.19633503E+00 0.41235197E+03</pdfrwt>
<pdfrwt beam="2">  1       21 0.23641260E-01 0.41235197E+03</pdfrwt>
<totfact> 0.20560387E+03</totfact>
</mgrwt>
</event>
<event>
 4    1  0.4821294E-002  0.4666336E+03  0.7818608E-02  0.1022875E+00
         21   -1    0    0  503  502  0.00000000000E+00  0.00000000000E+00  0.69460718837E+03  0.69460718837E+03  0.00000000000E+00 0.  1.
         21   -1    0    0  501  503 -0.00000000000E+00 -0.00000000000E+00 -0.33537368762E+03  0.33537368762E+03  0.00000000000E+00 0. -1.
    9000007    1    1    2  501    0  0.50799662015E+02  0.23487511915E+03  0.31119169602E+03  0.56088073503E+03  0.40000000000E+03 0.  1.
   -9000007    1    1    2    0  502 -0.50799662015E+02 -0.23487511915E+03  0.48041804733E+02  0.46910014097E+03  0.40000000000E+03 0. -1.
<mgrwt>
<rscale>  2 0.46663361E+03</rscale>
<asrwt>0</asrwt>
<pdfrwt beam="1">  1       21 0.10686264E+00 0.46663361E+03</pdfrwt>
<pdfrwt beam="2">  1       21 0.51595952E-01 0.46663361E+03</pdfrwt>
<totfact> 0.21439386E+03</totfact>
</mgrwt>
</event>
<event>
 4    1  0.4821294E-002  0.5183950E+03  0.7818608E-02  0.1009086E+00
         21   -1    0    0  503  502  0.00000000000E+00  0.00000000000E+00  0.83963427037E+03  0.83963427037E+03  0.00000000000E+00 0.  1.
         21   -1    0    0  501  503 -0.00000000000E+00 -0.00000000000E+00 -0.40705752208E+03  0.40705752208E+03  0.00000000000E+00 0.  1.
    9000007    1    1    2  501    0  0.18444659999E+03 -0.27333644426E+03 -0.71885501915E+02  0.52335541021E+03  0.40000000000E+03 0.  1.
   -9000007    1    1    2    0  502 -0.18444659999E+03  0.27333644426E+03  0.50446225019E+03  0.72333638224E+03  0.40000000000E+03 0.  1.
<mgrwt>
<rscale>  2 0.51839498E+03</rscale>
<asrwt>0</asrwt>
<pdfrwt beam="1">  1       21 0.12917450E+00 0.51839498E+03</pdfrwt>
<pdfrwt beam="2">  1       21 0.62624234E-01 0.51839498E+03</pdfrwt>
<totfact> 0.85398498E+02</totfact>
</mgrwt>
</event>
<event>
 4    1  0.4821294E-002  0.5520060E+03  0.7818608E-02  0.1001031E+00
         21   -1    0    0  503  502  0.00000000000E+00  0.00000000000E+00  0.48315272663E+03  0.48315272663E+03  0.00000000000E+00 0. -1.
         21   -1    0    0  501  503 -0.00000000000E+00 -0.00000000000E+00 -0.64368936843E+03  0.64368936843E+03  0.00000000000E+00 0. -1.
    9000007    1    1    2  501    0  0.21795024914E+03  0.31178251601E+03 -0.14387116110E+00  0.55200604081E+03  0.40000000000E+03 0. -1.
   -9000007    1    1    2    0  502 -0.21795024914E+03 -0.31178251601E+03 -0.16039277064E+03  0.57483605425E+03  0.40000000000E+03 0. -1.
<mgrwt>
<rscale>  2 0.55200602E+03</rscale>
<asrwt>0</asrwt>
<pdfrwt beam="1">  1       21 0.74331189E-01 0.55200602E+03</pdfrwt>
<pdfrwt beam="2">  1       21 0.99029133E-01 0.55200602E+03</pdfrwt>
<totfact> 0.11200823E+03</totfact>
</mgrwt>
</event>
<event>
 4    1  0.4821294E-002  0.4034473E+03  0.7818608E-02  0.1042592E+00
         21   -1    0    0  503  502  0.00000000000E+00  0.00000000000E+00  0.15397738452E+03  0.15397738452E+03  0.00000000000E+00 0. -1.
         21   -1    0    0  501  503 -0.00000000000E+00 -0.00000000000E+00 -0.12130393929E+04  0.12130393929E+04  0.00000000000E+00 0. -1.
    9000007    1    1    2  501    0 -0.39927560081E+02 -0.34286185925E+02 -0.77459638798E+03  0.87336665661E+03  0.40000000000E+03 0. -1.
   -9000007    1    1    2    0  502  0.39927560081E+02  0.34286185925E+02 -0.28446562042E+03  0.49365012084E+03  0.40000000000E+03 0. -1.
<mgrwt>
<rscale>  2 0.40344734E+03</rscale>
<asrwt>0</asrwt>
<pdfrwt beam="1">  1       21 0.23688829E-01 0.40344734E+03</pdfrwt>
<pdfrwt beam="2">  1       21 0.18662144E+00 0.40344734E+03</pdfrwt>
<totfact> 0.23938707E+03</totfact>
</mgrwt>
</event>
<event>
 4    1  0.4821294E-002  0.5589581E+03  0.7818608E-02  0.9994415E-01
         21   -1    0    0  503  502  0.00000000000E+00  0.00000000000E+00  0.44272291274E+03  0.44272291274E+03  0.00000000000E+00 0. -1.
         21   -1    0    0  501  503 -0.00000000000E+00 -0.00000000000E+00 -0.72253373854E+03  0.72253373854E+03  0.00000000000E+00 0.  1.
    9000007    1    1    2  501    0  0.37853343781E+03 -0.95638112431E+02 -0.22880857638E+03  0.60397647033E+03  0.40000000000E+03 0. -1.
   -9000007    1    1    2    0  502 -0.37853343781E+03  0.95638112431E+02 -0.51002249420E+02  0.56128018096E+03  0.40000000000E+03 0.  1.
<mgrwt>
<rscale>  2 0.55895815E+03</rscale>
<asrwt>0</asrwt>
<pdfrwt beam="1">  1       21 0.68111217E-01 0.55895815E+03</pdfrwt>
<pdfrwt beam="2">  1       21 0.11115904E+00 0.55895815E+03</pdfrwt>
<totfact> 0.10240158E+03</totfact>
</mgrwt>
</event>
<event>
 4    1  0.4821294E-002  0.4034775E+03  0.7818608E-02  0.1042582E+00
         21   -1    0    0  501  502  0.00000000000E+00  0.00000000000E+00  0.19350152109E+03  0.19350152109E+03  0.00000000000E+00 0.  1.
         21   -1    0    0  502  503 -0.00000000000E+00 -0.00000000000E+00 -0.11646594961E+04  0.11646594961E+04  0.00000000000E+00 0.  1.
    9000007    1    1    2  501    0 -0.30112550580E+02  0.43443231912E+02 -0.12776258136E+03  0.42322258600E+03  0.40000000000E+03 0.  1.
   -9000007    1    1    2    0  503  0.30112550580E+02 -0.43443231912E+02 -0.84339539365E+03  0.93493843120E+03  0.40000000000E+03 0.  1.
<mgrwt>
<rscale>  2 0.40347748E+03</rscale>
<asrwt>0</asrwt>
<pdfrwt beam="1">  1       21 0.29769465E-01 0.40347748E+03</pdfrwt>
<pdfrwt beam="2">  1       21 0.17917838E+00 0.40347748E+03</pdfrwt>
<totfact> 0.17254280E+03</totfact>
</mgrwt>
</event>
<event>
 4    1  0.4821294E-002  0.4312693E+03  0.7818608E-02  0.1033460E+00
         21   -1    0    0  501  502  0.00000000000E+00  0.00000000000E+00  0.40816792068E+03  0.40816792068E+03  0.00000000000E+00 0.  1.
         21   -1    0    0  502  503 -0.00000000000E+00 -0.00000000000E+00 -0.45571415767E+03  0.45571415767E+03  0.00000000000E+00 0.  1.
    9000007    1    1    2  501    0  0.16122292418E+03 -0.63878073821E+00 -0.27607878355E+02  0.43215209622E+03  0.40000000000E+03 0.  1.
   -9000007    1    1    2    0  503 -0.16122292418E+03  0.63878073821E+00 -0.19938358639E+02  0.43172998213E+03  0.40000000000E+03 0.  1.
<mgrwt>
<rscale>  2 0.43126934E+03</rscale>
<asrwt>0</asrwt>
<pdfrwt beam="1">  1       21 0.62795065E-01 0.43126934E+03</pdfrwt>
<pdfrwt beam="2">  1       21 0.70109870E-01 0.43126934E+03</pdfrwt>
<totfact> 0.38207725E+03</totfact>
</mgrwt>
</event>
<event>
 4    1  0.4821294E-002  0.4432395E+03  0.7818608E-02  0.1029757E+00
         21   -1    0    0  501  502  0.00000000000E+00  0.00000000000E+00  0.78798913272E+03  0.78798913272E+03  0.00000000000E+00 0.  1.
         21   -1    0    0  502  503 -0.00000000000E+00 -0.00000000000E+00 -0.35480172203E+03  0.35480172203E+03  0.00000000000E+00 0.  1.
    9000007    1    1    2  501    0  0.71838196784E+02  0.17691963774E+03  0.52814742445E+03  0.68949328256E+03  0.40000000000E+03 0.  1.
   -9000007    1    1    2    0  503 -0.71838196784E+02 -0.17691963774E+03 -0.94960013764E+02  0.45329757219E+03  0.40000000000E+03 0.  1.
<mgrwt>
<rscale>  2 0.44323953E+03</rscale>
<asrwt>0</asrwt>
<pdfrwt beam="1">  1       21 0.12122910E+00 0.44323953E+03</pdfrwt>
<pdfrwt beam="2">  1       21 0.54584880E-01 0.44323953E+03</pdfrwt>
<totfact> 0.13980505E+03</totfact>
</mgrwt>
</event>
<event>
 4    1  0.4821294E-002  0.4026400E+03  0.7818608E-02  0.1042869E+00
         21   -1    0    0  503  502  0.00000000000E+00  0.00000000000E+00  0.45786374149E+03  0.45786374149E+03  0.00000000000E+00 0.  1.
         21   -1    0    0  501  503 -0.00000000000E+00 -0.00000000000E+00 -0.47385822447E+03  0.47385822447E+03  0.00000000000E+00 0.  1.
    9000007    1    1    2  501    0  0.32253799443E+02  0.32842612465E+02 -0.24221876381E+03  0.46988176631E+03  0.40000000000E+03 0.  1.
   -9000007    1    1    2    0  502 -0.32253799443E+02 -0.32842612465E+02  0.22622428083E+03  0.46184019965E+03  0.40000000000E+03 0.  1.
<mgrwt>
<rscale>  2 0.40263997E+03</rscale>
<asrwt>0</asrwt>
<pdfrwt beam="1">  1       21 0.70440576E-01 0.40263997E+03</pdfrwt>
<pdfrwt beam="2">  1       21 0.72901265E-01 0.40263997E+03</pdfrwt>
<totfact> 0.27381037E+03</totfact>
</mgrwt>
</event>
<event>
 4    1  0.4821294E-002  0.4277761E+03  0.7818608E-02  0.1034565E+00
         21   -1    0    0  501  502  0.00000000000E+00  0.00000000000E+00  0.19561337207E+04  0.19561337207E+04  0.00000000000E+00 0. -1.
         21   -1    0    0  502  503 -0.00000000000E+00 -0.00000000000E+00 -0.97191343515E+02  0.97191343515E+02  0.00000000000E+00 0. -1.
    9000007    1    1    2  501    0  0.83485031558E+02 -0.12658047738E+03  0.73069476113E+03  0.84670372722E+03  0.40000000000E+03 0.  1.
   -9000007    1    1    2    0  503 -0.83485031558E+02  0.12658047738E+03  0.11282476160E+04  0.12066213370E+04  0.40000000000E+03 0.  1.
<mgrwt>
<rscale>  2 0.42777607E+03</rscale>
<asrwt>0</asrwt>
<pdfrwt beam="1">  1       21 0.30094362E+00 0.42777607E+03</pdfrwt>
<pdfrwt beam="2">  1       21 0.14952516E-01 0.42777607E+03</pdfrwt>
<totfact> 0.10883778E+03</totfact>
</mgrwt>
</event>
<event>
 4    1  0.4821294E-002  0.4998278E+03  0.7818608E-02  0.1013824E+00
         21   -1    0    0  501  502  0.00000000000E+00  0.00000000000E+00  0.38262846966E+03  0.38262846966E+03  0.00000000000E+00 0. -1.
         21   -1    0    0  502  503 -0.00000000000E+00 -0.00000000000E+00 -0.11030814766E+04  0.11030814766E+04  0.00000000000E+00 0.  1.
    9000007    1    1    2  501    0  0.98735001294E+02 -0.28298266291E+03  0.11432338060E+03  0.51273543211E+03  0.40000000000E+03 0. -1.
   -9000007    1    1    2    0  503 -0.98735001294E+02  0.28298266291E+03 -0.83477638759E+03  0.97297451419E+03  0.40000000000E+03 0.  1.
<mgrwt>
<rscale>  2 0.49982776E+03</rscale>
<asrwt>0</asrwt>
<pdfrwt beam="1">  1       21 0.58865919E-01 0.49982776E+03</pdfrwt>
<pdfrwt beam="2">  1       21 0.16970484E+00 0.49982776E+03</pdfrwt>
<totfact> 0.46906275E+02</totfact>
</mgrwt>
</event>
<event>
 4    1  0.4821294E-002  0.4057038E+03  0.7818608E-02  0.1041822E+00
         21   -1    0    0  503  502  0.00000000000E+00  0.00000000000E+00  0.29791262364E+03  0.29791262364E+03  0.00000000000E+00 0.  1.
         21   -1    0    0  501  503 -0.00000000000E+00 -0.00000000000E+00 -0.13332226827E+04  0.13332226827E+04  0.00000000000E+00 0.  1.
    9000007    1    1    2  501    0  0.63854156321E+02 -0.22763680784E+02 -0.11417607333E+04  0.12116984404E+04  0.40000000000E+03 0.  1.
   -9000007    1    1    2    0  502 -0.63854156321E+02  0.22763680784E+02  0.10645067423E+03  0.41943686591E+03  0.40000000000E+03 0.  1.
<mgrwt>
<rscale>  2 0.40570376E+03</rscale>
<asrwt>0</asrwt>
<pdfrwt beam="1">  1       21 0.45832712E-01 0.40570376E+03</pdfrwt>
<pdfrwt beam="2">  1       21 0.20511118E+00 0.40570376E+03</pdfrwt>
<totfact> 0.47766553E+02</totfact>
</mgrwt>
</event>
<event>
 4    1  0.4821294E-002  0.4790684E+03  0.7818608E-02  0.1019392E+00
         21   -1    0    0  501  502  0.00000000000E+00  0.00000000000E+00  0.65304740216E+03  0.65304740216E+03  0.00000000000E+00 0. -1.
         21   -1    0    0  502  503 -0.00000000000E+00 -0.00000000000E+00 -0.36625265706E+03  0.36625265706E+03  0.00000000000E+00 0. -1.
    9000007    1    1    2  501    0 -0.10169642311E+03 -0.24323734274E+03  0.24589348327E+03  0.53848878585E+03  0.40000000000E+03 0. -1.
   -9000007    1    1    2    0  503  0.10169642311E+03  0.24323734274E+03  0.40901261829E+02  0.48081127336E+03  0.40000000000E+03 0. -1.
<mgrwt>
<rscale>  2 0.47906844E+03</rscale>
<asrwt>0</asrwt>
<pdfrwt beam="1">  1       21 0.10046883E+00 0.47906844E+03</pdfrwt>
<pdfrwt beam="2">  1       21 0.56346563E-01 0.47906844E+03</pdfrwt>
<totfact> 0.20545708E+03</totfact>
</mgrwt>
</event>
<event>
 4    1  0.4821294E-002  0.4327731E+03  0.7818608E-02  0.1032988E+00
         21   -1    0    0  501  502  0.00000000000E+00  0.00000000000E+00  0.52564367289E+03  0.52564367289E+03  0.00000000000E+00 0.  1.
         21   -1    0    0  502  503 -0.00000000000E+00 -0.00000000000E+00 -0.44309473181E+03  0.44309473181E+03  0.00000000000E+00 0. -1.
    9000007    1    1    2  501    0  0.16429588540E+03 -0.17304775034E+02 -0.17308739583E+03  0.46610282105E+03  0.40000000000E+03 0. -1.
   -9000007    1    1    2    0  503 -0.16429588540E+03  0.17304775034E+02  0.25563633691E+03  0.50263558365E+03  0.40000000000E+03 0.  1.
<mgrwt>
<rscale>  2 0.43277314E+03</rscale>
<asrwt>0</asrwt>
<pdfrwt beam="1">  1       21 0.80868257E-01 0.43277314E+03</pdfrwt>
<pdfrwt beam="2">  1       21 0.68168421E-01 0.43277314E+03</pdfrwt>
<totfact> 0.22973611E+03</totfact>
</mgrwt>
</event>
<event>
 4    1  0.4821294E-002  0.4533926E+03  0.7818608E-02  0.1026715E+00
         21   -1    0    0  503  502  0.00000000000E+00  0.00000000000E+00  0.62935862454E+03  0.62935862454E+03  0.00000000000E+00 0. -1.
         21   -1    0    0  501  503 -0.00000000000E+00 -0.00000000000E+00 -0.33207720978E+03  0.33207720978E+03  0.00000000000E+00 0. -1.
    9000007    1    1    2  501    0 -0.62459307145E+02  0.20411686841E+03  0.21023196357E+03  0.49976228302E+03  0.40000000000E+03 0. -1.
   -9000007    1    1    2    0  502  0.62459307145E+02 -0.20411686841E+03  0.87049451194E+02  0.46167355130E+03  0.40000000000E+03 0. -1.
<mgrwt>
<rscale>  2 0.45339261E+03</rscale>
<asrwt>0</asrwt>
<pdfrwt beam="1">  1       21 0.96824403E-01 0.45339261E+03</pdfrwt>
<pdfrwt beam="2">  1       21 0.51088802E-01 0.45339261E+03</pdfrwt>
<totfact> 0.27996372E+03</totfact>
</mgrwt>
</event>
<event>
 4    1  0.4821294E-002  0.4752375E+03  0.7818608E-02  0.1020452E+00
         21   -1    0    0  501  502  0.00000000000E+00  0.00000000000E+00  0.22140124838E+03  0.22140124838E+03  0.00000000000E+00 0. -1.
         21   -1    0    0  502  503 -0.00000000000E+00 -0.00000000000E+00 -0.14195533187E+04  0.14195533187E+04  0.00000000000E+00 0.  1.
    9000007    1    1    2  501    0  0.18856042094E+03 -0.17405640816E+03 -0.16383928403E+03  0.50268675789E+03  0.40000000000E+03 0. -1.
   -9000007    1    1    2    0  503 -0.18856042094E+03  0.17405640816E+03 -0.10343127863E+04  0.11382678092E+04  0.40000000000E+03 0.  1.
<mgrwt>
<rscale>  2 0.47523748E+03</rscale>
<asrwt>0</asrwt>
<pdfrwt beam="1">  1       21 0.34061730E-01 0.47523748E+03</pdfrwt>
<pdfrwt beam="2">  1       21 0.21839282E+00 0.47523748E+03</pdfrwt>
<totfact> 0.69610955E+02</totfact>
</mgrwt>
</event>
<event>
 4    1  0.4821294E-002  0.4269283E+03  0.7818608E-02  0.1034835E+00
         21   -1    0    0  501  502  0.00000000000E+00  0.00000000000E+00  0.75331844803E+03  0.75331844803E+03  0.00000000000E+00 0.  1.
         21   -1    0    0  502  503 -0.00000000000E+00 -0.00000000000E+00 -0.45403613802E+03  0.45403613802E+03  0.00000000000E+00 0.  1.
    9000007    1    1    2  501    0  0.13524415779E+02  0.14860982649E+03  0.56222528704E+03  0.70594976006E+03  0.40000000000E+03 0.  1.
   -9000007    1    1    2    0  503 -0.13524415779E+02 -0.14860982649E+03 -0.26294297703E+03  0.50140482599E+03  0.40000000000E+03 0.  1.
<mgrwt>
<rscale>  2 0.42692832E+03</rscale>
<asrwt>0</asrwt>
<pdfrwt beam="1">  1       21 0.11589515E+00 0.42692832E+03</pdfrwt>
<pdfrwt beam="2">  1       21 0.69851713E-01 0.42692832E+03</pdfrwt>
<totfact> 0.91654258E+02</totfact>
</mgrwt>
</event>
<event>
 4    1  0.4821294E-002  0.5633503E+03  0.7818608E-02  0.9984502E-01
         21   -1    0    0  503  502  0.00000000000E+00  0.00000000000E+00  0.11358462297E+04  0.11358462297E+04  0.00000000000E+00 0.  1.
         21   -1    0    0  501  503 -0.00000000000E+00 -0.00000000000E+00 -0.27978665149E+03  0.27978665149E+03  0.00000000000E+00 0.  1.
    9000007    1    1    2  501    0 -0.37636440634E+03 -0.12535294815E+03  0.45409906486E+03  0.72358101736E+03  0.40000000000E+03 0.  1.
   -9000007    1    1    2    0  502  0.37636440634E+03  0.12535294815E+03  0.40196051340E+03  0.69205186388E+03  0.40000000000E+03 0.  1.
<mgrwt>
<rscale>  2 0.56335027E+03</rscale>
<asrwt>0</asrwt>
<pdfrwt beam="1">  1       21 0.17474557E+00 0.56335027E+03</pdfrwt>
<pdfrwt beam="2">  1       21 0.43044101E-01 0.56335027E+03</pdfrwt>
<totfact> 0.82156345E+02</totfact>
</mgrwt>
</event>
<event>
 4    1  0.4821294E-002  0.5360424E+03  0.7818608E-02  0.1004777E+00
         21   -1    0    0  503  502  0.00000000000E+00  0.00000000000E+00  0.17508734731E+04  0.17508734731E+04  0.00000000000E+00 0.  1.
         21   -1    0    0  501  503 -0.00000000000E+00 -0.00000000000E+00 -0.25491843903E+03  0.25491843903E+03  0.00000000000E+00 0.  1.
    9000007    1    1    2  501    0  0.15422354872E+03 -0.32180207659E+03  0.14941341722E+03  0.55647627867E+03  0.40000000000E+03 0.  1.
   -9000007    1    1    2    0  502 -0.15422354872E+03  0.32180207659E+03  0.13465416169E+04  0.14493156335E+04  0.40000000000E+03 0.  1.
<mgrwt>
<rscale>  2 0.53604242E+03</rscale>
<asrwt>0</asrwt>
<pdfrwt beam="1">  1       21 0.26936514E+00 0.53604242E+03</pdfrwt>
<pdfrwt beam="2">  1       21 0.39218222E-01 0.53604242E+03</pdfrwt>
<totfact> 0.24424268E+02</totfact>
</mgrwt>
</event>
<event>
 4    1  0.4821294E-002  0.4800009E+03  0.7818608E-02  0.1019135E+00
         21   -1    0    0  501  502  0.00000000000E+00  0.00000000000E+00  0.67121895070E+03  0.67121895070E+03  0.00000000000E+00 0. -1.
         21   -1    0    0  502  503 -0.00000000000E+00 -0.00000000000E+00 -0.39955045580E+03  0.39955045580E+03  0.00000000000E+00 0. -1.
    9000007    1    1    2  501    0 -0.87508994814E+02  0.25048559916E+03  0.33679332391E+03  0.58637070407E+03  0.40000000000E+03 0. -1.
   -9000007    1    1    2    0  503  0.87508994814E+02 -0.25048559916E+03 -0.65124829007E+02  0.48439870243E+03  0.40000000000E+03 0. -1.
<mgrwt>
<rscale>  2 0.48000090E+03</rscale>
<asrwt>0</asrwt>
<pdfrwt beam="1">  1       21 0.10326445E+00 0.48000090E+03</pdfrwt>
<pdfrwt beam="2">  1       21 0.61469301E-01 0.48000090E+03</pdfrwt>
<totfact> 0.15874292E+03</totfact>
</mgrwt>
</event>
<event>
 4    1  0.4821294E-002  0.4624894E+03  0.7818608E-02  0.1024062E+00
         21   -1    0    0  503  502  0.00000000000E+00  0.00000000000E+00  0.83994973871E+03  0.83994973871E+03  0.00000000000E+00 0.  1.
         21   -1    0    0  501  503 -0.00000000000E+00 -0.00000000000E+00 -0.38460874084E+03  0.38460874084E+03  0.00000000000E+00 0.  1.
    9000007    1    1    2  501    0 -0.20130222080E+03 -0.11564529322E+03 -0.12823631857E+03  0.47993850788E+03  0.40000000000E+03 0.  1.
   -9000007    1    1    2    0  502  0.20130222080E+03  0.11564529322E+03  0.58357731645E+03  0.74461997167E+03  0.40000000000E+03 0.  1.
<mgrwt>
<rscale>  2 0.46248937E+03</rscale>
<asrwt>0</asrwt>
<pdfrwt beam="1">  1       21 0.12922304E+00 0.46248937E+03</pdfrwt>
<pdfrwt beam="2">  1       21 0.59170576E-01 0.46248937E+03</pdfrwt>
<totfact> 0.98781979E+02</totfact>
</mgrwt>
</event>
<event>
 4    1  0.4821294E-002  0.4685140E+03  0.7818608E-02  0.1022340E+00
         21   -1    0    0  503  502  0.00000000000E+00  0.00000000000E+00  0.71733101230E+03  0.71733101230E+03  0.00000000000E+00 0. -1.
         21   -1    0    0  501  503 -0.00000000000E+00 -0.00000000000E+00 -0.69388803058E+03  0.69388803058E+03  0.00000000000E+00 0. -1.
    9000007    1    1    2  501    0 -0.20224460797E+03  0.13639101551E+03 -0.51583781012E+03  0.69684577699E+03  0.40000000000E+03 0. -1.
   -9000007    1    1    2    0  502  0.20224460797E+03 -0.13639101551E+03  0.53928079183E+03  0.71437326588E+03  0.40000000000E+03 0. -1.
<mgrwt>
<rscale>  2 0.46851402E+03</rscale>
<asrwt>0</asrwt>
<pdfrwt beam="1">  1       21 0.11035862E+00 0.46851402E+03</pdfrwt>
<pdfrwt beam="2">  1       21 0.10675201E+00 0.46851402E+03</pdfrwt>
<totfact> 0.37487972E+02</totfact>
</mgrwt>
</event>
<event>
 4    1  0.4821294E-002  0.6032678E+03  0.7818608E-02  0.9898649E-01
         21   -1    0    0  503  502  0.00000000000E+00  0.00000000000E+00  0.99072463241E+03  0.99072463241E+03  0.00000000000E+00 0. -1.
         21   -1    0    0  501  503 -0.00000000000E+00 -0.00000000000E+00 -0.44985605232E+03  0.44985605232E+03  0.00000000000E+00 0.  1.
    9000007    1    1    2  501    0  0.42991814135E+03 -0.13821158561E+03 -0.38056344358E+02  0.60446698504E+03  0.40000000000E+03 0.  1.
   -9000007    1    1    2    0  502 -0.42991814135E+03  0.13821158561E+03  0.57892492445E+03  0.83611369969E+03  0.40000000000E+03 0. -1.
<mgrwt>
<rscale>  2 0.60326781E+03</rscale>
<asrwt>0</asrwt>
<pdfrwt beam="1">  1       21 0.15241917E+00 0.60326781E+03</pdfrwt>
<pdfrwt beam="2">  1       21 0.69208624E-01 0.60326781E+03</pdfrwt>
<totfact> 0.42534103E+02</totfact>
</mgrwt>
</event>
<event>
 4    1  0.4821294E-002  0.4471880E+03  0.7818608E-02  0.1028564E+00
         21   -1    0    0  503  502  0.00000000000E+00  0.00000000000E+00  0.20351522164E+04  0.20351522164E+04  0.00000000000E+00 0. -1.
         21   -1    0    0  501  503 -0.00000000000E+00 -0.00000000000E+00 -0.18928567970E+03  0.18928567970E+03  0.00000000000E+00 0. -1.
    9000007    1    1    2  501    0  0.87358197855E+02  0.17984884826E+03  0.15165720784E+03  0.47220437487E+03  0.40000000000E+03 0. -1.
   -9000007    1    1    2    0  502 -0.87358197855E+02 -0.17984884826E+03  0.16942093289E+04  0.17522335213E+04  0.40000000000E+03 0. -1.
<mgrwt>
<rscale>  2 0.44718795E+03</rscale>
<asrwt>0</asrwt>
<pdfrwt beam="1">  1       21 0.31310033E+00 0.44718795E+03</pdfrwt>
<pdfrwt beam="2">  1       21 0.29120875E-01 0.44718795E+03</pdfrwt>
<totfact> 0.25429933E+02</totfact>
</mgrwt>
</event>
<event>
 4    1  0.4821294E-002  0.5100087E+03  0.7818608E-02  0.1011199E+00
         21   -1    0    0  503  502  0.00000000000E+00  0.00000000000E+00  0.10118960205E+04  0.10118960205E+04  0.00000000000E+00 0.  1.
         21   -1    0    0  501  503 -0.00000000000E+00 -0.00000000000E+00 -0.29079050840E+03  0.29079050840E+03  0.00000000000E+00 0.  1.
    9000007    1    1    2  501    0  0.30161432022E+03  0.95591057673E+02  0.13868744036E+03  0.52852914261E+03  0.40000000000E+03 0.  1.
   -9000007    1    1    2    0  502 -0.30161432022E+03 -0.95591057673E+02  0.58241807172E+03  0.77415738628E+03  0.40000000000E+03 0.  1.
<mgrwt>
<rscale>  2 0.51000867E+03</rscale>
<asrwt>0</asrwt>
<pdfrwt beam="1">  1       21 0.15567631E+00 0.51000867E+03</pdfrwt>
<pdfrwt beam="2">  1       21 0.44737002E-01 0.51000867E+03</pdfrwt>
<totfact> 0.10721071E+03</totfact>
</mgrwt>
</event>
<event>
 4    1  0.4821294E-002  0.4347278E+03  0.7818608E-02  0.1032377E+00
         21   -1    0    0  503  502  0.00000000000E+00  0.00000000000E+00  0.37456739537E+03  0.37456739537E+03  0.00000000000E+00 0.  1.
         21   -1    0    0  501  503 -0.00000000000E+00 -0.00000000000E+00 -0.51388417379E+03  0.51388417379E+03  0.00000000000E+00 0.  1.
    9000007    1    1    2  501    0  0.42256908752E+02  0.16493211905E+03 -0.12952604559E+03  0.45361354336E+03  0.40000000000E+03 0.  1.
   -9000007    1    1    2    0  502 -0.42256908752E+02 -0.16493211905E+03 -0.97907328346E+01  0.43483802580E+03  0.40000000000E+03 0.  1.
<mgrwt>
<rscale>  2 0.43472779E+03</rscale>
<asrwt>0</asrwt>
<pdfrwt beam="1">  1       21 0.57625753E-01 0.43472779E+03</pdfrwt>
<pdfrwt beam="2">  1       21 0.79059103E-01 0.43472779E+03</pdfrwt>
<totfact> 0.35043427E+03</totfact>
</mgrwt>
</event>
<event>
 4    1  0.4821294E-002  0.5337713E+03  0.7818608E-02  0.1005322E+00
         21   -1    0    0  503  502  0.00000000000E+00  0.00000000000E+00  0.37204096493E+03  0.37204096493E+03  0.00000000000E+00 0. -1.
         21   -1    0    0  501  503 -0.00000000000E+00 -0.00000000000E+00 -0.82654036821E+03  0.82654036821E+03  0.00000000000E+00 0. -1.
    9000007    1    1    2  501    0  0.18520315808E+03 -0.30101763632E+03 -0.38969858933E+03  0.66089092720E+03  0.40000000000E+03 0. -1.
   -9000007    1    1    2    0  502 -0.18520315808E+03  0.30101763632E+03 -0.64800813957E+02  0.53769040593E+03  0.40000000000E+03 0. -1.
<mgrwt>
<rscale>  2 0.53377132E+03</rscale>
<asrwt>0</asrwt>
<pdfrwt beam="1">  1       21 0.57237072E-01 0.53377132E+03</pdfrwt>
<pdfrwt beam="2">  1       21 0.12716006E+00 0.53377132E+03</pdfrwt>
<totfact> 0.10782411E+03</totfact>
</mgrwt>
</event>
<event>
 4    1  0.4821294E-002  0.4104227E+03  0.7818608E-02  0.1040229E+00
         21   -1    0    0  501  502  0.00000000000E+00  0.00000000000E+00  0.69733361919E+03  0.69733361919E+03  0.00000000000E+00 0.  1.
         21   -1    0    0  502  503 -0.00000000000E+00 -0.00000000000E+00 -0.43382567395E+03  0.43382567395E+03  0.00000000000E+00 0. -1.
    9000007    1    1    2  501    0  0.22740517529E+02 -0.89048696326E+02  0.50827463869E+03  0.65329159630E+03  0.40000000000E+03 0.  1.
   -9000007    1    1    2    0  503 -0.22740517529E+02  0.89048696326E+02 -0.24476669346E+03  0.47786769684E+03  0.40000000000E+03 0. -1.
<mgrwt>
<rscale>  2 0.41042271E+03</rscale>
<asrwt>0</asrwt>
<pdfrwt beam="1">  1       21 0.10728210E+00 0.41042271E+03</pdfrwt>
<pdfrwt beam="2">  1       21 0.66742411E-01 0.41042271E+03</pdfrwt>
<totfact> 0.12383039E+03</totfact>
</mgrwt>
</event>
<event>
 4    1  0.4821294E-002  0.4805818E+03  0.7818608E-02  0.1018975E+00
         21   -1    0    0  501  502  0.00000000000E+00  0.00000000000E+00  0.10595090670E+04  0.10595090670E+04  0.00000000000E+00 0. -1.
         21   -1    0    0  502  503 -0.00000000000E+00 -0.00000000000E+00 -0.28394517482E+03  0.28394517482E+03  0.00000000000E+00 0. -1.
    9000007    1    1    2  501    0  0.26547532405E+03  0.21948230323E+02  0.71153284158E+03  0.85862556282E+03  0.40000000000E+03 0. -1.
   -9000007    1    1    2    0  503 -0.26547532405E+03 -0.21948230323E+02  0.64031050559E+02  0.48482867894E+03  0.40000000000E+03 0. -1.
<mgrwt>
<rscale>  2 0.48058181E+03</rscale>
<asrwt>0</asrwt>
<pdfrwt beam="1">  1       21 0.16300139E+00 0.48058181E+03</pdfrwt>
<pdfrwt beam="2">  1       21 0.43683874E-01 0.48058181E+03</pdfrwt>
<totfact> 0.10026008E+03</totfact>
</mgrwt>
</event>
<event>
 4    1  0.4821294E-002  0.4242520E+03  0.7818608E-02  0.1035691E+00
         21   -1    0    0  503  502  0.00000000000E+00  0.00000000000E+00  0.23170587071E+03  0.23170587071E+03  0.00000000000E+00 0.  1.
         21   -1    0    0  501  503 -0.00000000000E+00 -0.00000000000E+00 -0.81603049450E+03  0.81603049450E+03  0.00000000000E+00 0.  1.
    9000007    1    1    2  501    0 -0.10857486781E+03 -0.90560708524E+02 -0.17730310198E+03  0.45981097619E+03  0.40000000000E+03 0.  1.
   -9000007    1    1    2    0  502  0.10857486781E+03  0.90560708524E+02 -0.40702152181E+03  0.58792538903E+03  0.40000000000E+03 0.  1.
<mgrwt>
<rscale>  2 0.42425198E+03</rscale>
<asrwt>0</asrwt>
<pdfrwt beam="1">  1       21 0.35647056E-01 0.42425198E+03</pdfrwt>
<pdfrwt beam="2">  1       21 0.12554316E+00 0.42425198E+03</pdfrwt>
<totfact> 0.31354227E+03</totfact>
</mgrwt>
</event>
<event>
 4    1  0.4821294E-002  0.5223291E+03  0.7818608E-02  0.1008110E+00
         21   -1    0    0  503  502  0.00000000000E+00  0.00000000000E+00  0.47025443678E+03  0.47025443678E+03  0.00000000000E+00 0.  1.
         21   -1    0    0  501  503 -0.00000000000E+00 -0.00000000000E+00 -0.58022444895E+03  0.58022444895E+03  0.00000000000E+00 0.  1.
    9000007    1    1    2  501    0 -0.76028262648E+02 -0.32718103296E+03 -0.60052333010E+02  0.52576991902E+03  0.40000000000E+03 0.  1.
   -9000007    1    1    2    0  502  0.76028262648E+02  0.32718103296E+03 -0.49917679162E+02  0.52470896671E+03  0.40000000000E+03 0.  1.
<mgrwt>
<rscale>  2 0.52232913E+03</rscale>
<asrwt>0</asrwt>
<pdfrwt beam="1">  1       21 0.72346836E-01 0.52232913E+03</pdfrwt>
<pdfrwt beam="2">  1       21 0.89265300E-01 0.52232913E+03</pdfrwt>
<totfact> 0.15437471E+03</totfact>
</mgrwt>
</event>
<event>
 4    1  0.4821294E-002  0.4010556E+03  0.7818608E-02  0.1043415E+00
         21   -1    0    0  501  502  0.00000000000E+00  0.00000000000E+00  0.80884135354E+03  0.80884135354E+03  0.00000000000E+00 0. -1.
         21   -1    0    0  502  503 -0.00000000000E+00 -0.00000000000E+00 -0.19895547155E+03  0.19895547155E+03  0.00000000000E+00 0. -1.
    9000007    1    1    2  501    0 -0.28937240434E+02  0.28676213260E+01  0.29386152939E+03  0.49719230242E+03  0.40000000000E+03 0. -1.
   -9000007    1    1    2    0  503  0.28937240434E+02 -0.28676213260E+01  0.31602435260E+03  0.51060452267E+03  0.40000000000E+03 0. -1.
<mgrwt>
<rscale>  2 0.40105559E+03</rscale>
<asrwt>0</asrwt>
<pdfrwt beam="1">  1       21 0.12443713E+00 0.40105559E+03</pdfrwt>
<pdfrwt beam="2">  1       21 0.30608534E-01 0.40105559E+03</pdfrwt>
<totfact> 0.43938063E+03</totfact>
</mgrwt>
</event>
<event>
 4    1  0.4821294E-002  0.4157024E+03  0.7818608E-02  0.1038474E+00
         21   -1    0    0  501  502  0.00000000000E+00  0.00000000000E+00  0.10468170892E+04  0.10468170892E+04  0.00000000000E+00 0. -1.
         21   -1    0    0  502  503 -0.00000000000E+00 -0.00000000000E+00 -0.60767943622E+03  0.60767943622E+03  0.00000000000E+00 0.  1.
    9000007    1    1    2  501    0 -0.10225067876E+03  0.48510389519E+02  0.92556780309E+03  0.10146350168E+04  0.40000000000E+03 0. -1.
   -9000007    1    1    2    0  503  0.10225067876E+03 -0.48510389519E+02 -0.48643015015E+03  0.63986150859E+03  0.40000000000E+03 0.  1.
<mgrwt>
<rscale>  2 0.41570237E+03</rscale>
<asrwt>0</asrwt>
<pdfrwt beam="1">  1       21 0.16104878E+00 0.41570237E+03</pdfrwt>
<pdfrwt beam="2">  1       21 0.93489145E-01 0.41570237E+03</pdfrwt>
<totfact> 0.19728440E+02</totfact>
</mgrwt>
</event>
<event>
 4    1  0.4821294E-002  0.4306239E+03  0.7818608E-02  0.1033663E+00
         21   -1    0    0  501  502  0.00000000000E+00  0.00000000000E+00  0.12661896540E+03  0.12661896540E+03  0.00000000000E+00 0. -1.
         21   -1    0    0  502  503 -0.00000000000E+00 -0.00000000000E+00 -0.14783334649E+04  0.14783334649E+04  0.00000000000E+00 0. -1.
    9000007    1    1    2  501    0 -0.19955743404E+02 -0.15823625776E+03 -0.75340707483E+03  0.86778981636E+03  0.40000000000E+03 0.  1.
   -9000007    1    1    2    0  503  0.19955743404E+02  0.15823625776E+03 -0.59830742462E+03  0.73716261390E+03  0.40000000000E+03 0.  1.
<mgrwt>
<rscale>  2 0.43062390E+03</rscale>
<asrwt>0</asrwt>
<pdfrwt beam="1">  1       21 0.19479840E-01 0.43062390E+03</pdfrwt>
<pdfrwt beam="2">  1       21 0.22743593E+00 0.43062390E+03</pdfrwt>
<totfact> 0.18559815E+03</totfact>
</mgrwt>
</event>
<event>
 4    1  0.4821294E-002  0.4643748E+03  0.7818608E-02  0.1023520E+00
         21   -1    0    0  501  502  0.00000000000E+00  0.00000000000E+00  0.18405629198E+03  0.18405629198E+03  0.00000000000E+00 0.  1.
         21   -1    0    0  502  503 -0.00000000000E+00 -0.00000000000E+00 -0.12335708900E+04  0.12335708900E+04  0.00000000000E+00 0.  1.
    9000007    1    1    2  501    0 -0.14510543568E+03  0.18597948169E+03 -0.68360291582E+03  0.82641206525E+03  0.40000000000E+03 0.  1.
   -9000007    1    1    2    0  503  0.14510543568E+03 -0.18597948169E+03 -0.36591168221E+03  0.59121511673E+03  0.40000000000E+03 0.  1.
<mgrwt>
<rscale>  2 0.46437480E+03</rscale>
<asrwt>0</asrwt>
<pdfrwt beam="1">  1       21 0.28316354E-01 0.46437480E+03</pdfrwt>
<pdfrwt beam="2">  1       21 0.18978013E+00 0.46437480E+03</pdfrwt>
<totfact> 0.15652783E+03</totfact>
</mgrwt>
</event>
<event>
 4    1  0.4821294E-002  0.7433940E+03  0.7818608E-02  0.9645772E-01
         21   -1    0    0  501  502  0.00000000000E+00  0.00000000000E+00  0.24223364765E+04  0.24223364765E+04  0.00000000000E+00 0.  1.
         21   -1    0    0  502  503 -0.00000000000E+00 -0.00000000000E+00 -0.23379236038E+03  0.23379236038E+03  0.00000000000E+00 0. -1.
    9000007    1    1    2  501    0  0.20957934367E+03  0.59051764258E+03  0.13007508195E+04  0.14981946743E+04  0.40000000000E+03 0.  1.
   -9000007    1    1    2    0  503 -0.20957934367E+03 -0.59051764258E+03  0.88779329662E+03  0.11579341626E+04  0.40000000000E+03 0. -1.
<mgrwt>
<rscale>  2 0.74339397E+03</rscale>
<asrwt>0</asrwt>
<pdfrwt beam="1">  1       21 0.37266713E+00 0.74339397E+03</pdfrwt>
<pdfrwt beam="2">  1       21 0.35968057E-01 0.74339397E+03</pdfrwt>
<totfact> 0.61492897E+01</totfact>
</mgrwt>
</event>
<event>
 4    1  0.4821294E-002  0.4684917E+03  0.7818608E-02  0.1022347E+00
         21   -1    0    0  503  502  0.00000000000E+00  0.00000000000E+00  0.61635772079E+03  0.61635772079E+03  0.00000000000E+00 0. -1.
         21   -1    0    0  501  503 -0.00000000000E+00 -0.00000000000E+00 -0.35896799977E+03  0.35896799977E+03  0.00000000000E+00 0.  1.
    9000007    1    1    2  501    0 -0.21313556985E+03 -0.11856517679E+03  0.85099099104E+02  0.47615788238E+03  0.40000000000E+03 0. -1.
   -9000007    1    1    2    0  502  0.21313556985E+03  0.11856517679E+03  0.17229062191E+03  0.49916783819E+03  0.40000000000E+03 0. -1.
<mgrwt>
<rscale>  2 0.46849170E+03</rscale>
<asrwt>0</asrwt>
<pdfrwt beam="1">  1       21 0.94824265E-01 0.46849170E+03</pdfrwt>
<pdfrwt beam="2">  1       21 0.55225846E-01 0.46849170E+03</pdfrwt>
<totfact> 0.24769315E+03</totfact>
</mgrwt>
</event>
<event>
 4    1  0.4821294E-002  0.4960654E+03  0.7818608E-02  0.1014811E+00
         21   -1    0    0  503  502  0.00000000000E+00  0.00000000000E+00  0.17889367499E+04  0.17889367499E+04  0.00000000000E+00 0. -1.
         21   -1    0    0  501  503 -0.00000000000E+00 -0.00000000000E+00 -0.50043062647E+03  0.50043062647E+03  0.00000000000E+00 0.  1.
    9000007    1    1    2  501    0 -0.18541398221E+03  0.22738189955E+03 -0.33049240173E+03  0.59607558299E+03  0.40000000000E+03 0.  1.
   -9000007    1    1    2    0  502  0.18541398221E+03 -0.22738189955E+03  0.16189985252E+04  0.16932917934E+04  0.40000000000E+03 0. -1.
<mgrwt>
<rscale>  2 0.49606539E+03</rscale>
<asrwt>0</asrwt>
<pdfrwt beam="1">  1       21 0.27522103E+00 0.49606539E+03</pdfrwt>
<pdfrwt beam="2">  1       21 0.76989328E-01 0.49606539E+03</pdfrwt>
<totfact> 0.53132477E+01</totfact>
</mgrwt>
</event>
<event>
 4    1  0.4821294E-002  0.4348070E+03  0.7818608E-02  0.1032352E+00
         21   -1    0    0  501  502  0.00000000000E+00  0.00000000000E+00  0.67213653290E+03  0.67213653290E+03  0.00000000000E+00 0. -1.
         21   -1    0    0  502  503 -0.00000000000E+00 -0.00000000000E+00 -0.28452605829E+03  0.28452605829E+03  0.00000000000E+00 0. -1.
    9000007    1    1    2  501    0  0.16938511311E+03  0.19126658693E+02  0.24491302107E+03  0.49903860923E+03  0.40000000000E+03 0.  1.
   -9000007    1    1    2    0  503 -0.16938511311E+03 -0.19126658693E+02  0.14269745354E+03  0.45762398196E+03  0.40000000000E+03 0.  1.
<mgrwt>
<rscale>  2 0.43480702E+03</rscale>
<asrwt>0</asrwt>
<pdfrwt beam="1">  1       21 0.10340562E+00 0.43480702E+03</pdfrwt>
<pdfrwt beam="2">  1       21 0.43773240E-01 0.43480702E+03</pdfrwt>
<totfact> 0.33280613E+03</totfact>
</mgrwt>
</event>
<event>
 4    1  0.4821294E-002  0.4102398E+03  0.7818608E-02  0.1040291E+00
         21   -1    0    0  503  502  0.00000000000E+00  0.00000000000E+00  0.42936129935E+03  0.42936129935E+03  0.00000000000E+00 0. -1.
         21   -1    0    0  501  503 -0.00000000000E+00 -0.00000000000E+00 -0.45219816747E+03  0.45219816747E+03  0.00000000000E+00 0. -1.
    9000007    1    1    2  501    0  0.11866070709E+02  0.90309892131E+02 -0.17228197221E+03  0.44494691616E+03  0.40000000000E+03 0. -1.
   -9000007    1    1    2    0  502 -0.11866070709E+02 -0.90309892131E+02  0.14944510410E+03  0.43661255066E+03  0.40000000000E+03 0. -1.
<mgrwt>
<rscale>  2 0.41023978E+03</rscale>
<asrwt>0</asrwt>
<pdfrwt beam="1">  1       21 0.66055585E-01 0.41023978E+03</pdfrwt>
<pdfrwt beam="2">  1       21 0.69568949E-01 0.41023978E+03</pdfrwt>
<totfact> 0.35023112E+03</totfact>
</mgrwt>
</event>
<event>
 4    1  0.4821294E-002  0.5577798E+03  0.7818608E-02  0.9997091E-01
         21   -1    0    0  501  502  0.00000000000E+00  0.00000000000E+00  0.14036802683E+04  0.14036802683E+04  0.00000000000E+00 0. -1.
         21   -1    0    0  502  503 -0.00000000000E+00 -0.00000000000E+00 -0.34483471413E+03  0.34483471413E+03  0.00000000000E+00 0. -1.
    9000007    1    1    2  501    0  0.31509753300E+03 -0.22766613749E+03  0.10519652343E+04  0.11906927309E+04  0.40000000000E+03 0. -1.
   -9000007    1    1    2    0  503 -0.31509753300E+03  0.22766613749E+03  0.68803199346E+01  0.55782225150E+03  0.40000000000E+03 0. -1.
<mgrwt>
<rscale>  2 0.55777982E+03</rscale>
<asrwt>0</asrwt>
<pdfrwt beam="1">  1       21 0.21595081E+00 0.55777982E+03</pdfrwt>
<pdfrwt beam="2">  1       21 0.53051495E-01 0.55777982E+03</pdfrwt>
<totfact> 0.27638664E+02</totfact>
</mgrwt>
</event>
<event>
 4    1  0.4821294E-002  0.4326861E+03  0.7818608E-02  0.1033015E+00
         21   -1    0    0  503  502  0.00000000000E+00  0.00000000000E+00  0.26549125804E+03  0.26549125804E+03  0.00000000000E+00 0.  1.
         21   -1    0    0  501  503 -0.00000000000E+00 -0.00000000000E+00 -0.71789419222E+03  0.71789419222E+03  0.00000000000E+00 0. -1.
    9000007    1    1    2  501    0 -0.16494177590E+03 -0.33930475298E+01 -0.16074912368E+03  0.46158161031E+03  0.40000000000E+03 0. -1.
   -9000007    1    1    2    0  502  0.16494177590E+03  0.33930475298E+01 -0.29165381050E+03  0.52180383995E+03  0.40000000000E+03 0. -1.
<mgrwt>
<rscale>  2 0.43268615E+03</rscale>
<asrwt>0</asrwt>
<pdfrwt beam="1">  1       21 0.40844810E-01 0.43268615E+03</pdfrwt>
<pdfrwt beam="2">  1       21 0.11044526E+00 0.43268615E+03</pdfrwt>
<totfact> 0.32687543E+03</totfact>
</mgrwt>
</event>
<event>
 4    1  0.4821294E-002  0.4680913E+03  0.7818608E-02  0.1022460E+00
         21   -1    0    0  503  502  0.00000000000E+00  0.00000000000E+00  0.43140092525E+03  0.43140092525E+03  0.00000000000E+00 0.  1.
         21   -1    0    0  501  503 -0.00000000000E+00 -0.00000000000E+00 -0.18507653701E+04  0.18507653701E+04  0.00000000000E+00 0.  1.
    9000007    1    1    2  501    0  0.22248705188E+03 -0.98025409284E+02 -0.16816625928E+04  0.17455940379E+04  0.40000000000E+03 0.  1.
   -9000007    1    1    2    0  502 -0.22248705188E+03  0.98025409284E+02  0.26229814791E+03  0.53657225750E+03  0.40000000000E+03 0.  1.
<mgrwt>
<rscale>  2 0.46809130E+03</rscale>
<asrwt>0</asrwt>
<pdfrwt beam="1">  1       21 0.66369373E-01 0.46809130E+03</pdfrwt>
<pdfrwt beam="2">  1       21 0.28473313E+00 0.46809130E+03</pdfrwt>
<totfact> 0.66273499E+01</totfact>
</mgrwt>
</event>
<event>
 4    1  0.4821294E-002  0.4043314E+03  0.7818608E-02  0.1042290E+00
         21   -1    0    0  501  502  0.00000000000E+00  0.00000000000E+00  0.18545529115E+03  0.18545529115E+03  0.00000000000E+00 0. -1.
         21   -1    0    0  502  503 -0.00000000000E+00 -0.00000000000E+00 -0.20513691343E+04  0.20513691343E+04  0.00000000000E+00 0. -1.
    9000007    1    1    2  501    0  0.47291537503E+02 -0.35318304704E+02 -0.88371469656E+02  0.41387605490E+03  0.40000000000E+03 0. -1.
   -9000007    1    1    2    0  503 -0.47291537503E+02  0.35318304704E+02 -0.17775423735E+04  0.18229483706E+04  0.40000000000E+03 0. -1.
<mgrwt>
<rscale>  2 0.40433139E+03</rscale>
<asrwt>0</asrwt>
<pdfrwt beam="1">  1       21 0.28531582E-01 0.40433139E+03</pdfrwt>
<pdfrwt beam="2">  1       21 0.31559527E+00 0.40433139E+03</pdfrwt>
<totfact> 0.26296327E+02</totfact>
</mgrwt>
</event>
<event>
 4    1  0.4821294E-002  0.4232929E+03  0.7818608E-02  0.1036000E+00
         21   -1    0    0  501  502  0.00000000000E+00  0.00000000000E+00  0.42129765191E+03  0.42129765191E+03  0.00000000000E+00 0. -1.
         21   -1    0    0  502  503 -0.00000000000E+00 -0.00000000000E+00 -0.67585046475E+03  0.67585046475E+03  0.00000000000E+00 0. -1.
    9000007    1    1    2  501    0 -0.50904021252E+02  0.12878521945E+03  0.20673377251E+03  0.47107929781E+03  0.40000000000E+03 0. -1.
   -9000007    1    1    2    0  503  0.50904021252E+02 -0.12878521945E+03 -0.46128658535E+03  0.62606881886E+03  0.40000000000E+03 0. -1.
<mgrwt>
<rscale>  2 0.42329287E+03</rscale>
<asrwt>0</asrwt>
<pdfrwt beam="1">  1       21 0.64815024E-01 0.42329287E+03</pdfrwt>
<pdfrwt beam="2">  1       21 0.10397699E+00 0.42329287E+03</pdfrwt>
<totfact> 0.14194813E+03</totfact>
</mgrwt>
</event>
<event>
 4    1  0.4821294E-002  0.4259817E+03  0.7818608E-02  0.1035137E+00
         21   -1    0    0  501  502  0.00000000000E+00  0.00000000000E+00  0.52277031405E+03  0.52277031405E+03  0.00000000000E+00 0.  1.
         21   -1    0    0  502  503 -0.00000000000E+00 -0.00000000000E+00 -0.51486217490E+03  0.51486217490E+03  0.00000000000E+00 0.  1.
    9000007    1    1    2  501    0  0.96173289113E+02  0.11050385180E+03  0.30009483349E+03  0.52107323083E+03  0.40000000000E+03 0.  1.
   -9000007    1    1    2    0  503 -0.96173289113E+02 -0.11050385180E+03 -0.29218669434E+03  0.51655925812E+03  0.40000000000E+03 0.  1.
<mgrwt>
<rscale>  2 0.42598169E+03</rscale>
<asrwt>0</asrwt>
<pdfrwt beam="1">  1       21 0.80426203E-01 0.42598169E+03</pdfrwt>
<pdfrwt beam="2">  1       21 0.79209565E-01 0.42598169E+03</pdfrwt>
<totfact> 0.16591615E+03</totfact>
</mgrwt>
</event>
<event>
 4    1  0.4821294E-002  0.5185163E+03  0.7818608E-02  0.1009056E+00
         21   -1    0    0  503  502  0.00000000000E+00  0.00000000000E+00  0.44819634960E+03  0.44819634960E+03  0.00000000000E+00 0.  1.
         21   -1    0    0  501  503 -0.00000000000E+00 -0.00000000000E+00 -0.12764207131E+04  0.12764207131E+04  0.00000000000E+00 0.  1.
    9000007    1    1    2  501    0  0.32783027735E+03 -0.37235048087E+02  0.21368047170E+03  0.56081947500E+03  0.40000000000E+03 0.  1.
   -9000007    1    1    2    0  502 -0.32783027735E+03  0.37235048087E+02 -0.10419048352E+04  0.11637975878E+04  0.40000000000E+03 0.  1.
<mgrwt>
<rscale>  2 0.51851629E+03</rscale>
<asrwt>0</asrwt>
<pdfrwt beam="1">  1       21 0.68953287E-01 0.51851629E+03</pdfrwt>
<pdfrwt beam="2">  1       21 0.19637241E+00 0.51851629E+03</pdfrwt>
<totfact> 0.21272271E+02</totfact>
</mgrwt>
</event>
<event>
 4    1  0.4821294E-002  0.5334369E+03  0.7818608E-02  0.1005402E+00
         21   -1    0    0  501  502  0.00000000000E+00  0.00000000000E+00  0.11129905436E+04  0.11129905436E+04  0.00000000000E+00 0.  1.
         21   -1    0    0  502  503 -0.00000000000E+00 -0.00000000000E+00 -0.36475797011E+03  0.36475797011E+03  0.00000000000E+00 0. -1.
    9000007    1    1    2  501    0 -0.19615637341E+03 -0.29338988453E+03  0.77819181870E+03  0.94347096080E+03  0.40000000000E+03 0.  1.
   -9000007    1    1    2    0  503  0.19615637341E+03  0.29338988453E+03 -0.29959245205E+02  0.53427755291E+03  0.40000000000E+03 0. -1.
<mgrwt>
<rscale>  2 0.53343692E+03</rscale>
<asrwt>0</asrwt>
<pdfrwt beam="1">  1       21 0.17122931E+00 0.53343692E+03</pdfrwt>
<pdfrwt beam="2">  1       21 0.56116611E-01 0.53343692E+03</pdfrwt>
<totfact> 0.50063456E+02</totfact>
</mgrwt>
</event>
<event>
 4    1  0.4821294E-002  0.6584050E+03  0.7818608E-02  0.9791134E-01
         21   -1    0    0  501  502  0.00000000000E+00  0.00000000000E+00  0.57589890568E+03  0.57589890568E+03  0.00000000000E+00 0. -1.
         21   -1    0    0  502  503 -0.00000000000E+00 -0.00000000000E+00 -0.76994379892E+03  0.76994379892E+03  0.00000000000E+00 0. -1.
    9000007    1    1    2  501    0 -0.39351191292E+02  0.52148698505E+03  0.35908658071E+01  0.65841482832E+03  0.40000000000E+03 0. -1.
   -9000007    1    1    2    0  503  0.39351191292E+02 -0.52148698505E+03 -0.19763575905E+03  0.68742787628E+03  0.40000000000E+03 0. -1.
<mgrwt>
<rscale>  2 0.65840504E+03</rscale>
<asrwt>0</asrwt>
<pdfrwt beam="1">  1       21 0.88599832E-01 0.65840504E+03</pdfrwt>
<pdfrwt beam="2">  1       21 0.11845289E+00 0.65840504E+03</pdfrwt>
<totfact> 0.46008849E+02</totfact>
</mgrwt>
</event>
<event>
 4    1  0.4821294E-002  0.6593703E+03  0.7818608E-02  0.9789354E-01
         21   -1    0    0  503  502  0.00000000000E+00  0.00000000000E+00  0.93063910991E+03  0.93063910991E+03  0.00000000000E+00 0.  1.
         21   -1    0    0  501  503 -0.00000000000E+00 -0.00000000000E+00 -0.10015116004E+04  0.10015116004E+04  0.00000000000E+00 0. -1.
    9000007    1    1    2  501    0 -0.18546890361E+03  0.49027587119E+03 -0.74108962449E+03  0.99195916025E+03  0.40000000000E+03 0. -1.
   -9000007    1    1    2    0  502  0.18546890361E+03 -0.49027587119E+03  0.67021713400E+03  0.94019155005E+03  0.40000000000E+03 0.  1.
<mgrwt>
<rscale>  2 0.65937026E+03</rscale>
<asrwt>0</asrwt>
<pdfrwt beam="1">  1       21 0.14317525E+00 0.65937026E+03</pdfrwt>
<pdfrwt beam="2">  1       21 0.15407871E+00 0.65937026E+03</pdfrwt>
<totfact> 0.67776198E+01</totfact>
</mgrwt>
</event>
<event>
 4    1  0.4821294E-002  0.4108300E+03  0.7818608E-02  0.1040093E+00
         21   -1    0    0  501  502  0.00000000000E+00  0.00000000000E+00  0.26815867938E+03  0.26815867938E+03  0.00000000000E+00 0.  1.
         21   -1    0    0  502  503 -0.00000000000E+00 -0.00000000000E+00 -0.90123964417E+03  0.90123964417E+03  0.00000000000E+00 0.  1.
    9000007    1    1    2  501    0  0.91150234172E+02  0.21747415210E+02  0.45755905319E+01  0.41085551145E+03  0.40000000000E+03 0.  1.
   -9000007    1    1    2    0  503 -0.91150234172E+02 -0.21747415210E+02 -0.63765655532E+03  0.75854281210E+03  0.40000000000E+03 0.  1.
<mgrwt>
<rscale>  2 0.41083003E+03</rscale>
<asrwt>0</asrwt>
<pdfrwt beam="1">  1       21 0.41255181E-01 0.41083003E+03</pdfrwt>
<pdfrwt beam="2">  1       21 0.13865225E+00 0.41083003E+03</pdfrwt>
<totfact> 0.18061091E+03</totfact>
</mgrwt>
</event>
<event>
 4    1  0.4821294E-002  0.7702454E+03  0.7818608E-02  0.9604113E-01
         21   -1    0    0  503  502  0.00000000000E+00  0.00000000000E+00  0.13058400770E+04  0.13058400770E+04  0.00000000000E+00 0. -1.
         21   -1    0    0  501  503 -0.00000000000E+00 -0.00000000000E+00 -0.67212466494E+03  0.67212466494E+03  0.00000000000E+00 0. -1.
    9000007    1    1    2  501    0 -0.30050330982E+03 -0.58564131032E+03 -0.24611918040E+03  0.80861154736E+03  0.40000000000E+03 0. -1.
   -9000007    1    1    2    0  502  0.30050330982E+03  0.58564131032E+03  0.87983459244E+03  0.11693531946E+04  0.40000000000E+03 0. -1.
<mgrwt>
<rscale>  2 0.77024540E+03</rscale>
<asrwt>0</asrwt>
<pdfrwt beam="1">  1       21 0.20089847E+00 0.77024540E+03</pdfrwt>
<pdfrwt beam="2">  1       21 0.10340379E+00 0.77024540E+03</pdfrwt>
<totfact> 0.69158090E+01</totfact>
</mgrwt>
</event>
<event>
 4    1  0.4821294E-002  0.4229378E+03  0.7818608E-02  0.1036114E+00
         21   -1    0    0  503  502  0.00000000000E+00  0.00000000000E+00  0.14471332819E+04  0.14471332819E+04  0.00000000000E+00 0.  1.
         21   -1    0    0  501  503 -0.00000000000E+00 -0.00000000000E+00 -0.12864548204E+03  0.12864548204E+03  0.00000000000E+00 0. -1.
    9000007    1    1    2  501    0 -0.62103139679E+02 -0.12255438912E+03  0.50332429686E+03  0.65742811475E+03  0.40000000000E+03 0. -1.
   -9000007    1    1    2    0  502  0.62103139679E+02  0.12255438912E+03  0.81516350303E+03  0.91835064922E+03  0.40000000000E+03 0. -1.
<mgrwt>
<rscale>  2 0.42293779E+03</rscale>
<asrwt>0</asrwt>
<pdfrwt beam="1">  1       21 0.22263588E+00 0.42293779E+03</pdfrwt>
<pdfrwt beam="2">  1       21 0.19791614E-01 0.42293779E+03</pdfrwt>
<totfact> 0.19381843E+03</totfact>
</mgrwt>
</event>
<event>
 4    1  0.4821294E-002  0.4252922E+03  0.7818608E-02  0.1035358E+00
         21   -1    0    0  501  502  0.00000000000E+00  0.00000000000E+00  0.65222932595E+03  0.65222932595E+03  0.00000000000E+00 0. -1.
         21   -1    0    0  502  503 -0.00000000000E+00 -0.00000000000E+00 -0.13514566445E+04  0.13514566445E+04  0.00000000000E+00 0. -1.
    9000007    1    1    2  501    0 -0.88529139496E+02  0.11417542891E+03  0.54354628291E+03  0.69015650310E+03  0.40000000000E+03 0. -1.
   -9000007    1    1    2    0  503  0.88529139496E+02 -0.11417542891E+03 -0.12427736014E+04  0.13135294673E+04  0.40000000000E+03 0. -1.
<mgrwt>
<rscale>  2 0.42529218E+03</rscale>
<asrwt>0</asrwt>
<pdfrwt beam="1">  1       21 0.10034297E+00 0.42529218E+03</pdfrwt>
<pdfrwt beam="2">  1       21 0.20791641E+00 0.42529218E+03</pdfrwt>
<totfact> 0.78074827E+01</totfact>
</mgrwt>
</event>
<event>
 4    1  0.4821294E-002  0.4682356E+03  0.7818608E-02  0.1022419E+00
         21   -1    0    0  503  502  0.00000000000E+00  0.00000000000E+00  0.22271605352E+03  0.22271605352E+03  0.00000000000E+00 0. -1.
         21   -1    0    0  501  503 -0.00000000000E+00 -0.00000000000E+00 -0.12279163780E+04  0.12279163780E+04  0.00000000000E+00 0. -1.
    9000007    1    1    2  501    0  0.19722929496E+03 -0.14263638902E+03 -0.82559506067E+03  0.94913209748E+03  0.40000000000E+03 0. -1.
   -9000007    1    1    2    0  502 -0.19722929496E+03  0.14263638902E+03 -0.17960526382E+03  0.50150033405E+03  0.40000000000E+03 0. -1.
<mgrwt>
<rscale>  2 0.46823555E+03</rscale>
<asrwt>0</asrwt>
<pdfrwt beam="1">  1       21 0.34264009E-01 0.46823555E+03</pdfrwt>
<pdfrwt beam="2">  1       21 0.18891021E+00 0.46823555E+03</pdfrwt>
<totfact> 0.10825860E+03</totfact>
</mgrwt>
</event>
<event>
 4    1  0.4821294E-002  0.4273523E+03  0.7818608E-02  0.1034700E+00
         21   -1    0    0  501  502  0.00000000000E+00  0.00000000000E+00  0.61456407805E+03  0.61456407805E+03  0.00000000000E+00 0. -1.
         21   -1    0    0  502  503 -0.00000000000E+00 -0.00000000000E+00 -0.29753619263E+03  0.29753619263E+03  0.00000000000E+00 0. -1.
    9000007    1    1    2  501    0 -0.15039470466E+03  0.33755760199E+01  0.17451472675E+03  0.46161168915E+03  0.40000000000E+03 0. -1.
   -9000007    1    1    2    0  503  0.15039470466E+03 -0.33755760199E+01  0.14251315867E+03  0.45048858154E+03  0.40000000000E+03 0. -1.
<mgrwt>
<rscale>  2 0.42735227E+03</rscale>
<asrwt>0</asrwt>
<pdfrwt beam="1">  1       21 0.94548320E-01 0.42735227E+03</pdfrwt>
<pdfrwt beam="2">  1       21 0.45774799E-01 0.42735227E+03</pdfrwt>
<totfact> 0.37747476E+03</totfact>
</mgrwt>
</event>
<event>
 4    1  0.4821294E-002  0.7512788E+03  0.7818608E-02  0.9633346E-01
         21   -1    0    0  503  502  0.00000000000E+00  0.00000000000E+00  0.86354156102E+03  0.86354156102E+03  0.00000000000E+00 0.  1.
         21   -1    0    0  501  503 -0.00000000000E+00 -0.00000000000E+00 -0.66979927339E+03  0.66979927339E+03  0.00000000000E+00 0.  1.
    9000007    1    1    2  501    0 -0.63512987603E+03 -0.32091228527E+02 -0.22319929783E+02  0.75161026179E+03  0.40000000000E+03 0.  1.
   -9000007    1    1    2    0  502  0.63512987603E+03  0.32091228527E+02  0.21606221741E+03  0.78173057262E+03  0.40000000000E+03 0.  1.
<mgrwt>
<rscale>  2 0.75127878E+03</rscale>
<asrwt>0</asrwt>
<pdfrwt beam="1">  1       21 0.13285255E+00 0.75127878E+03</pdfrwt>
<pdfrwt beam="2">  1       21 0.10304604E+00 0.75127878E+03</pdfrwt>
<totfact> 0.22998190E+02</totfact>
</mgrwt>
</event>
<event>
 4    1  0.4821294E-002  0.6257847E+03  0.7818608E-02  0.9853309E-01
         21   -1    0    0  503  502  0.00000000000E+00  0.00000000000E+00  0.18734889352E+03  0.18734889352E+03  0.00000000000E+00 0.  1.
         21   -1    0    0  501  503 -0.00000000000E+00 -0.00000000000E+00 -0.21785306864E+04  0.21785306864E+04  0.00000000000E+00 0.  1.
    9000007    1    1    2  501    0 -0.38620787725E+02  0.47970301277E+03 -0.75746490059E+03  0.98252716060E+03  0.40000000000E+03 0.  1.
   -9000007    1    1    2    0  502  0.38620787725E+02 -0.47970301277E+03 -0.12337168923E+04  0.13833524193E+04  0.40000000000E+03 0.  1.
<mgrwt>
<rscale>  2 0.62578474E+03</rscale>
<asrwt>0</asrwt>
<pdfrwt beam="1">  1       21 0.28822905E-01 0.62578474E+03</pdfrwt>
<pdfrwt beam="2">  1       21 0.33515859E+00 0.62578474E+03</pdfrwt>
<totfact> 0.17355899E+02</totfact>
</mgrwt>
</event>
<event>
 4    1  0.4821294E-002  0.4033944E+03  0.7818608E-02  0.1042611E+00
         21   -1    0    0  503  502  0.00000000000E+00  0.00000000000E+00  0.12110742063E+04  0.12110742063E+04  0.00000000000E+00 0. -1.
         21   -1    0    0  501  503 -0.00000000000E+00 -0.00000000000E+00 -0.14195146441E+03  0.14195146441E+03  0.00000000000E+00 0. -1.
    9000007    1    1    2  501    0  0.48097757438E+02  0.20339121166E+02  0.37817457222E+03  0.55294039570E+03  0.40000000000E+03 0. -1.
   -9000007    1    1    2    0  502 -0.48097757438E+02 -0.20339121166E+02  0.69094816961E+03  0.80008527496E+03  0.40000000000E+03 0. -1.
<mgrwt>
<rscale>  2 0.40339444E+03</rscale>
<asrwt>0</asrwt>
<pdfrwt beam="1">  1       21 0.18631910E+00 0.40339444E+03</pdfrwt>
<pdfrwt beam="2">  1       21 0.21838688E-01 0.40339444E+03</pdfrwt>
<totfact> 0.28125709E+03</totfact>
</mgrwt>
</event>
<event>
 4    1  0.4821294E-002  0.4549598E+03  0.7818608E-02  0.1026253E+00
         21   -1    0    0  503  502  0.00000000000E+00  0.00000000000E+00  0.44400629153E+03  0.44400629153E+03  0.00000000000E+00 0. -1.
         21   -1    0    0  501  503 -0.00000000000E+00 -0.00000000000E+00 -0.48561335160E+03  0.48561335160E+03  0.00000000000E+00 0. -1.
    9000007    1    1    2  501    0 -0.32956656096E+02  0.21424811383E+03 -0.11377828005E+03  0.46897109982E+03  0.40000000000E+03 0. -1.
   -9000007    1    1    2    0  502  0.32956656096E+02 -0.21424811383E+03  0.72171219981E+02  0.46064854331E+03  0.40000000000E+03 0. -1.
<mgrwt>
<rscale>  2 0.45495977E+03</rscale>
<asrwt>0</asrwt>
<pdfrwt beam="1">  1       21 0.68308660E-01 0.45495977E+03</pdfrwt>
<pdfrwt beam="2">  1       21 0.74709746E-01 0.45495977E+03</pdfrwt>
<totfact> 0.27206874E+03</totfact>
</mgrwt>
</event>
<event>
 4    1  0.4821294E-002  0.4012461E+03  0.7818608E-02  0.1043349E+00
         21   -1    0    0  501  502  0.00000000000E+00  0.00000000000E+00  0.21313787860E+03  0.21313787860E+03  0.00000000000E+00 0.  1.
         21   -1    0    0  502  503 -0.00000000000E+00 -0.00000000000E+00 -0.92324807691E+03  0.92324807691E+03  0.00000000000E+00 0.  1.
    9000007    1    1    2  501    0  0.29308736380E+02  0.11807649805E+02 -0.11276769471E+03  0.41679128541E+03  0.40000000000E+03 0.  1.
   -9000007    1    1    2    0  503 -0.29308736380E+02 -0.11807649805E+02 -0.59734250361E+03  0.71959467010E+03  0.40000000000E+03 0.  1.
<mgrwt>
<rscale>  2 0.40124609E+03</rscale>
<asrwt>0</asrwt>
<pdfrwt beam="1">  1       21 0.32790443E-01 0.40124609E+03</pdfrwt>
<pdfrwt beam="2">  1       21 0.14203816E+00 0.40124609E+03</pdfrwt>
<totfact> 0.27131090E+03</totfact>
</mgrwt>
</event>
<event>
 4    1  0.4821294E-002  0.4620590E+03  0.7818608E-02  0.1024186E+00
         21   -1    0    0  503  502  0.00000000000E+00  0.00000000000E+00  0.37554122096E+03  0.37554122096E+03  0.00000000000E+00 0.  1.
         21   -1    0    0  501  503 -0.00000000000E+00 -0.00000000000E+00 -0.58660492951E+03  0.58660492951E+03  0.00000000000E+00 0.  1.
    9000007    1    1    2  501    0 -0.19961392030E+03 -0.11684507496E+03 -0.19002686194E+03  0.49960854374E+03  0.40000000000E+03 0.  1.
   -9000007    1    1    2    0  502  0.19961392030E+03  0.11684507496E+03 -0.21036846603E+02  0.46253760672E+03  0.40000000000E+03 0.  1.
<mgrwt>
<rscale>  2 0.46205897E+03</rscale>
<asrwt>0</asrwt>
<pdfrwt beam="1">  1       21 0.57775573E-01 0.46205897E+03</pdfrwt>
<pdfrwt beam="2">  1       21 0.90246912E-01 0.46205897E+03</pdfrwt>
<totfact> 0.25328522E+03</totfact>
</mgrwt>
</event>
<event>
 4    1  0.4821294E-002  0.4396519E+03  0.7818608E-02  0.1030854E+00
         21   -1    0    0  503  502  0.00000000000E+00  0.00000000000E+00  0.11611103481E+04  0.11611103481E+04  0.00000000000E+00 0. -1.
         21   -1    0    0  501  503 -0.00000000000E+00 -0.00000000000E+00 -0.22882995414E+03  0.22882995414E+03  0.00000000000E+00 0. -1.
    9000007    1    1    2  501    0 -0.11454449792E+03 -0.14203284320E+03  0.10335344477E+03  0.45163669592E+03  0.40000000000E+03 0. -1.
   -9000007    1    1    2    0  502  0.11454449792E+03  0.14203284320E+03  0.82892694916E+03  0.93830360630E+03  0.40000000000E+03 0. -1.
<mgrwt>
<rscale>  2 0.43965187E+03</rscale>
<asrwt>0</asrwt>
<pdfrwt beam="1">  1       21 0.17863236E+00 0.43965187E+03</pdfrwt>
<pdfrwt beam="2">  1       21 0.35204609E-01 0.43965187E+03</pdfrwt>
<totfact> 0.12239420E+03</totfact>
</mgrwt>
</event>
<event>
 4    1  0.4821294E-002  0.5554695E+03  0.7818608E-02  0.1000236E+00
         21   -1    0    0  501  502  0.00000000000E+00  0.00000000000E+00  0.65138058255E+03  0.65138058255E+03  0.00000000000E+00 0.  1.
         21   -1    0    0  502  503 -0.00000000000E+00 -0.00000000000E+00 -0.47921885209E+03  0.47921885209E+03  0.00000000000E+00 0.  1.
    9000007    1    1    2  501    0  0.27645537609E+03 -0.26854935642E+03  0.14685222945E+03  0.57455366077E+03  0.40000000000E+03 0.  1.
   -9000007    1    1    2    0  503 -0.27645537609E+03  0.26854935642E+03  0.25309501007E+02  0.55604577388E+03  0.40000000000E+03 0.  1.
<mgrwt>
<rscale>  2 0.55546947E+03</rscale>
<asrwt>0</asrwt>
<pdfrwt beam="1">  1       21 0.10021240E+00 0.55546947E+03</pdfrwt>
<pdfrwt beam="2">  1       21 0.73725978E-01 0.55546947E+03</pdfrwt>
<totfact> 0.11073882E+03</totfact>
</mgrwt>
</event>
<event>
 4    1  0.4821294E-002  0.4563863E+03  0.7818608E-02  0.1025835E+00
         21   -1    0    0  503  502  0.00000000000E+00  0.00000000000E+00  0.13436581865E+04  0.13436581865E+04  0.00000000000E+00 0.  1.
         21   -1    0    0  501  503 -0.00000000000E+00 -0.00000000000E+00 -0.18985557878E+03  0.18985557878E+03  0.00000000000E+00 0.  1.
    9000007    1    1    2  501    0  0.20028820136E+03  0.90404937717E+02  0.24844097895E+03  0.51962615060E+03  0.40000000000E+03 0.  1.
   -9000007    1    1    2    0  502 -0.20028820136E+03 -0.90404937717E+02  0.90536162879E+03  0.10138876147E+04  0.40000000000E+03 0.  1.
<mgrwt>
<rscale>  2 0.45638626E+03</rscale>
<asrwt>0</asrwt>
<pdfrwt beam="1">  1       21 0.20671664E+00 0.45638626E+03</pdfrwt>
<pdfrwt beam="2">  1       21 0.29208551E-01 0.45638626E+03</pdfrwt>
<totfact> 0.11372153E+03</totfact>
</mgrwt>
</event>
<event>
 4    1  0.4821294E-002  0.4417707E+03  0.7818608E-02  0.1030205E+00
         21   -1    0    0  501  502  0.00000000000E+00  0.00000000000E+00  0.21790439387E+03  0.21790439387E+03  0.00000000000E+00 0. -1.
         21   -1    0    0  502  503 -0.00000000000E+00 -0.00000000000E+00 -0.31825197530E+04  0.31825197530E+04  0.00000000000E+00 0. -1.
    9000007    1    1    2  501    0 -0.17238028187E+03  0.73799813643E+02 -0.41054416596E+02  0.44367424896E+03  0.40000000000E+03 0. -1.
   -9000007    1    1    2    0  503  0.17238028187E+03 -0.73799813643E+02 -0.29235609426E+04  0.29567498979E+04  0.40000000000E+03 0. -1.
<mgrwt>
<rscale>  2 0.44177073E+03</rscale>
<asrwt>0</asrwt>
<pdfrwt beam="1">  1       21 0.33523755E-01 0.44177073E+03</pdfrwt>
<pdfrwt beam="2">  1       21 0.48961840E+00 0.44177073E+03</pdfrwt>
<totfact> 0.13951927E+01</totfact>
</mgrwt>
</event>
<event>
 4    1  0.4821294E-002  0.4619398E+03  0.7818608E-02  0.1024220E+00
         21   -1    0    0  503  502  0.00000000000E+00  0.00000000000E+00  0.77784862003E+03  0.77784862003E+03  0.00000000000E+00 0.  1.
         21   -1    0    0  501  503 -0.00000000000E+00 -0.00000000000E+00 -0.32548486237E+03  0.32548486237E+03  0.00000000000E+00 0.  1.
    9000007    1    1    2  501    0 -0.23085668700E+03 -0.96715620815E+01  0.74819412134E+01  0.46200035551E+03  0.40000000000E+03 0.  1.
   -9000007    1    1    2    0  502  0.23085668700E+03  0.96715620815E+01  0.44488181645E+03  0.64133312690E+03  0.40000000000E+03 0.  1.
<mgrwt>
<rscale>  2 0.46193977E+03</rscale>
<asrwt>0</asrwt>
<pdfrwt beam="1">  1       21 0.11966902E+00 0.46193977E+03</pdfrwt>
<pdfrwt beam="2">  1       21 0.50074594E-01 0.46193977E+03</pdfrwt>
<totfact> 0.17254298E+03</totfact>
</mgrwt>
</event>
<event>
 4    1  0.4821294E-002  0.4669334E+03  0.7818608E-02  0.1022789E+00
         21   -1    0    0  501  502  0.00000000000E+00  0.00000000000E+00  0.31073726357E+03  0.31073726357E+03  0.00000000000E+00 0. -1.
         21   -1    0    0  502  503 -0.00000000000E+00 -0.00000000000E+00 -0.11925740127E+04  0.11925740127E+04  0.00000000000E+00 0.  1.
    9000007    1    1    2  501    0  0.12811106654E+03  0.20399592270E+03  0.41347198504E+02  0.46876046407E+03  0.40000000000E+03 0. -1.
   -9000007    1    1    2    0  503 -0.12811106654E+03 -0.20399592270E+03 -0.92318394762E+03  0.10345508122E+04  0.40000000000E+03 0.  1.
<mgrwt>
<rscale>  2 0.46693338E+03</rscale>
<asrwt>0</asrwt>
<pdfrwt beam="1">  1       21 0.47805734E-01 0.46693338E+03</pdfrwt>
<pdfrwt beam="2">  1       21 0.18347292E+00 0.46693338E+03</pdfrwt>
<totfact> 0.59367839E+02</totfact>
</mgrwt>
</event>
<event>
 4    1  0.4821294E-002  0.5449712E+03  0.7818608E-02  0.1002665E+00
         21   -1    0    0  503  502  0.00000000000E+00  0.00000000000E+00  0.15886346979E+04  0.15886346979E+04  0.00000000000E+00 0.  1.
         21   -1    0    0  501  503 -0.00000000000E+00 -0.00000000000E+00 -0.23106330778E+03  0.23106330778E+03  0.00000000000E+00 0. -1.
    9000007    1    1    2  501    0  0.47980913074E+02 -0.36700339413E+03  0.10763373742E+04  0.12064393074E+04  0.40000000000E+03 0.  1.
   -9000007    1    1    2    0  502 -0.47980913074E+02  0.36700339413E+03  0.28123401593E+03  0.61325869830E+03  0.40000000000E+03 0. -1.
<mgrwt>
<rscale>  2 0.54497125E+03</rscale>
<asrwt>0</asrwt>
<pdfrwt beam="1">  1       21 0.24440533E+00 0.54497125E+03</pdfrwt>
<pdfrwt beam="2">  1       21 0.35548202E-01 0.54497125E+03</pdfrwt>
<totfact> 0.42385069E+02</totfact>
</mgrwt>
</event>
<event>
 4    1  0.4821294E-002  0.5155443E+03  0.7818608E-02  0.1009799E+00
         21   -1    0    0  503  502  0.00000000000E+00  0.00000000000E+00  0.24213976330E+04  0.24213976330E+04  0.00000000000E+00 0.  1.
         21   -1    0    0  501  503 -0.00000000000E+00 -0.00000000000E+00 -0.11075677303E+03  0.11075677303E+03  0.00000000000E+00 0.  1.
    9000007    1    1    2  501    0  0.32052770770E+03  0.55207957360E+02  0.10355441123E+04  0.11567789497E+04  0.40000000000E+03 0.  1.
   -9000007    1    1    2    0  502 -0.32052770770E+03 -0.55207957360E+02  0.12750967476E+04  0.13753754563E+04  0.40000000000E+03 0.  1.
<mgrwt>
<rscale>  2 0.51554430E+03</rscale>
<asrwt>0</asrwt>
<pdfrwt beam="1">  1       21 0.37252267E+00 0.51554430E+03</pdfrwt>
<pdfrwt beam="2">  1       21 0.17039505E-01 0.51554430E+03</pdfrwt>
<totfact> 0.29657089E+02</totfact>
</mgrwt>
</event>
<event>
 4    1  0.4821294E-002  0.4807657E+03  0.7818608E-02  0.1018925E+00
         21   -1    0    0  503  502  0.00000000000E+00  0.00000000000E+00  0.39300607930E+03  0.39300607930E+03  0.00000000000E+00 0. -1.
         21   -1    0    0  501  503 -0.00000000000E+00 -0.00000000000E+00 -0.70289120188E+03  0.70289120188E+03  0.00000000000E+00 0.  1.
    9000007    1    1    2  501    0  0.19091847785E+03 -0.18624111635E+03 -0.37635805762E+03  0.61055794659E+03  0.40000000000E+03 0.  1.
   -9000007    1    1    2    0  502 -0.19091847785E+03  0.18624111635E+03  0.66472935042E+02  0.48533933459E+03  0.40000000000E+03 0. -1.
<mgrwt>
<rscale>  2 0.48076566E+03</rscale>
<asrwt>0</asrwt>
<pdfrwt beam="1">  1       21 0.60462475E-01 0.48076566E+03</pdfrwt>
<pdfrwt beam="2">  1       21 0.10813711E+00 0.48076566E+03</pdfrwt>
<totfact> 0.14686997E+03</totfact>
</mgrwt>
</event>
<event>
 4    1  0.4821294E-002  0.4022328E+03  0.7818608E-02  0.1043009E+00
         21   -1    0    0  503  502  0.00000000000E+00  0.00000000000E+00  0.14449867396E+04  0.14449867396E+04  0.00000000000E+00 0.  1.
         21   -1    0    0  501  503 -0.00000000000E+00 -0.00000000000E+00 -0.11773921098E+03  0.11773921098E+03  0.00000000000E+00 0.  1.
    9000007    1    1    2  501    0  0.39171351683E+02  0.16025314979E+02  0.49062077920E+03  0.63442884116E+03  0.40000000000E+03 0.  1.
   -9000007    1    1    2    0  502 -0.39171351683E+02 -0.16025314979E+02  0.83662674940E+03  0.92829710940E+03  0.40000000000E+03 0.  1.
<mgrwt>
<rscale>  2 0.40223278E+03</rscale>
<asrwt>0</asrwt>
<pdfrwt beam="1">  1       21 0.22230564E+00 0.40223278E+03</pdfrwt>
<pdfrwt beam="2">  1       21 0.18113726E-01 0.40223278E+03</pdfrwt>
<totfact> 0.23256952E+03</totfact>
</mgrwt>
</event>
<event>
 4    1  0.4821294E-002  0.4343331E+03  0.7818608E-02  0.1032500E+00
         21   -1    0    0  503  502  0.00000000000E+00  0.00000000000E+00  0.30097830890E+03  0.30097830890E+03  0.00000000000E+00 0. -1.
         21   -1    0    0  501  503 -0.00000000000E+00 -0.00000000000E+00 -0.80634978513E+03  0.80634978513E+03  0.00000000000E+00 0. -1.
    9000007    1    1    2  501    0  0.12445428809E+03  0.11470127616E+03 -0.51396742951E+03  0.67290992798E+03  0.40000000000E+03 0. -1.
   -9000007    1    1    2    0  502 -0.12445428809E+03 -0.11470127616E+03  0.85959532802E+01  0.43441816605E+03  0.40000000000E+03 0. -1.
<mgrwt>
<rscale>  2 0.43433311E+03</rscale>
<asrwt>0</asrwt>
<pdfrwt beam="1">  1       21 0.46304356E-01 0.43433311E+03</pdfrwt>
<pdfrwt beam="2">  1       21 0.12405381E+00 0.43433311E+03</pdfrwt>
<totfact> 0.18773332E+03</totfact>
</mgrwt>
</event>
<event>
 4    1  0.4821294E-002  0.4210592E+03  0.7818608E-02  0.1036722E+00
         21   -1    0    0  501  502  0.00000000000E+00  0.00000000000E+00  0.80676369321E+03  0.80676369321E+03  0.00000000000E+00 0. -1.
         21   -1    0    0  502  503 -0.00000000000E+00 -0.00000000000E+00 -0.23345206202E+03  0.23345206202E+03  0.00000000000E+00 0.  1.
    9000007    1    1    2  501    0  0.56338349402E+02  0.11881425676E+03  0.41263500723E+03  0.58954091157E+03  0.40000000000E+03 0. -1.
   -9000007    1    1    2    0  503 -0.56338349402E+02 -0.11881425676E+03  0.16067662396E+03  0.45067484366E+03  0.40000000000E+03 0.  1.
<mgrwt>
<rscale>  2 0.42105918E+03</rscale>
<asrwt>0</asrwt>
<pdfrwt beam="1">  1       21 0.12411749E+00 0.42105918E+03</pdfrwt>
<pdfrwt beam="2">  1       21 0.35915702E-01 0.42105918E+03</pdfrwt>
<totfact> 0.31838367E+03</totfact>
</mgrwt>
</event>
<event>
 4    1  0.4821294E-002  0.4470416E+03  0.7818608E-02  0.1028608E+00
         21   -1    0    0  503  502  0.00000000000E+00  0.00000000000E+00  0.55171217916E+03  0.55171217916E+03  0.00000000000E+00 0.  1.
         21   -1    0    0  501  503 -0.00000000000E+00 -0.00000000000E+00 -0.48249665190E+03  0.48249665190E+03  0.00000000000E+00 0.  1.
    9000007    1    1    2  501    0  0.15435403233E+03  0.12657414195E+03 -0.22356202116E+03  0.49982612778E+03  0.40000000000E+03 0.  1.
   -9000007    1    1    2    0  502 -0.15435403233E+03 -0.12657414195E+03  0.29277754841E+03  0.53438270328E+03  0.40000000000E+03 0.  1.
<mgrwt>
<rscale>  2 0.44704159E+03</rscale>
<asrwt>0</asrwt>
<pdfrwt beam="1">  1       21 0.84878797E-01 0.44704159E+03</pdfrwt>
<pdfrwt beam="2">  1       21 0.74230254E-01 0.44704159E+03</pdfrwt>
<totfact> 0.16843615E+03</totfact>
</mgrwt>
</event>
<event>
 4    1  0.4821294E-002  0.4980181E+03  0.7818608E-02  0.1014298E+00
         21   -1    0    0  503  502  0.00000000000E+00  0.00000000000E+00  0.25961994990E+03  0.25961994990E+03  0.00000000000E+00 0.  1.
         21   -1    0    0  501  503 -0.00000000000E+00 -0.00000000000E+00 -0.98758084295E+03  0.98758084295E+03  0.00000000000E+00 0. -1.
    9000007    1    1    2  501    0 -0.29453472759E+03 -0.35655976273E+02 -0.47667632290E+03  0.68937824974E+03  0.40000000000E+03 0.  1.
   -9000007    1    1    2    0  502  0.29453472759E+03  0.35655976273E+02 -0.25128457015E+03  0.55782254311E+03  0.40000000000E+03 0. -1.
<mgrwt>
<rscale>  2 0.49801813E+03</rscale>
<asrwt>0</asrwt>
<pdfrwt beam="1">  1       21 0.39941531E-01 0.49801813E+03</pdfrwt>
<pdfrwt beam="2">  1       21 0.15193551E+00 0.49801813E+03</pdfrwt>
<totfact> 0.14577673E+03</totfact>
</mgrwt>
</event>
<event>
 4    1  0.4821294E-002  0.5041606E+03  0.7818608E-02  0.1012699E+00
         21   -1    0    0  501  502  0.00000000000E+00  0.00000000000E+00  0.46461605928E+03  0.46461605928E+03  0.00000000000E+00 0.  1.
         21   -1    0    0  502  503 -0.00000000000E+00 -0.00000000000E+00 -0.68440289737E+03  0.68440289737E+03  0.00000000000E+00 0. -1.
    9000007    1    1    2  501    0  0.30663701112E+03  0.12312897830E+02  0.14745846766E+03  0.52528265127E+03  0.40000000000E+03 0.  1.
   -9000007    1    1    2    0  503 -0.30663701112E+03 -0.12312897830E+02 -0.36724530576E+03  0.62373630538E+03  0.40000000000E+03 0. -1.
<mgrwt>
<rscale>  2 0.50416055E+03</rscale>
<asrwt>0</asrwt>
<pdfrwt beam="1">  1       21 0.71479394E-01 0.50416055E+03</pdfrwt>
<pdfrwt beam="2">  1       21 0.10529275E+00 0.50416055E+03</pdfrwt>
<totfact> 0.10706156E+03</totfact>
</mgrwt>
</event>
<event>
 4    1  0.4821294E-002  0.7020952E+03  0.7818608E-02  0.9713656E-01
         21   -1    0    0  501  502  0.00000000000E+00  0.00000000000E+00  0.30186756000E+03  0.30186756000E+03  0.00000000000E+00 0.  1.
         21   -1    0    0  502  503 -0.00000000000E+00 -0.00000000000E+00 -0.16670494467E+04  0.16670494467E+04  0.00000000000E+00 0.  1.
    9000007    1    1    2  501    0 -0.52359624852E+03  0.24245552685E+03 -0.54181390759E+03  0.88684836608E+03  0.40000000000E+03 0.  1.
   -9000007    1    1    2    0  503  0.52359624852E+03 -0.24245552685E+03 -0.82336797910E+03  0.10820686406E+04  0.40000000000E+03 0.  1.
<mgrwt>
<rscale>  2 0.70209523E+03</rscale>
<asrwt>0</asrwt>
<pdfrwt beam="1">  1       21 0.46441163E-01 0.70209523E+03</pdfrwt>
<pdfrwt beam="2">  1       21 0.25646915E+00 0.70209523E+03</pdfrwt>
<totfact> 0.19233650E+02</totfact>
</mgrwt>
</event>
<event>
 4    1  0.4821294E-002  0.4935266E+03  0.7818608E-02  0.1015483E+00
         21   -1    0    0  503  502  0.00000000000E+00  0.00000000000E+00  0.32557940853E+03  0.32557940853E+03  0.00000000000E+00 0.  1.
         21   -1    0    0  501  503 -0.00000000000E+00 -0.00000000000E+00 -0.93982163566E+03  0.93982163566E+03  0.00000000000E+00 0. -1.
    9000007    1    1    2  501    0 -0.27353124007E+03  0.93536929785E+02 -0.59288161314E+03  0.77141240833E+03  0.40000000000E+03 0. -1.
   -9000007    1    1    2    0  502  0.27353124007E+03 -0.93536929785E+02 -0.21360613985E+02  0.49398863586E+03  0.40000000000E+03 0.  1.
<mgrwt>
<rscale>  2 0.49352659E+03</rscale>
<asrwt>0</asrwt>
<pdfrwt beam="1">  1       21 0.50089140E-01 0.49352659E+03</pdfrwt>
<pdfrwt beam="2">  1       21 0.14458794E+00 0.49352659E+03</pdfrwt>
<totfact> 0.10389669E+03</totfact>
</mgrwt>
</event>
<event>
 4    1  0.4821294E-002  0.4985594E+03  0.7818608E-02  0.1014156E+00
         21   -1    0    0  501  502  0.00000000000E+00  0.00000000000E+00  0.16536035373E+03  0.16536035373E+03  0.00000000000E+00 0. -1.
         21   -1    0    0  502  503 -0.00000000000E+00 -0.00000000000E+00 -0.15716106723E+04  0.15716106723E+04  0.00000000000E+00 0. -1.
    9000007    1    1    2  501    0 -0.27034804598E+03 -0.12439204791E+03 -0.52186178388E+03  0.72173483290E+03  0.40000000000E+03 0. -1.
   -9000007    1    1    2    0  503  0.27034804598E+03  0.12439204791E+03 -0.88438853473E+03  0.10152361932E+04  0.40000000000E+03 0. -1.
<mgrwt>
<rscale>  2 0.49855937E+03</rscale>
<asrwt>0</asrwt>
<pdfrwt beam="1">  1       21 0.25440054E-01 0.49855937E+03</pdfrwt>
<pdfrwt beam="2">  1       21 0.24178626E+00 0.49855937E+03</pdfrwt>
<totfact> 0.87490359E+02</totfact>
</mgrwt>
</event>
<event>
 4    1  0.4821294E-002  0.4202847E+03  0.7818608E-02  0.1036974E+00
         21   -1    0    0  503  502  0.00000000000E+00  0.00000000000E+00  0.26945335256E+03  0.26945335256E+03  0.00000000000E+00 0.  1.
         21   -1    0    0  501  503 -0.00000000000E+00 -0.00000000000E+00 -0.70605177544E+03  0.70605177544E+03  0.00000000000E+00 0.  1.
    9000007    1    1    2  501    0  0.29105626393E+02  0.12566650709E+03 -0.34875085576E+03  0.54613768217E+03  0.40000000000E+03 0.  1.
   -9000007    1    1    2    0  502 -0.29105626393E+02 -0.12566650709E+03 -0.87847567111E+02  0.42936744583E+03  0.40000000000E+03 0.  1.
<mgrwt>
<rscale>  2 0.42028468E+03</rscale>
<asrwt>0</asrwt>
<pdfrwt beam="1">  1       21 0.41454362E-01 0.42028468E+03</pdfrwt>
<pdfrwt beam="2">  1       21 0.10862335E+00 0.42028468E+03</pdfrwt>
<totfact> 0.33188838E+03</totfact>
</mgrwt>
</event>
<event>
 4    1  0.4821294E-002  0.4560477E+03  0.7818608E-02  0.1025934E+00
         21   -1    0    0  501  502  0.00000000000E+00  0.00000000000E+00  0.15264315001E+03  0.15264315001E+03  0.00000000000E+00 0. -1.
         21   -1    0    0  502  503 -0.00000000000E+00 -0.00000000000E+00 -0.19248549013E+04  0.19248549013E+04  0.00000000000E+00 0. -1.
    9000007    1    1    2  501    0  0.21824788055E+03  0.18638179285E+02 -0.32465894860E+03  0.55980617360E+03  0.40000000000E+03 0. -1.
   -9000007    1    1    2    0  503 -0.21824788055E+03 -0.18638179285E+02 -0.14475528027E+04  0.15176918778E+04  0.40000000000E+03 0. -1.
<mgrwt>
<rscale>  2 0.45604772E+03</rscale>
<asrwt>0</asrwt>
<pdfrwt beam="1">  1       21 0.23483561E-01 0.45604772E+03</pdfrwt>
<pdfrwt beam="2">  1       21 0.29613153E+00 0.45604772E+03</pdfrwt>
<totfact> 0.48747749E+02</totfact>
</mgrwt>
</event>
<event>
 4    1  0.4821294E-002  0.4457082E+03  0.7818608E-02  0.1029010E+00
         21   -1    0    0  503  502  0.00000000000E+00  0.00000000000E+00  0.25411000693E+03  0.25411000693E+03  0.00000000000E+00 0.  1.
         21   -1    0    0  501  503 -0.00000000000E+00 -0.00000000000E+00 -0.11267925404E+04  0.11267925404E+04  0.00000000000E+00 0.  1.
    9000007    1    1    2  501    0 -0.19207082246E+03  0.42006660182E+02 -0.81840370357E+03  0.93190148748E+03  0.40000000000E+03 0.  1.
   -9000007    1    1    2    0  502  0.19207082246E+03 -0.42006660182E+02 -0.54278829856E+02  0.44900105981E+03  0.40000000000E+03 0.  1.
<mgrwt>
<rscale>  2 0.44570816E+03</rscale>
<asrwt>0</asrwt>
<pdfrwt beam="1">  1       21 0.39093848E-01 0.44570816E+03</pdfrwt>
<pdfrwt beam="2">  1       21 0.17335269E+00 0.44570816E+03</pdfrwt>
<totfact> 0.10753559E+03</totfact>
</mgrwt>
</event>
<event>
 4    1  0.4821294E-002  0.6766108E+03  0.7818608E-02  0.9758088E-01
         21   -1    0    0  501  502  0.00000000000E+00  0.00000000000E+00  0.73986420916E+03  0.73986420916E+03  0.00000000000E+00 0.  1.
         21   -1    0    0  502  503 -0.00000000000E+00 -0.00000000000E+00 -0.63544338687E+03  0.63544338687E+03  0.00000000000E+00 0. -1.
    9000007    1    1    2  501    0  0.45749816489E+03  0.29748555975E+03 -0.59194866413E+02  0.67919530427E+03  0.40000000000E+03 0. -1.
   -9000007    1    1    2    0  503 -0.45749816489E+03 -0.29748555975E+03  0.16361568871E+03  0.69611229175E+03  0.40000000000E+03 0.  1.
<mgrwt>
<rscale>  2 0.67661084E+03</rscale>
<asrwt>0</asrwt>
<pdfrwt beam="1">  1       21 0.11382526E+00 0.67661084E+03</pdfrwt>
<pdfrwt beam="2">  1       21 0.97760521E-01 0.67661084E+03</pdfrwt>
<totfact> 0.39933202E+02</totfact>
</mgrwt>
</event>
<event>
 4    1  0.4821294E-002  0.4003586E+03  0.7818608E-02  0.1043656E+00
         21   -1    0    0  501  502  0.00000000000E+00  0.00000000000E+00  0.39770112439E+03  0.39770112439E+03  0.00000000000E+00 0.  1.
         21   -1    0    0  502  503 -0.00000000000E+00 -0.00000000000E+00 -0.40584831367E+03  0.40584831367E+03  0.00000000000E+00 0.  1.
    9000007    1    1    2  501    0 -0.12273399433E+02 -0.11676341100E+02 -0.37532113477E+02  0.40211395501E+03  0.40000000000E+03 0.  1.
   -9000007    1    1    2    0  503  0.12273399433E+02  0.11676341100E+02  0.29384924200E+02  0.40143548304E+03  0.40000000000E+03 0.  1.
<mgrwt>
<rscale>  2 0.40035856E+03</rscale>
<asrwt>0</asrwt>
<pdfrwt beam="1">  1       21 0.61184788E-01 0.40035856E+03</pdfrwt>
<pdfrwt beam="2">  1       21 0.62438202E-01 0.40035856E+03</pdfrwt>
<totfact> 0.52944917E+03</totfact>
</mgrwt>
</event>
<event>
 4    1  0.4821294E-002  0.4794989E+03  0.7818608E-02  0.1019273E+00
         21   -1    0    0  503  502  0.00000000000E+00  0.00000000000E+00  0.17393483321E+03  0.17393483321E+03  0.00000000000E+00 0.  1.
         21   -1    0    0  501  503 -0.00000000000E+00 -0.00000000000E+00 -0.13221670592E+04  0.13221670592E+04  0.00000000000E+00 0.  1.
    9000007    1    1    2  501    0  0.26066947360E+03  0.44391678855E+02 -0.56289883606E+03  0.73944188092E+03  0.40000000000E+03 0.  1.
   -9000007    1    1    2    0  502 -0.26066947360E+03 -0.44391678855E+02 -0.58533338992E+03  0.75666001148E+03  0.40000000000E+03 0.  1.
<mgrwt>
<rscale>  2 0.47949890E+03</rscale>
<asrwt>0</asrwt>
<pdfrwt beam="1">  1       21 0.26759205E-01 0.47949890E+03</pdfrwt>
<pdfrwt beam="2">  1       21 0.20341031E+00 0.47949890E+03</pdfrwt>
<totfact> 0.14070030E+03</totfact>
</mgrwt>
</event>
<event>
 4    1  0.4821294E-002  0.4337270E+03  0.7818608E-02  0.1032689E+00
         21   -1    0    0  501  502  0.00000000000E+00  0.00000000000E+00  0.54522739336E+03  0.54522739336E+03  0.00000000000E+00 0. -1.
         21   -1    0    0  502  503 -0.00000000000E+00 -0.00000000000E+00 -0.36913392351E+03  0.36913392351E+03  0.00000000000E+00 0. -1.
    9000007    1    1    2  501    0 -0.11976182390E+03  0.11737215036E+03  0.20487587043E+03  0.47968035027E+03  0.40000000000E+03 0.  1.
   -9000007    1    1    2    0  503  0.11976182390E+03 -0.11737215036E+03 -0.28782400586E+02  0.43468096661E+03  0.40000000000E+03 0.  1.
<mgrwt>
<rscale>  2 0.43372701E+03</rscale>
<asrwt>0</asrwt>
<pdfrwt beam="1">  1       21 0.83881138E-01 0.43372701E+03</pdfrwt>
<pdfrwt beam="2">  1       21 0.56789834E-01 0.43372701E+03</pdfrwt>
<totfact> 0.31548401E+03</totfact>
</mgrwt>
</event>
<event>
 4    1  0.4821294E-002  0.4102793E+03  0.7818608E-02  0.1040277E+00
         21   -1    0    0  503  502  0.00000000000E+00  0.00000000000E+00  0.52240864304E+03  0.52240864304E+03  0.00000000000E+00 0. -1.
         21   -1    0    0  501  503 -0.00000000000E+00 -0.00000000000E+00 -0.38330171498E+03  0.38330171498E+03  0.00000000000E+00 0. -1.
    9000007    1    1    2  501    0 -0.91122251649E+01 -0.90808103167E+02  0.25033492122E+03  0.48062117830E+03  0.40000000000E+03 0. -1.
   -9000007    1    1    2    0  502  0.91122251649E+01  0.90808103167E+02 -0.11122799316E+03  0.42508917972E+03  0.40000000000E+03 0. -1.
<mgrwt>
<rscale>  2 0.41027935E+03</rscale>
<asrwt>0</asrwt>
<pdfrwt beam="1">  1       21 0.80370560E-01 0.41027935E+03</pdfrwt>
<pdfrwt beam="2">  1       21 0.58969495E-01 0.41027935E+03</pdfrwt>
<totfact> 0.32378608E+03</totfact>
</mgrwt>
</event>
<event>
 4    1  0.4821294E-002  0.4809082E+03  0.7818608E-02  0.1018886E+00
         21   -1    0    0  503  502  0.00000000000E+00  0.00000000000E+00  0.24819265339E+03  0.24819265339E+03  0.00000000000E+00 0. -1.
         21   -1    0    0  501  503 -0.00000000000E+00 -0.00000000000E+00 -0.98434673410E+03  0.98434673410E+03  0.00000000000E+00 0. -1.
    9000007    1    1    2  501    0 -0.11167906977E+03 -0.24248813354E+03 -0.22572737398E+03  0.53124905355E+03  0.40000000000E+03 0. -1.
   -9000007    1    1    2    0  502  0.11167906977E+03  0.24248813354E+03 -0.51042670674E+03  0.70129033394E+03  0.40000000000E+03 0. -1.
<mgrwt>
<rscale>  2 0.48090821E+03</rscale>
<asrwt>0</asrwt>
<pdfrwt beam="1">  1       21 0.38183485E-01 0.48090821E+03</pdfrwt>
<pdfrwt beam="2">  1       21 0.15143796E+00 0.48090821E+03</pdfrwt>
<totfact> 0.16239888E+03</totfact>
</mgrwt>
</event>
<event>
 4    1  0.4821294E-002  0.4154215E+03  0.7818608E-02  0.1038567E+00
         21   -1    0    0  503  502  0.00000000000E+00  0.00000000000E+00  0.18379370036E+04  0.18379370036E+04  0.00000000000E+00 0.  1.
         21   -1    0    0  501  503 -0.00000000000E+00 -0.00000000000E+00 -0.10421736538E+03  0.10421736538E+03  0.00000000000E+00 0. -1.
    9000007    1    1    2  501    0 -0.10158283434E+03 -0.47496791748E+02  0.56126125198E+03  0.69827588418E+03  0.40000000000E+03 0. -1.
   -9000007    1    1    2    0  502  0.10158283434E+03  0.47496791748E+02  0.11724583863E+04  0.12438784848E+04  0.40000000000E+03 0.  1.
<mgrwt>
<rscale>  2 0.41542149E+03</rscale>
<asrwt>0</asrwt>
<pdfrwt beam="1">  1       21 0.28275951E+00 0.41542149E+03</pdfrwt>
<pdfrwt beam="2">  1       21 0.16033442E-01 0.41542149E+03</pdfrwt>
<totfact> 0.12373838E+03</totfact>
</mgrwt>
</event>
<event>
 4    1  0.4821294E-002  0.4622312E+03  0.7818608E-02  0.1024136E+00
         21   -1    0    0  503  502  0.00000000000E+00  0.00000000000E+00  0.24541560102E+03  0.24541560102E+03  0.00000000000E+00 0. -1.
         21   -1    0    0  501  503 -0.00000000000E+00 -0.00000000000E+00 -0.22896034940E+04  0.22896034940E+04  0.00000000000E+00 0. -1.
    9000007    1    1    2  501    0 -0.20074438814E+03  0.11558270903E+03 -0.20199400123E+04  0.20721523413E+04  0.40000000000E+03 0. -1.
   -9000007    1    1    2    0  502  0.20074438814E+03 -0.11558270903E+03 -0.24247880620E+02  0.46286675373E+03  0.40000000000E+03 0. -1.
<mgrwt>
<rscale>  2 0.46223119E+03</rscale>
<asrwt>0</asrwt>
<pdfrwt beam="1">  1       21 0.37756246E-01 0.46223119E+03</pdfrwt>
<pdfrwt beam="2">  1       21 0.35224670E+00 0.46223119E+03</pdfrwt>
<totfact> 0.86370416E+01</totfact>
</mgrwt>
</event>
<event>
 4    1  0.4821294E-002  0.7736167E+03  0.7818608E-02  0.9599011E-01
         21   -1    0    0  501  502  0.00000000000E+00  0.00000000000E+00  0.22821291921E+04  0.22821291921E+04  0.00000000000E+00 0. -1.
         21   -1    0    0  502  503 -0.00000000000E+00 -0.00000000000E+00 -0.71356993555E+03  0.71356993555E+03  0.00000000000E+00 0.  1.
    9000007    1    1    2  501    0  0.32102619919E+02 -0.66140174301E+03  0.19755033997E+04  0.21215787815E+04  0.40000000000E+03 0. -1.
   -9000007    1    1    2    0  503 -0.32102619919E+02  0.66140174301E+03 -0.40694414317E+03  0.87412034613E+03  0.40000000000E+03 0.  1.
<mgrwt>
<rscale>  2 0.77361673E+03</rscale>
<asrwt>0</asrwt>
<pdfrwt beam="1">  1       21 0.35109679E+00 0.77361673E+03</pdfrwt>
<pdfrwt beam="2">  1       21 0.10977999E+00 0.77361673E+03</pdfrwt>
<totfact> 0.67405221E+00</totfact>
</mgrwt>
</event>
<event>
 4    1  0.4821294E-002  0.5263798E+03  0.7818608E-02  0.1007114E+00
         21   -1    0    0  503  502  0.00000000000E+00  0.00000000000E+00  0.12971418992E+03  0.12971418992E+03  0.00000000000E+00 0.  1.
         21   -1    0    0  501  503 -0.00000000000E+00 -0.00000000000E+00 -0.23307017936E+04  0.23307017936E+04  0.00000000000E+00 0.  1.
    9000007    1    1    2  501    0 -0.25291061350E+03 -0.23046029811E+03 -0.14560159801E+04  0.15482436055E+04  0.40000000000E+03 0.  1.
   -9000007    1    1    2    0  502  0.25291061350E+03  0.23046029811E+03 -0.74497162357E+03  0.91217237809E+03  0.40000000000E+03 0.  1.
<mgrwt>
<rscale>  2 0.52637983E+03</rscale>
<asrwt>0</asrwt>
<pdfrwt beam="1">  1       21 0.19956029E-01 0.52637983E+03</pdfrwt>
<pdfrwt beam="2">  1       21 0.35856951E+00 0.52637983E+03</pdfrwt>
<totfact> 0.26716935E+02</totfact>
</mgrwt>
</event>
<event>
 4    1  0.4821294E-002  0.4269555E+03  0.7818608E-02  0.1034826E+00
         21   -1    0    0  503  502  0.00000000000E+00  0.00000000000E+00  0.56969604657E+03  0.56969604657E+03  0.00000000000E+00 0. -1.
         21   -1    0    0  501  503 -0.00000000000E+00 -0.00000000000E+00 -0.39957930252E+03  0.39957930252E+03  0.00000000000E+00 0. -1.
    9000007    1    1    2  501    0 -0.13688306703E+03 -0.59615643575E+02 -0.13124931260E+03  0.44667368521E+03  0.40000000000E+03 0. -1.
   -9000007    1    1    2    0  502  0.13688306703E+03  0.59615643575E+02  0.30136605664E+03  0.52260166388E+03  0.40000000000E+03 0. -1.
<mgrwt>
<rscale>  2 0.42695550E+03</rscale>
<asrwt>0</asrwt>
<pdfrwt beam="1">  1       21 0.87645546E-01 0.42695550E+03</pdfrwt>
<pdfrwt beam="2">  1       21 0.61473738E-01 0.42695550E+03</pdfrwt>
<totfact> 0.24003114E+03</totfact>
</mgrwt>
</event>
<event>
 4    1  0.4821294E-002  0.4836375E+03  0.7818608E-02  0.1018140E+00
         21   -1    0    0  501  502  0.00000000000E+00  0.00000000000E+00  0.96389880484E+03  0.96389880484E+03  0.00000000000E+00 0. -1.
         21   -1    0    0  502  503 -0.00000000000E+00 -0.00000000000E+00 -0.32023611785E+03  0.32023611785E+03  0.00000000000E+00 0. -1.
    9000007    1    1    2  501    0  0.26887507192E+03 -0.40142622223E+02  0.63783594553E+03  0.80046232130E+03  0.40000000000E+03 0.  1.
   -9000007    1    1    2    0  503 -0.26887507192E+03  0.40142622223E+02  0.58267414583E+01  0.48367260139E+03  0.40000000000E+03 0.  1.
<mgrwt>
<rscale>  2 0.48363750E+03</rscale>
<asrwt>0</asrwt>
<pdfrwt beam="1">  1       21 0.14829212E+00 0.48363750E+03</pdfrwt>
<pdfrwt beam="2">  1       21 0.49267096E-01 0.48363750E+03</pdfrwt>
<totfact> 0.10090198E+03</totfact>
</mgrwt>
</event>
<event>
 4    1  0.4821294E-002  0.4984231E+03  0.7818608E-02  0.1014191E+00
         21   -1    0    0  501  502  0.00000000000E+00  0.00000000000E+00  0.45031590402E+03  0.45031590402E+03  0.00000000000E+00 0.  1.
         21   -1    0    0  502  503 -0.00000000000E+00 -0.00000000000E+00 -0.94698913259E+03  0.94698913259E+03  0.00000000000E+00 0. -1.
    9000007    1    1    2  501    0  0.29296913699E+03 -0.50938364122E+02  0.20306470294E+03  0.53820154751E+03  0.40000000000E+03 0.  1.
   -9000007    1    1    2    0  503 -0.29296913699E+03  0.50938364122E+02 -0.69973793151E+03  0.85910348909E+03  0.40000000000E+03 0. -1.
<mgrwt>
<rscale>  2 0.49842315E+03</rscale>
<asrwt>0</asrwt>
<pdfrwt beam="1">  1       21 0.69279371E-01 0.49842315E+03</pdfrwt>
<pdfrwt beam="2">  1       21 0.14569063E+00 0.49842315E+03</pdfrwt>
<totfact> 0.49927359E+02</totfact>
</mgrwt>
</event>
<event>
 4    1  0.4821294E-002  0.4660502E+03  0.7818608E-02  0.1023041E+00
         21   -1    0    0  503  502  0.00000000000E+00  0.00000000000E+00  0.12472144938E+03  0.12472144938E+03  0.00000000000E+00 0.  1.
         21   -1    0    0  501  503 -0.00000000000E+00 -0.00000000000E+00 -0.18082930454E+04  0.18082930454E+04  0.00000000000E+00 0.  1.
    9000007    1    1    2  501    0 -0.22516184828E+03 -0.80653209967E+02 -0.10275346158E+04  0.11282863931E+04  0.40000000000E+03 0.  1.
   -9000007    1    1    2    0  502  0.22516184828E+03  0.80653209967E+02 -0.65603698023E+03  0.80472810168E+03  0.40000000000E+03 0.  1.
<mgrwt>
<rscale>  2 0.46605021E+03</rscale>
<asrwt>0</asrwt>
<pdfrwt beam="1">  1       21 0.19187915E-01 0.46605021E+03</pdfrwt>
<pdfrwt beam="2">  1       21 0.27819893E+00 0.46605021E+03</pdfrwt>
<totfact> 0.91567557E+02</totfact>
</mgrwt>
</event>
<event>
 4    1  0.4821294E-002  0.5299023E+03  0.7818608E-02  0.1006256E+00
         21   -1    0    0  503  502  0.00000000000E+00  0.00000000000E+00  0.86735180376E+03  0.86735180376E+03  0.00000000000E+00 0.  1.
         21   -1    0    0  501  503 -0.00000000000E+00 -0.00000000000E+00 -0.32373998747E+03  0.32373998747E+03  0.00000000000E+00 0.  1.
    9000007    1    1    2  501    0  0.32565143259E+03 -0.12143945745E+03  0.27209180213E+03  0.59567637704E+03  0.40000000000E+03 0.  1.
   -9000007    1    1    2    0  502 -0.32565143259E+03  0.12143945745E+03  0.27152001416E+03  0.59541541420E+03  0.40000000000E+03 0.  1.
<mgrwt>
<rscale>  2 0.52990225E+03</rscale>
<asrwt>0</asrwt>
<pdfrwt beam="1">  1       21 0.13343874E+00 0.52990225E+03</pdfrwt>
<pdfrwt beam="2">  1       21 0.49806152E-01 0.52990225E+03</pdfrwt>
<totfact> 0.12850985E+03</totfact>
</mgrwt>
</event>
<event>
 4    1  0.4821294E-002  0.5548923E+03  0.7818608E-02  0.1000368E+00
         21   -1    0    0  503  502  0.00000000000E+00  0.00000000000E+00  0.19591894045E+04  0.19591894045E+04  0.00000000000E+00 0.  1.
         21   -1    0    0  501  503 -0.00000000000E+00 -0.00000000000E+00 -0.26103370428E+03  0.26103370428E+03  0.00000000000E+00 0.  1.
    9000007    1    1    2  501    0  0.38214305693E+03  0.43268560726E+02  0.14879754806E+03  0.57449647050E+03  0.40000000000E+03 0.  1.
   -9000007    1    1    2    0  502 -0.38214305693E+03 -0.43268560726E+02  0.15493581521E+04  0.16457266383E+04  0.40000000000E+03 0.  1.
<mgrwt>
<rscale>  2 0.55489232E+03</rscale>
<asrwt>0</asrwt>
<pdfrwt beam="1">  1       21 0.30141375E+00 0.55489232E+03</pdfrwt>
<pdfrwt beam="2">  1       21 0.40159033E-01 0.55489232E+03</pdfrwt>
<totfact> 0.14716234E+02</totfact>
</mgrwt>
</event>
<event>
 4    1  0.4821294E-002  0.4396180E+03  0.7818608E-02  0.1030864E+00
         21   -1    0    0  503  502  0.00000000000E+00  0.00000000000E+00  0.30464626059E+03  0.30464626059E+03  0.00000000000E+00 0. -1.
         21   -1    0    0  501  503 -0.00000000000E+00 -0.00000000000E+00 -0.93896542680E+03  0.93896542680E+03  0.00000000000E+00 0.  1.
    9000007    1    1    2  501    0 -0.18199151545E+03  0.11960987074E+02 -0.67130265478E+03  0.80244079609E+03  0.40000000000E+03 0.  1.
   -9000007    1    1    2    0  502  0.18199151545E+03 -0.11960987074E+02  0.36983488574E+02  0.44117089131E+03  0.40000000000E+03 0. -1.
<mgrwt>
<rscale>  2 0.43961799E+03</rscale>
<asrwt>0</asrwt>
<pdfrwt beam="1">  1       21 0.46868655E-01 0.43961799E+03</pdfrwt>
<pdfrwt beam="2">  1       21 0.14445622E+00 0.43961799E+03</pdfrwt>
<totfact> 0.12256685E+03</totfact>
</mgrwt>
</event>
<event>
 4    1  0.4821294E-002  0.5472735E+03  0.7818608E-02  0.1002127E+00
         21   -1    0    0  501  502  0.00000000000E+00  0.00000000000E+00  0.61588307963E+03  0.61588307963E+03  0.00000000000E+00 0. -1.
         21   -1    0    0  502  503 -0.00000000000E+00 -0.00000000000E+00 -0.54889989401E+03  0.54889989401E+03  0.00000000000E+00 0.  1.
    9000007    1    1    2  501    0  0.29896604719E+03  0.22389184152E+03  0.23015834842E+03  0.59370120382E+03  0.40000000000E+03 0. -1.
   -9000007    1    1    2    0  503 -0.29896604719E+03 -0.22389184152E+03 -0.16317516280E+03  0.57108176982E+03  0.40000000000E+03 0.  1.
<mgrwt>
<rscale>  2 0.54727347E+03</rscale>
<asrwt>0</asrwt>
<pdfrwt beam="1">  1       21 0.94751242E-01 0.54727347E+03</pdfrwt>
<pdfrwt beam="2">  1       21 0.84446138E-01 0.54727347E+03</pdfrwt>
<totfact> 0.92887247E+02</totfact>
</mgrwt>
</event>
<event>
 4    1  0.4821294E-002  0.6067234E+03  0.7818608E-02  0.9891554E-01
         21   -1    0    0  501  502  0.00000000000E+00  0.00000000000E+00  0.11677831216E+04  0.11677831216E+04  0.00000000000E+00 0.  1.
         21   -1    0    0  502  503 -0.00000000000E+00 -0.00000000000E+00 -0.32153749752E+03  0.32153749752E+03  0.00000000000E+00 0.  1.
    9000007    1    1    2  501    0  0.21388388614E+03 -0.40294790391E+03  0.31877687687E+03  0.68536999295E+03  0.40000000000E+03 0.  1.
   -9000007    1    1    2    0  503 -0.21388388614E+03  0.40294790391E+03  0.52746874717E+03  0.80395062613E+03  0.40000000000E+03 0.  1.
<mgrwt>
<rscale>  2 0.60672344E+03</rscale>
<asrwt>0</asrwt>
<pdfrwt beam="1">  1       21 0.17965894E+00 0.60672344E+03</pdfrwt>
<pdfrwt beam="2">  1       21 0.49467308E-01 0.60672344E+03</pdfrwt>
<totfact> 0.55593632E+02</totfact>
</mgrwt>
</event>
<event>
 4    1  0.4821294E-002  0.4007740E+03  0.7818608E-02  0.1043512E+00
         21   -1    0    0  503  502  0.00000000000E+00  0.00000000000E+00  0.21871406320E+03  0.21871406320E+03  0.00000000000E+00 0.  1.
         21   -1    0    0  501  503 -0.00000000000E+00 -0.00000000000E+00 -0.73580733752E+03  0.73580733752E+03  0.00000000000E+00 0.  1.
    9000007    1    1    2  501    0 -0.12664741777E+02 -0.21433681391E+02 -0.27954782408E+03  0.48863768206E+03  0.40000000000E+03 0. -1.
   -9000007    1    1    2    0  502  0.12664741777E+02  0.21433681391E+02 -0.23754545025E+03  0.46588371866E+03  0.40000000000E+03 0. -1.
<mgrwt>
<rscale>  2 0.40077400E+03</rscale>
<asrwt>0</asrwt>
<pdfrwt beam="1">  1       21 0.33648318E-01 0.40077400E+03</pdfrwt>
<pdfrwt beam="2">  1       21 0.11320113E+00 0.40077400E+03</pdfrwt>
<totfact> 0.46174021E+03</totfact>
</mgrwt>
</event>
<event>
 4    1  0.4821294E-002  0.4315564E+03  0.7818608E-02  0.1033369E+00
         21   -1    0    0  503  502  0.00000000000E+00  0.00000000000E+00  0.65749578030E+03  0.65749578030E+03  0.00000000000E+00 0.  1.
         21   -1    0    0  501  503 -0.00000000000E+00 -0.00000000000E+00 -0.28354691424E+03  0.28354691424E+03  0.00000000000E+00 0.  1.
    9000007    1    1    2  501    0 -0.97447657673E+02 -0.12940205167E+03  0.20199389972E+03  0.47648974017E+03  0.40000000000E+03 0. -1.
   -9000007    1    1    2    0  502  0.97447657673E+02  0.12940205167E+03  0.17195496634E+03  0.46455295437E+03  0.40000000000E+03 0. -1.
<mgrwt>
<rscale>  2 0.43155641E+03</rscale>
<asrwt>0</asrwt>
<pdfrwt beam="1">  1       21 0.10115320E+00 0.43155641E+03</pdfrwt>
<pdfrwt beam="2">  1       21 0.43622602E-01 0.43155641E+03</pdfrwt>
<totfact> 0.35417749E+03</totfact>
</mgrwt>
</event>
<event>
 4    1  0.4821294E-002  0.4867491E+03  0.7818608E-02  0.1017297E+00
         21   -1    0    0  503  502  0.00000000000E+00  0.00000000000E+00  0.11900540470E+04  0.11900540470E+04  0.00000000000E+00 0. -1.
         21   -1    0    0  501  503 -0.00000000000E+00 -0.00000000000E+00 -0.22524966809E+03  0.22524966809E+03  0.00000000000E+00 0.  1.
    9000007    1    1    2  501    0  0.27249298984E+03  0.51693939139E+02  0.24123080432E+03  0.54324671541E+03  0.40000000000E+03 0.  1.
   -9000007    1    1    2    0  502 -0.27249298984E+03 -0.51693939139E+02  0.72357357459E+03  0.87205699969E+03  0.40000000000E+03 0. -1.
<mgrwt>
<rscale>  2 0.48674911E+03</rscale>
<asrwt>0</asrwt>
<pdfrwt beam="1">  1       21 0.18308524E+00 0.48674911E+03</pdfrwt>
<pdfrwt beam="2">  1       21 0.34653796E-01 0.48674911E+03</pdfrwt>
<totfact> 0.11521893E+03</totfact>
</mgrwt>
</event>
<event>
 4    1  0.4821294E-002  0.5148576E+03  0.7818608E-02  0.1009972E+00
         21   -1    0    0  501  502  0.00000000000E+00  0.00000000000E+00  0.11040106272E+04  0.11040106272E+04  0.00000000000E+00 0. -1.
         21   -1    0    0  502  503 -0.00000000000E+00 -0.00000000000E+00 -0.38393790582E+03  0.38393790582E+03  0.00000000000E+00 0.  1.
    9000007    1    1    2  501    0  0.20903497832E+03  0.24775531601E+03 -0.95325606236E+02  0.52360795446E+03  0.40000000000E+03 0.  1.
   -9000007    1    1    2    0  503 -0.20903497832E+03 -0.24775531601E+03  0.81539832763E+03  0.96434057856E+03  0.40000000000E+03 0. -1.
<mgrwt>
<rscale>  2 0.51485757E+03</rscale>
<asrwt>0</asrwt>
<pdfrwt beam="1">  1       21 0.16984779E+00 0.51485757E+03</pdfrwt>
<pdfrwt beam="2">  1       21 0.59067370E-01 0.51485757E+03</pdfrwt>
<totfact> 0.46157092E+02</totfact>
</mgrwt>
</event>
<event>
 4    1  0.4821294E-002  0.4172651E+03  0.7818608E-02  0.1037960E+00
         21   -1    0    0  503  502  0.00000000000E+00  0.00000000000E+00  0.56206723721E+03  0.56206723721E+03  0.00000000000E+00 0. -1.
         21   -1    0    0  501  503 -0.00000000000E+00 -0.00000000000E+00 -0.30987580176E+03  0.30987580176E+03  0.00000000000E+00 0. -1.
    9000007    1    1    2  501    0 -0.83234034791E+00 -0.11878337132E+03  0.11794654398E+03  0.43361454004E+03  0.40000000000E+03 0. -1.
   -9000007    1    1    2    0  502  0.83234034791E+00  0.11878337132E+03  0.13424489147E+03  0.43832849894E+03  0.40000000000E+03 0. -1.
<mgrwt>
<rscale>  2 0.41726512E+03</rscale>
<asrwt>0</asrwt>
<pdfrwt beam="1">  1       21 0.86471883E-01 0.41726512E+03</pdfrwt>
<pdfrwt beam="2">  1       21 0.47673200E-01 0.41726512E+03</pdfrwt>
<totfact> 0.42969303E+03</totfact>
</mgrwt>
</event>
<event>
 4    1  0.4821294E-002  0.4610895E+03  0.7818608E-02  0.1024466E+00
         21   -1    0    0  501  502  0.00000000000E+00  0.00000000000E+00  0.37240418838E+03  0.37240418838E+03  0.00000000000E+00 0. -1.
         21   -1    0    0  502  503 -0.00000000000E+00 -0.00000000000E+00 -0.83152342276E+03  0.83152342276E+03  0.00000000000E+00 0. -1.
    9000007    1    1    2  501    0  0.17624872781E+02 -0.22867646045E+03  0.10745156638E+03  0.47344418765E+03  0.40000000000E+03 0. -1.
   -9000007    1    1    2    0  503 -0.17624872781E+02  0.22867646045E+03 -0.56657080076E+03  0.73048342348E+03  0.40000000000E+03 0. -1.
<mgrwt>
<rscale>  2 0.46108954E+03</rscale>
<asrwt>0</asrwt>
<pdfrwt beam="1">  1       21 0.57292952E-01 0.46108954E+03</pdfrwt>
<pdfrwt beam="2">  1       21 0.12792668E+00 0.46108954E+03</pdfrwt>
<totfact> 0.10884983E+03</totfact>
</mgrwt>
</event>
<event>
 4    1  0.4821294E-002  0.4996160E+03  0.7818608E-02  0.1013879E+00
         21   -1    0    0  503  502  0.00000000000E+00  0.00000000000E+00  0.62563894904E+03  0.62563894904E+03  0.00000000000E+00 0. -1.
         21   -1    0    0  501  503 -0.00000000000E+00 -0.00000000000E+00 -0.86770775138E+03  0.86770775138E+03  0.00000000000E+00 0. -1.
    9000007    1    1    2  501    0 -0.20763628018E+03  0.21564632719E+03 -0.66982312909E+03  0.83563101160E+03  0.40000000000E+03 0. -1.
   -9000007    1    1    2    0  502  0.20763628018E+03 -0.21564632719E+03  0.42775432674E+03  0.65771568882E+03  0.40000000000E+03 0. -1.
<mgrwt>
<rscale>  2 0.49961602E+03</rscale>
<asrwt>0</asrwt>
<pdfrwt beam="1">  1       21 0.96252146E-01 0.49961602E+03</pdfrwt>
<pdfrwt beam="2">  1       21 0.13349350E+00 0.49961602E+03</pdfrwt>
<totfact> 0.29296362E+02</totfact>
</mgrwt>
</event>
<event>
 4    1  0.4821294E-002  0.4222837E+03  0.7818608E-02  0.1036326E+00
         21   -1    0    0  501  502  0.00000000000E+00  0.00000000000E+00  0.62502376056E+03  0.62502376056E+03  0.00000000000E+00 0.  1.
         21   -1    0    0  502  503 -0.00000000000E+00 -0.00000000000E+00 -0.45915598723E+03  0.45915598723E+03  0.00000000000E+00 0.  1.
    9000007    1    1    2  501    0 -0.92806947911E+02  0.98541225532E+02  0.41649664303E+03  0.59312136732E+03  0.40000000000E+03 0.  1.
   -9000007    1    1    2    0  503  0.92806947911E+02 -0.98541225532E+02 -0.25062886970E+03  0.49105838048E+03  0.40000000000E+03 0.  1.
<mgrwt>
<rscale>  2 0.42228368E+03</rscale>
<asrwt>0</asrwt>
<pdfrwt beam="1">  1       21 0.96157501E-01 0.42228368E+03</pdfrwt>
<pdfrwt beam="2">  1       21 0.70639383E-01 0.42228368E+03</pdfrwt>
<totfact> 0.14163731E+03</totfact>
</mgrwt>
</event>
<event>
 4    1  0.4821294E-002  0.5337859E+03  0.7818608E-02  0.1005318E+00
         21   -1    0    0  501  502  0.00000000000E+00  0.00000000000E+00  0.14672390316E+04  0.14672390316E+04  0.00000000000E+00 0.  1.
         21   -1    0    0  502  503 -0.00000000000E+00 -0.00000000000E+00 -0.29704922361E+03  0.29704922361E+03  0.00000000000E+00 0. -1.
    9000007    1    1    2  501    0 -0.26249636002E+03  0.23669186125E+03  0.11041827652E+04  0.12264366903E+04  0.40000000000E+03 0.  1.
   -9000007    1    1    2    0  503  0.26249636002E+03 -0.23669186125E+03  0.66007042738E+02  0.53785156493E+03  0.40000000000E+03 0. -1.
<mgrwt>
<rscale>  2 0.53378589E+03</rscale>
<asrwt>0</asrwt>
<pdfrwt beam="1">  1       21 0.22572908E+00 0.53378589E+03</pdfrwt>
<pdfrwt beam="2">  1       21 0.45699881E-01 0.53378589E+03</pdfrwt>
<totfact> 0.33197665E+02</totfact>
</mgrwt>
</event>
<event>
 4    1  0.4821294E-002  0.6046659E+03  0.7818608E-02  0.9895773E-01
         21   -1    0    0  503  502  0.00000000000E+00  0.00000000000E+00  0.10693889118E+04  0.10693889118E+04  0.00000000000E+00 0.  1.
         21   -1    0    0  501  503 -0.00000000000E+00 -0.00000000000E+00 -0.39474053669E+03  0.39474053669E+03  0.00000000000E+00 0.  1.
    9000007    1    1    2  501    0  0.35343312731E+03  0.28408784628E+03  0.69475525587E+02  0.60864417235E+03  0.40000000000E+03 0. -1.
   -9000007    1    1    2    0  502 -0.35343312731E+03 -0.28408784628E+03  0.60517284952E+03  0.85548527613E+03  0.40000000000E+03 0. -1.
<mgrwt>
<rscale>  2 0.60466592E+03</rscale>
<asrwt>0</asrwt>
<pdfrwt beam="1">  1       21 0.16452137E+00 0.60466592E+03</pdfrwt>
<pdfrwt beam="2">  1       21 0.60729314E-01 0.60466592E+03</pdfrwt>
<totfact> 0.45969552E+02</totfact>
</mgrwt>
</event>
<event>
 4    1  0.4821294E-002  0.4745971E+03  0.7818608E-02  0.1020631E+00
         21   -1    0    0  503  502  0.00000000000E+00  0.00000000000E+00  0.10293119101E+04  0.10293119101E+04  0.00000000000E+00 0.  1.
         21   -1    0    0  501  503 -0.00000000000E+00 -0.00000000000E+00 -0.57803874765E+03  0.57803874765E+03  0.00000000000E+00 0. -1.
    9000007    1    1    2  501    0  0.20628476651E+03  0.15062866811E+03 -0.40790736213E+03  0.62580413600E+03  0.40000000000E+03 0. -1.
   -9000007    1    1    2    0  502 -0.20628476651E+03 -0.15062866811E+03  0.85918052454E+03  0.98154652172E+03  0.40000000000E+03 0.  1.
<mgrwt>
<rscale>  2 0.47459709E+03</rscale>
<asrwt>0</asrwt>
<pdfrwt beam="1">  1       21 0.15835568E+00 0.47459709E+03</pdfrwt>
<pdfrwt beam="2">  1       21 0.88929038E-01 0.47459709E+03</pdfrwt>
<totfact> 0.22580931E+02</totfact>
</mgrwt>
</event>
<event>
 4    1  0.4821294E-002  0.4185511E+03  0.7818608E-02  0.1037539E+00
         21   -1    0    0  501  502  0.00000000000E+00  0.00000000000E+00  0.68008200533E+03  0.68008200533E+03  0.00000000000E+00 0. -1.
         21   -1    0    0  502  503 -0.00000000000E+00 -0.00000000000E+00 -0.28909249908E+03  0.28909249908E+03  0.00000000000E+00 0.  1.
    9000007    1    1    2  501    0  0.10402624086E+03  0.66057579108E+02  0.35544993585E+03  0.54911721831E+03  0.40000000000E+03 0. -1.
   -9000007    1    1    2    0  503 -0.10402624086E+03 -0.66057579108E+02  0.35539570399E+02  0.42005728610E+03  0.40000000000E+03 0.  1.
<mgrwt>
<rscale>  2 0.41855115E+03</rscale>
<asrwt>0</asrwt>
<pdfrwt beam="1">  1       21 0.10462800E+00 0.41855115E+03</pdfrwt>
<pdfrwt beam="2">  1       21 0.44475769E-01 0.41855115E+03</pdfrwt>
<totfact> 0.31468863E+03</totfact>
</mgrwt>
</event>
<event>
 4    1  0.4821294E-002  0.6926621E+03  0.7818608E-02  0.9729864E-01
         21   -1    0    0  503  502  0.00000000000E+00  0.00000000000E+00  0.97176900674E+03  0.97176900674E+03  0.00000000000E+00 0. -1.
         21   -1    0    0  501  503 -0.00000000000E+00 -0.00000000000E+00 -0.68939312272E+03  0.68939312272E+03  0.00000000000E+00 0. -1.
    9000007    1    1    2  501    0  0.34962531665E+03 -0.44445798647E+03 -0.30131413868E+03  0.75536148561E+03  0.40000000000E+03 0. -1.
   -9000007    1    1    2    0  502 -0.34962531665E+03  0.44445798647E+03  0.58369002269E+03  0.90580064384E+03  0.40000000000E+03 0. -1.
<mgrwt>
<rscale>  2 0.69266208E+03</rscale>
<asrwt>0</asrwt>
<pdfrwt beam="1">  1       21 0.14950292E+00 0.69266208E+03</pdfrwt>
<pdfrwt beam="2">  1       21 0.10606048E+00 0.69266208E+03</pdfrwt>
<totfact> 0.15837413E+02</totfact>
</mgrwt>
</event>
<event>
 4    1  0.4821294E-002  0.4369407E+03  0.7818608E-02  0.1031690E+00
         21   -1    0    0  503  502  0.00000000000E+00  0.00000000000E+00  0.81021515036E+03  0.81021515036E+03  0.00000000000E+00 0.  1.
         21   -1    0    0  501  503 -0.00000000000E+00 -0.00000000000E+00 -0.36173999564E+03  0.36173999564E+03  0.00000000000E+00 0. -1.
    9000007    1    1    2  501    0  0.80217737107E+02 -0.15646811908E+03 -0.12173716134E+03  0.45358251078E+03  0.40000000000E+03 0. -1.
   -9000007    1    1    2    0  502 -0.80217737107E+02  0.15646811908E+03  0.57021231606E+03  0.71837263521E+03  0.40000000000E+03 0.  1.
<mgrwt>
<rscale>  2 0.43694068E+03</rscale>
<asrwt>0</asrwt>
<pdfrwt beam="1">  1       21 0.12464848E+00 0.43694068E+03</pdfrwt>
<pdfrwt beam="2">  1       21 0.55652307E-01 0.43694068E+03</pdfrwt>
<totfact> 0.12519031E+03</totfact>
</mgrwt>
</event>
<event>
 4    1  0.4821294E-002  0.5498429E+03  0.7818608E-02  0.1001530E+00
         21   -1    0    0  501  502  0.00000000000E+00  0.00000000000E+00  0.15137632474E+03  0.15137632474E+03  0.00000000000E+00 0.  1.
         21   -1    0    0  502  503 -0.00000000000E+00 -0.00000000000E+00 -0.24876586796E+04  0.24876586796E+04  0.00000000000E+00 0. -1.
    9000007    1    1    2  501    0 -0.32672228905E+03  0.18862592242E+03 -0.58223826136E+03  0.80082993560E+03  0.40000000000E+03 0.  1.
   -9000007    1    1    2    0  503  0.32672228905E+03 -0.18862592242E+03 -0.17540440935E+04  0.18382050687E+04  0.40000000000E+03 0. -1.
<mgrwt>
<rscale>  2 0.54984288E+03</rscale>
<asrwt>0</asrwt>
<pdfrwt beam="1">  1       21 0.23288666E-01 0.54984288E+03</pdfrwt>
<pdfrwt beam="2">  1       21 0.38271671E+00 0.54984288E+03</pdfrwt>
<totfact> 0.13822756E+02</totfact>
</mgrwt>
</event>
<event>
 4    1  0.4821294E-002  0.4501040E+03  0.7818608E-02  0.1027691E+00
         21   -1    0    0  501  502  0.00000000000E+00  0.00000000000E+00  0.36197816164E+03  0.36197816164E+03  0.00000000000E+00 0.  1.
         21   -1    0    0  502  503 -0.00000000000E+00 -0.00000000000E+00 -0.56511278384E+03  0.56511278384E+03  0.00000000000E+00 0.  1.
    9000007    1    1    2  501    0 -0.19495158421E+03  0.67731333965E+02 -0.56136928396E+02  0.45359123505E+03  0.40000000000E+03 0.  1.
   -9000007    1    1    2    0  503  0.19495158421E+03 -0.67731333965E+02 -0.14699769381E+03  0.47349971043E+03  0.40000000000E+03 0.  1.
<mgrwt>
<rscale>  2 0.45010405E+03</rscale>
<asrwt>0</asrwt>
<pdfrwt beam="1">  1       21 0.55688948E-01 0.45010405E+03</pdfrwt>
<pdfrwt beam="2">  1       21 0.86940428E-01 0.45010405E+03</pdfrwt>
<totfact> 0.30088873E+03</totfact>
</mgrwt>
</event>
<event>
 4    1  0.4821294E-002  0.4295631E+03  0.7818608E-02  0.1033998E+00
         21   -1    0    0  503  502  0.00000000000E+00  0.00000000000E+00  0.32691571036E+03  0.32691571036E+03  0.00000000000E+00 0. -1.
         21   -1    0    0  501  503 -0.00000000000E+00 -0.00000000000E+00 -0.63002176513E+03  0.63002176513E+03  0.00000000000E+00 0. -1.
    9000007    1    1    2  501    0 -0.63383789560E+02  0.14320238474E+03  0.28181025843E+01  0.42957230995E+03  0.40000000000E+03 0. -1.
   -9000007    1    1    2    0  502  0.63383789560E+02 -0.14320238474E+03 -0.30592415735E+03  0.52736516554E+03  0.40000000000E+03 0. -1.
<mgrwt>
<rscale>  2 0.42956307E+03</rscale>
<asrwt>0</asrwt>
<pdfrwt beam="1">  1       21 0.50294725E-01 0.42956307E+03</pdfrwt>
<pdfrwt beam="2">  1       21 0.96926424E-01 0.42956307E+03</pdfrwt>
<totfact> 0.29126423E+03</totfact>
</mgrwt>
</event>
<event>
 4    1  0.4821294E-002  0.4911712E+03  0.7818608E-02  0.1016109E+00
         21   -1    0    0  503  502  0.00000000000E+00  0.00000000000E+00  0.80653531521E+03  0.80653531521E+03  0.00000000000E+00 0.  1.
         21   -1    0    0  501  503 -0.00000000000E+00 -0.00000000000E+00 -0.47100296206E+03  0.47100296206E+03  0.00000000000E+00 0. -1.
    9000007    1    1    2  501    0 -0.13120412274E+03  0.25305060237E+03 -0.21811287840E+03  0.53742195425E+03  0.40000000000E+03 0. -1.
   -9000007    1    1    2    0  502  0.13120412274E+03 -0.25305060237E+03  0.55364523156E+03  0.74011632302E+03  0.40000000000E+03 0.  1.
<mgrwt>
<rscale>  2 0.49117118E+03</rscale>
<asrwt>0</asrwt>
<pdfrwt beam="1">  1       21 0.12408236E+00 0.49117118E+03</pdfrwt>
<pdfrwt beam="2">  1       21 0.72461994E-01 0.49117118E+03</pdfrwt>
<totfact> 0.69029176E+02</totfact>
</mgrwt>
</event>
<event>
 4    1  0.4821294E-002  0.5369418E+03  0.7818608E-02  0.1004562E+00
         21   -1    0    0  501  502  0.00000000000E+00  0.00000000000E+00  0.18636802638E+04  0.18636802638E+04  0.00000000000E+00 0.  1.
         21   -1    0    0  502  503 -0.00000000000E+00 -0.00000000000E+00 -0.15831666717E+03  0.15831666717E+03  0.00000000000E+00 0.  1.
    9000007    1    1    2  501    0 -0.89538672452E+02 -0.34682755025E+03  0.10055427154E+04  0.11399222236E+04  0.40000000000E+03 0.  1.
   -9000007    1    1    2    0  503  0.89538672452E+02  0.34682755025E+03  0.69982088118E+03  0.88207470728E+03  0.40000000000E+03 0.  1.
<mgrwt>
<rscale>  2 0.53694183E+03</rscale>
<asrwt>0</asrwt>
<pdfrwt beam="1">  1       21 0.28672002E+00 0.53694183E+03</pdfrwt>
<pdfrwt beam="2">  1       21 0.24356412E-01 0.53694183E+03</pdfrwt>
<totfact> 0.49686832E+02</totfact>
</mgrwt>
</event>
<event>
 4    1  0.4821294E-002  0.4123700E+03  0.7818608E-02  0.1039579E+00
         21   -1    0    0  501  502  0.00000000000E+00  0.00000000000E+00  0.97976583323E+03  0.97976583323E+03  0.00000000000E+00 0.  1.
         21   -1    0    0  502  503 -0.00000000000E+00 -0.00000000000E+00 -0.22518396460E+03  0.22518396460E+03  0.00000000000E+00 0.  1.
    9000007    1    1    2  501    0  0.64705790181E+02  0.76565104403E+02  0.66575522252E+03  0.78312136403E+03  0.40000000000E+03 0. -1.
   -9000007    1    1    2    0  503 -0.64705790181E+02 -0.76565104403E+02  0.88826646108E+02  0.42182843379E+03  0.40000000000E+03 0. -1.
<mgrwt>
<rscale>  2 0.41237005E+03</rscale>
<asrwt>0</asrwt>
<pdfrwt beam="1">  1       21 0.15073320E+00 0.41237005E+03</pdfrwt>
<pdfrwt beam="2">  1       21 0.34643687E-01 0.41237005E+03</pdfrwt>
<totfact> 0.20608389E+03</totfact>
</mgrwt>
</event>
<event>
 4    1  0.4821294E-002  0.5242154E+03  0.7818608E-02  0.1007645E+00
         21   -1    0    0  501  502  0.00000000000E+00  0.00000000000E+00  0.46479030244E+03  0.46479030244E+03  0.00000000000E+00 0. -1.
         21   -1    0    0  502  503 -0.00000000000E+00 -0.00000000000E+00 -0.59135970730E+03  0.59135970730E+03  0.00000000000E+00 0.  1.
    9000007    1    1    2  501    0 -0.24010499906E+03 -0.23906354693E+03 -0.70853714572E+02  0.52898207806E+03  0.40000000000E+03 0. -1.
   -9000007    1    1    2    0  503  0.24010499906E+03  0.23906354693E+03 -0.55715690292E+02  0.52716793168E+03  0.40000000000E+03 0.  1.
<mgrwt>
<rscale>  2 0.52421540E+03</rscale>
<asrwt>0</asrwt>
<pdfrwt beam="1">  1       21 0.71506201E-01 0.52421540E+03</pdfrwt>
<pdfrwt beam="2">  1       21 0.90978416E-01 0.52421540E+03</pdfrwt>
<totfact> 0.15142623E+03</totfact>
</mgrwt>
</event>
<event>
 4    1  0.4821294E-002  0.6832204E+03  0.7818608E-02  0.9746366E-01
         21   -1    0    0  503  502  0.00000000000E+00  0.00000000000E+00  0.28068405328E+03  0.28068405328E+03  0.00000000000E+00 0.  1.
         21   -1    0    0  501  503 -0.00000000000E+00 -0.00000000000E+00 -0.16685014698E+04  0.16685014698E+04  0.00000000000E+00 0. -1.
    9000007    1    1    2  501    0  0.51502973840E+03 -0.20380014565E+03 -0.74964360289E+03  0.10142759300E+04  0.40000000000E+03 0.  1.
   -9000007    1    1    2    0  502 -0.51502973840E+03  0.20380014565E+03 -0.63817381359E+03  0.93490959304E+03  0.40000000000E+03 0. -1.
<mgrwt>
<rscale>  2 0.68322041E+03</rscale>
<asrwt>0</asrwt>
<pdfrwt beam="1">  1       21 0.43182162E-01 0.68322041E+03</pdfrwt>
<pdfrwt beam="2">  1       21 0.25669253E+00 0.68322041E+03</pdfrwt>
<totfact> 0.22510618E+02</totfact>
</mgrwt>
</event>
<event>
 4    1  0.4821294E-002  0.4505724E+03  0.7818608E-02  0.1027551E+00
         21   -1    0    0  503  502  0.00000000000E+00  0.00000000000E+00  0.70279963249E+03  0.70279963249E+03  0.00000000000E+00 0. -1.
         21   -1    0    0  501  503 -0.00000000000E+00 -0.00000000000E+00 -0.41717803673E+03  0.41717803673E+03  0.00000000000E+00 0.  1.
    9000007    1    1    2  501    0 -0.18469969824E+03 -0.94347723069E+02 -0.16775313530E+03  0.48078746425E+03  0.40000000000E+03 0.  1.
   -9000007    1    1    2    0  502  0.18469969824E+03  0.94347723069E+02  0.45337473106E+03  0.63919020498E+03  0.40000000000E+03 0. -1.
<mgrwt>
<rscale>  2 0.45057238E+03</rscale>
<asrwt>0</asrwt>
<pdfrwt beam="1">  1       21 0.10812302E+00 0.45057238E+03</pdfrwt>
<pdfrwt beam="2">  1       21 0.64181237E-01 0.45057238E+03</pdfrwt>
<totfact> 0.13028879E+03</totfact>
</mgrwt>
</event>
<event>
 4    1  0.4821294E-002  0.6269731E+03  0.7818608E-02  0.9850973E-01
         21   -1    0    0  501  502  0.00000000000E+00  0.00000000000E+00  0.34848625298E+03  0.34848625298E+03  0.00000000000E+00 0. -1.
         21   -1    0    0  502  503 -0.00000000000E+00 -0.00000000000E+00 -0.11281237461E+04  0.11281237461E+04  0.00000000000E+00 0. -1.
    9000007    1    1    2  501    0  0.30687776389E+03 -0.37272145072E+03 -0.39730083767E+03  0.74225547988E+03  0.40000000000E+03 0. -1.
   -9000007    1    1    2    0  503 -0.30687776389E+03  0.37272145072E+03 -0.38233665549E+03  0.73435451925E+03  0.40000000000E+03 0. -1.
<mgrwt>
<rscale>  2 0.62697308E+03</rscale>
<asrwt>0</asrwt>
<pdfrwt beam="1">  1       21 0.53613270E-01 0.62697308E+03</pdfrwt>
<pdfrwt beam="2">  1       21 0.17355750E+00 0.62697308E+03</pdfrwt>
<totfact> 0.51397324E+02</totfact>
</mgrwt>
</event>
<event>
 4    1  0.4821294E-002  0.4033245E+03  0.7818608E-02  0.1042635E+00
         21   -1    0    0  503  502  0.00000000000E+00  0.00000000000E+00  0.42377606035E+03  0.42377606035E+03  0.00000000000E+00 0.  1.
         21   -1    0    0  501  503 -0.00000000000E+00 -0.00000000000E+00 -0.39549907148E+03  0.39549907148E+03  0.00000000000E+00 0.  1.
    9000007    1    1    2  501    0 -0.43296420084E+02 -0.28214700647E+02  0.84411332892E+02  0.41206300786E+03  0.40000000000E+03 0.  1.
   -9000007    1    1    2    0  502  0.43296420084E+02  0.28214700647E+02 -0.56134344025E+02  0.40721212396E+03  0.40000000000E+03 0.  1.
<mgrwt>
<rscale>  2 0.40332450E+03</rscale>
<asrwt>0</asrwt>
<pdfrwt beam="1">  1       21 0.65196317E-01 0.40332450E+03</pdfrwt>
<pdfrwt beam="2">  1       21 0.60846011E-01 0.40332450E+03</pdfrwt>
<totfact> 0.48658188E+03</totfact>
</mgrwt>
</event>
<event>
 4    1  0.4821294E-002  0.4575764E+03  0.7818608E-02  0.1025486E+00
         21   -1    0    0  503  502  0.00000000000E+00  0.00000000000E+00  0.39837182895E+03  0.39837182895E+03  0.00000000000E+00 0. -1.
         21   -1    0    0  501  503 -0.00000000000E+00 -0.00000000000E+00 -0.56542412988E+03  0.56542412988E+03  0.00000000000E+00 0. -1.
    9000007    1    1    2  501    0  0.93203383796E+02 -0.20171588133E+03  0.44397679902E+02  0.45972526743E+03  0.40000000000E+03 0. -1.
   -9000007    1    1    2    0  502 -0.93203383796E+02  0.20171588133E+03 -0.21144998084E+03  0.50407069140E+03  0.40000000000E+03 0. -1.
<mgrwt>
<rscale>  2 0.45757641E+03</rscale>
<asrwt>0</asrwt>
<pdfrwt beam="1">  1       21 0.61287974E-01 0.45757641E+03</pdfrwt>
<pdfrwt beam="2">  1       21 0.86988327E-01 0.45757641E+03</pdfrwt>
<totfact> 0.24316351E+03</totfact>
</mgrwt>
</event>
<event>
 4    1  0.4821294E-002  0.5910477E+03  0.7818608E-02  0.9924155E-01
         21   -1    0    0  503  502  0.00000000000E+00  0.00000000000E+00  0.94526492431E+03  0.94526492431E+03  0.00000000000E+00 0.  1.
         21   -1    0    0  501  503 -0.00000000000E+00 -0.00000000000E+00 -0.37241914845E+03  0.37241914845E+03  0.00000000000E+00 0. -1.
    9000007    1    1    2  501    0 -0.22393534397E+03 -0.37308217350E+03  0.22875126843E+03  0.63377006025E+03  0.40000000000E+03 0. -1.
   -9000007    1    1    2    0  502  0.22393534397E+03  0.37308217350E+03  0.34409450744E+03  0.68391401251E+03  0.40000000000E+03 0.  1.
<mgrwt>
<rscale>  2 0.59104767E+03</rscale>
<asrwt>0</asrwt>
<pdfrwt beam="1">  1       21 0.14542537E+00 0.59104767E+03</pdfrwt>
<pdfrwt beam="2">  1       21 0.57295254E-01 0.59104767E+03</pdfrwt>
<totfact> 0.73925437E+02</totfact>
</mgrwt>
</event>
<event>
 4    1  0.4821294E-002  0.4016757E+03  0.7818608E-02  0.1043201E+00
         21   -1    0    0  503  502  0.00000000000E+00  0.00000000000E+00  0.40609092922E+03  0.40609092922E+03  0.00000000000E+00 0.  1.
         21   -1    0    0  501  503 -0.00000000000E+00 -0.00000000000E+00 -0.40603483928E+03  0.40603483928E+03  0.00000000000E+00 0.  1.
    9000007    1    1    2  501    0 -0.20739003803E+02  0.30219877642E+02 -0.59501090004E+02  0.40605877283E+03  0.40000000000E+03 0. -1.
   -9000007    1    1    2    0  502  0.20739003803E+02 -0.30219877642E+02  0.59557179940E+02  0.40606699566E+03  0.40000000000E+03 0. -1.
<mgrwt>
<rscale>  2 0.40167567E+03</rscale>
<asrwt>0</asrwt>
<pdfrwt beam="1">  1       21 0.62475528E-01 0.40167567E+03</pdfrwt>
<pdfrwt beam="2">  1       21 0.62466898E-01 0.40167567E+03</pdfrwt>
<totfact> 0.50495234E+03</totfact>
</mgrwt>
</event>
<event>
 4    1  0.4821294E-002  0.6591479E+03  0.7818608E-02  0.9789764E-01
         21   -1    0    0  501  502  0.00000000000E+00  0.00000000000E+00  0.23285459619E+04  0.23285459619E+04  0.00000000000E+00 0. -1.
         21   -1    0    0  502  503 -0.00000000000E+00 -0.00000000000E+00 -0.23006574242E+03  0.23006574242E+03  0.00000000000E+00 0.  1.
    9000007    1    1    2  501    0 -0.37878306478E+03  0.36193823857E+03  0.49309517950E+03  0.82317601687E+03  0.40000000000E+03 0.  1.
   -9000007    1    1    2    0  503  0.37878306478E+03 -0.36193823857E+03  0.16053850400E+04  0.17354356875E+04  0.40000000000E+03 0. -1.
<mgrwt>
<rscale>  2 0.65914786E+03</rscale>
<asrwt>0</asrwt>
<pdfrwt beam="1">  1       21 0.35823782E+00 0.65914786E+03</pdfrwt>
<pdfrwt beam="2">  1       21 0.35394731E-01 0.65914786E+03</pdfrwt>
<totfact> 0.81253772E+01</totfact>
</mgrwt>
</event>
<event>
 4    1  0.4821294E-002  0.4198515E+03  0.7818608E-02  0.1037115E+00
         21   -1    0    0  501  502  0.00000000000E+00  0.00000000000E+00  0.11981760693E+03  0.11981760693E+03  0.00000000000E+00 0.  1.
         21   -1    0    0  502  503 -0.00000000000E+00 -0.00000000000E+00 -0.16026546109E+04  0.16026546109E+04  0.00000000000E+00 0.  1.
    9000007    1    1    2  501    0 -0.51852735951E+02  0.11656158745E+03 -0.49476059281E+03  0.64889394672E+03  0.40000000000E+03 0.  1.
   -9000007    1    1    2    0  503  0.51852735951E+02 -0.11656158745E+03 -0.98807641117E+03  0.10735782711E+04  0.40000000000E+03 0.  1.
<mgrwt>
<rscale>  2 0.41985153E+03</rscale>
<asrwt>0</asrwt>
<pdfrwt beam="1">  1       21 0.18433477E-01 0.41985153E+03</pdfrwt>
<pdfrwt beam="2">  1       21 0.24656226E+00 0.41985153E+03</pdfrwt>
<totfact> 0.15749580E+03</totfact>
</mgrwt>
</event>
<event>
 4    1  0.4821294E-002  0.5965824E+03  0.7818608E-02  0.9912522E-01
         21   -1    0    0  503  502  0.00000000000E+00  0.00000000000E+00  0.85665042912E+03  0.85665042912E+03  0.00000000000E+00 0.  1.
         21   -1    0    0  501  503 -0.00000000000E+00 -0.00000000000E+00 -0.41548370005E+03  0.41548370005E+03  0.00000000000E+00 0. -1.
    9000007    1    1    2  501    0  0.42315018214E+03 -0.12982482145E+03  0.22453379216E+03  0.63743704374E+03  0.40000000000E+03 0. -1.
   -9000007    1    1    2    0  502 -0.42315018214E+03  0.12982482145E+03  0.21663293691E+03  0.63469708543E+03  0.40000000000E+03 0.  1.
<mgrwt>
<rscale>  2 0.59658240E+03</rscale>
<asrwt>0</asrwt>
<pdfrwt beam="1">  1       21 0.13179237E+00 0.59658240E+03</pdfrwt>
<pdfrwt beam="2">  1       21 0.63920570E-01 0.59658240E+03</pdfrwt>
<totfact> 0.75374263E+02</totfact>
</mgrwt>
</event>
<event>
 4    1  0.4821294E-002  0.4429593E+03  0.7818608E-02  0.1029843E+00
         21   -1    0    0  501  502  0.00000000000E+00  0.00000000000E+00  0.69445599594E+03  0.69445599594E+03  0.00000000000E+00 0. -1.
         21   -1    0    0  502  503 -0.00000000000E+00 -0.00000000000E+00 -0.33891288070E+03  0.33891288070E+03  0.00000000000E+00 0. -1.
    9000007    1    1    2  501    0 -0.17422825094E+03 -0.76533828469E+02  0.38849321517E+03  0.58918578442E+03  0.40000000000E+03 0. -1.
   -9000007    1    1    2    0  503  0.17422825094E+03  0.76533828469E+02 -0.32950099937E+02  0.44418309222E+03  0.40000000000E+03 0. -1.
<mgrwt>
<rscale>  2 0.44295926E+03</rscale>
<asrwt>0</asrwt>
<pdfrwt beam="1">  1       21 0.10683938E+00 0.44295926E+03</pdfrwt>
<pdfrwt beam="2">  1       21 0.52140444E-01 0.44295926E+03</pdfrwt>
<totfact> 0.21160484E+03</totfact>
</mgrwt>
</event>
<event>
 4    1  0.4821294E-002  0.5410886E+03  0.7818608E-02  0.1003578E+00
         21   -1    0    0  503  502  0.00000000000E+00  0.00000000000E+00  0.15873411872E+04  0.15873411872E+04  0.00000000000E+00 0. -1.
         21   -1    0    0  501  503 -0.00000000000E+00 -0.00000000000E+00 -0.32010133595E+03  0.32010133595E+03  0.00000000000E+00 0.  1.
    9000007    1    1    2  501    0  0.33176192987E+03 -0.15070126174E+03  0.12753662024E+02  0.54123886067E+03  0.40000000000E+03 0.  1.
   -9000007    1    1    2    0  502 -0.33176192987E+03  0.15070126174E+03  0.12544861892E+04  0.13662036625E+04  0.40000000000E+03 0. -1.
<mgrwt>
<rscale>  2 0.54108858E+03</rscale>
<asrwt>0</asrwt>
<pdfrwt beam="1">  1       21 0.24420633E+00 0.54108858E+03</pdfrwt>
<pdfrwt beam="2">  1       21 0.49246360E-01 0.54108858E+03</pdfrwt>
<totfact> 0.21601666E+02</totfact>
</mgrwt>
</event>
<event>
 4    1  0.4821294E-002  0.4345484E+03  0.7818608E-02  0.1032433E+00
         21   -1    0    0  503  502  0.00000000000E+00  0.00000000000E+00  0.64103386993E+02  0.64103386993E+02  0.00000000000E+00 0. -1.
         21   -1    0    0  501  503 -0.00000000000E+00 -0.00000000000E+00 -0.29661394771E+04  0.29661394771E+04  0.00000000000E+00 0. -1.
    9000007    1    1    2  501    0 -0.14480519568E+03  0.88677893166E+02 -0.13253877523E+04  0.13948064408E+04  0.40000000000E+03 0. -1.
   -9000007    1    1    2    0  502  0.14480519568E+03 -0.88677893166E+02 -0.15766483379E+04  0.16354364233E+04  0.40000000000E+03 0. -1.
<mgrwt>
<rscale>  2 0.43454840E+03</rscale>
<asrwt>0</asrwt>
<pdfrwt beam="1">  1       21 0.98620582E-02 0.43454840E+03</pdfrwt>
<pdfrwt beam="2">  1       21 0.45632921E+00 0.43454840E+03</pdfrwt>
<totfact> 0.24152781E+02</totfact>
</mgrwt>
</event>
<event>
 4    1  0.4821294E-002  0.4567656E+03  0.7818608E-02  0.1025723E+00
         21   -1    0    0  503  502  0.00000000000E+00  0.00000000000E+00  0.61348311870E+03  0.61348311870E+03  0.00000000000E+00 0.  1.
         21   -1    0    0  501  503 -0.00000000000E+00 -0.00000000000E+00 -0.48606204682E+03  0.48606204682E+03  0.00000000000E+00 0.  1.
    9000007    1    1    2  501    0  0.30294460324E+02  0.21844244290E+03 -0.23757845998E+03  0.51485763064E+03  0.40000000000E+03 0.  1.
   -9000007    1    1    2    0  502 -0.30294460324E+02 -0.21844244290E+03  0.36499953185E+03  0.58468753488E+03  0.40000000000E+03 0.  1.
<mgrwt>
<rscale>  2 0.45676565E+03</rscale>
<asrwt>0</asrwt>
<pdfrwt beam="1">  1       21 0.94382018E-01 0.45676565E+03</pdfrwt>
<pdfrwt beam="2">  1       21 0.74778776E-01 0.45676565E+03</pdfrwt>
<totfact> 0.12836490E+03</totfact>
</mgrwt>
</event>
<event>
 4    1  0.4821294E-002  0.5301484E+03  0.7818608E-02  0.1006196E+00
         21   -1    0    0  501  502  0.00000000000E+00  0.00000000000E+00  0.11330533208E+04  0.11330533208E+04  0.00000000000E+00 0.  1.
         21   -1    0    0  502  503 -0.00000000000E+00 -0.00000000000E+00 -0.25597630780E+03  0.25597630780E+03  0.00000000000E+00 0.  1.
    9000007    1    1    2  501    0 -0.17208288563E+03 -0.30239833745E+03  0.56072829836E+03  0.77166929355E+03  0.40000000000E+03 0.  1.
   -9000007    1    1    2    0  503  0.17208288563E+03  0.30239833745E+03  0.31634871460E+03  0.61736033502E+03  0.40000000000E+03 0.  1.
<mgrwt>
<rscale>  2 0.53014835E+03</rscale>
<asrwt>0</asrwt>
<pdfrwt beam="1">  1       21 0.17431589E+00 0.53014835E+03</pdfrwt>
<pdfrwt beam="2">  1       21 0.39380971E-01 0.53014835E+03</pdfrwt>
<totfact> 0.10074466E+03</totfact>
</mgrwt>
</event>
<event>
 4    1  0.4821294E-002  0.4478900E+03  0.7818608E-02  0.1028353E+00
         21   -1    0    0  501  502  0.00000000000E+00  0.00000000000E+00  0.80389543596E+03  0.80389543596E+03  0.00000000000E+00 0. -1.
         21   -1    0    0  502  503 -0.00000000000E+00 -0.00000000000E+00 -0.82023624695E+03  0.82023624695E+03  0.00000000000E+00 0. -1.
    9000007    1    1    2  501    0 -0.91478297363E+02 -0.17954713302E+03  0.66919594284E+03  0.80525068257E+03  0.40000000000E+03 0. -1.
   -9000007    1    1    2    0  503  0.91478297363E+02  0.17954713302E+03 -0.68553675383E+03  0.81888100034E+03  0.40000000000E+03 0. -1.
<mgrwt>
<rscale>  2 0.44789000E+03</rscale>
<asrwt>0</asrwt>
<pdfrwt beam="1">  1       21 0.12367622E+00 0.44789000E+03</pdfrwt>
<pdfrwt beam="2">  1       21 0.12619019E+00 0.44789000E+03</pdfrwt>
<totfact> 0.18645620E+02</totfact>
</mgrwt>
</event>
<event>
 4    1  0.4821294E-002  0.4473667E+03  0.7818608E-02  0.1028510E+00
         21   -1    0    0  501  502  0.00000000000E+00  0.00000000000E+00  0.82124825697E+03  0.82124825697E+03  0.00000000000E+00 0.  1.
         21   -1    0    0  502  503 -0.00000000000E+00 -0.00000000000E+00 -0.34467156021E+03  0.34467156021E+03  0.00000000000E+00 0.  1.
    9000007    1    1    2  501    0 -0.19953525013E+03  0.17961992535E+02  0.55381697915E+03  0.71193412309E+03  0.40000000000E+03 0.  1.
   -9000007    1    1    2    0  503  0.19953525013E+03 -0.17961992535E+02 -0.77240282389E+02  0.45398569410E+03  0.40000000000E+03 0.  1.
<mgrwt>
<rscale>  2 0.44736668E+03</rscale>
<asrwt>0</asrwt>
<pdfrwt beam="1">  1       21 0.12634589E+00 0.44736668E+03</pdfrwt>
<pdfrwt beam="2">  1       21 0.53026394E-01 0.44736668E+03</pdfrwt>
<totfact> 0.13359610E+03</totfact>
</mgrwt>
</event>
<event>
 4    1  0.4821294E-002  0.4050882E+03  0.7818608E-02  0.1042032E+00
         21   -1    0    0  501  502  0.00000000000E+00  0.00000000000E+00  0.21051407176E+04  0.21051407176E+04  0.00000000000E+00 0. -1.
         21   -1    0    0  502  503 -0.00000000000E+00 -0.00000000000E+00 -0.10505811454E+03  0.10505811454E+03  0.00000000000E+00 0. -1.
    9000007    1    1    2  501    0  0.27069914043E+02 -0.57997000464E+02  0.15613909949E+04  0.16130834669E+04  0.40000000000E+03 0. -1.
   -9000007    1    1    2    0  503 -0.27069914043E+02  0.57997000464E+02  0.43869160819E+03  0.59711536524E+03  0.40000000000E+03 0. -1.
<mgrwt>
<rscale>  2 0.40508818E+03</rscale>
<asrwt>0</asrwt>
<pdfrwt beam="1">  1       21 0.32386777E+00 0.40508818E+03</pdfrwt>
<pdfrwt beam="2">  1       21 0.16162788E-01 0.40508818E+03</pdfrwt>
<totfact> 0.69539149E+02</totfact>
</mgrwt>
</event>
<event>
 4    1  0.4821294E-002  0.4782439E+03  0.7818608E-02  0.1019619E+00
         21   -1    0    0  503  502  0.00000000000E+00  0.00000000000E+00  0.11631141886E+04  0.11631141886E+04  0.00000000000E+00 0. -1.
         21   -1    0    0  501  503 -0.00000000000E+00 -0.00000000000E+00 -0.21715170121E+03  0.21715170121E+03  0.00000000000E+00 0. -1.
    9000007    1    1    2  501    0 -0.10783804802E+03  0.23893131458E+03  0.68507590639E+03  0.83549160092E+03  0.40000000000E+03 0. -1.
   -9000007    1    1    2    0  502  0.10783804802E+03 -0.23893131458E+03  0.26088658100E+03  0.54477428889E+03  0.40000000000E+03 0. -1.
<mgrwt>
<rscale>  2 0.47824389E+03</rscale>
<asrwt>0</asrwt>
<pdfrwt beam="1">  1       21 0.17894064E+00 0.47824389E+03</pdfrwt>
<pdfrwt beam="2">  1       21 0.33407954E-01 0.47824389E+03</pdfrwt>
<totfact> 0.13315742E+03</totfact>
</mgrwt>
</event>
<event>
 4    1  0.4821294E-002  0.7143865E+03  0.7818608E-02  0.9692941E-01
         21   -1    0    0  501  502  0.00000000000E+00  0.00000000000E+00  0.12918031732E+04  0.12918031732E+04  0.00000000000E+00 0.  1.
         21   -1    0    0  502  503 -0.00000000000E+00 -0.00000000000E+00 -0.42021512571E+03  0.42021512571E+03  0.00000000000E+00 0. -1.
    9000007    1    1    2  501    0 -0.51494453510E+03 -0.29185641903E+03  0.64520549212E+03  0.96262047070E+03  0.40000000000E+03 0. -1.
   -9000007    1    1    2    0  503  0.51494453510E+03  0.29185641903E+03  0.22638255539E+03  0.74939782822E+03  0.40000000000E+03 0.  1.
<mgrwt>
<rscale>  2 0.71438648E+03</rscale>
<asrwt>0</asrwt>
<pdfrwt beam="1">  1       21 0.19873895E+00 0.71438648E+03</pdfrwt>
<pdfrwt beam="2">  1       21 0.64648481E-01 0.71438648E+03</pdfrwt>
<totfact> 0.21994421E+02</totfact>
</mgrwt>
</event>
<event>
 4    1  0.4821294E-002  0.5390644E+03  0.7818608E-02  0.1004057E+00
         21   -1    0    0  501  502  0.00000000000E+00  0.00000000000E+00  0.21565827858E+03  0.21565827858E+03  0.00000000000E+00 0. -1.
         21   -1    0    0  502  503 -0.00000000000E+00 -0.00000000000E+00 -0.24812949568E+04  0.24812949568E+04  0.00000000000E+00 0.  1.
    9000007    1    1    2  501    0  0.24032351020E+03 -0.26987976111E+03 -0.22127037364E+03  0.58271009367E+03  0.40000000000E+03 0. -1.
   -9000007    1    1    2    0  503 -0.24032351020E+03  0.26987976111E+03 -0.20443663045E+04  0.21142431417E+04  0.40000000000E+03 0.  1.
<mgrwt>
<rscale>  2 0.53906444E+03</rscale>
<asrwt>0</asrwt>
<pdfrwt beam="1">  1       21 0.33178198E-01 0.53906444E+03</pdfrwt>
<pdfrwt beam="2">  1       21 0.38173767E+00 0.53906444E+03</pdfrwt>
<totfact> 0.70059741E+01</totfact>
</mgrwt>
</event>
<event>
 4    1  0.4821294E-002  0.4167893E+03  0.7818608E-02  0.1038116E+00
         21   -1    0    0  503  502  0.00000000000E+00  0.00000000000E+00  0.43938571523E+03  0.43938571523E+03  0.00000000000E+00 0. -1.
         21   -1    0    0  501  503 -0.00000000000E+00 -0.00000000000E+00 -0.14412930640E+04  0.14412930640E+04  0.00000000000E+00 0. -1.
    9000007    1    1    2  501    0 -0.77106654259E+02  0.88135612873E+02 -0.13020070823E+04  0.13670902548E+04  0.40000000000E+03 0. -1.
   -9000007    1    1    2    0  502  0.77106654259E+02 -0.88135612873E+02  0.30009973352E+03  0.51358852445E+03  0.40000000000E+03 0. -1.
<mgrwt>
<rscale>  2 0.41678930E+03</rscale>
<asrwt>0</asrwt>
<pdfrwt beam="1">  1       21 0.67597803E-01 0.41678930E+03</pdfrwt>
<pdfrwt beam="2">  1       21 0.22173739E+00 0.41678930E+03</pdfrwt>
<totfact> 0.16007284E+02</totfact>
</mgrwt>
</event>
<event>
 4    1  0.4821294E-002  0.5740910E+03  0.7818608E-02  0.9960666E-01
         21   -1    0    0  501  502  0.00000000000E+00  0.00000000000E+00  0.63304007938E+03  0.63304007938E+03  0.00000000000E+00 0.  1.
         21   -1    0    0  502  503 -0.00000000000E+00 -0.00000000000E+00 -0.52094317575E+03  0.52094317575E+03  0.00000000000E+00 0.  1.
    9000007    1    1    2  501    0  0.41179523264E+03 -0.22808684960E+01  0.70164885327E+02  0.57836288532E+03  0.40000000000E+03 0.  1.
   -9000007    1    1    2    0  503 -0.41179523264E+03  0.22808684960E+01  0.41932018303E+02  0.57562036981E+03  0.40000000000E+03 0.  1.
<mgrwt>
<rscale>  2 0.57409103E+03</rscale>
<asrwt>0</asrwt>
<pdfrwt beam="1">  1       21 0.97390782E-01 0.57409103E+03</pdfrwt>
<pdfrwt beam="2">  1       21 0.80145104E-01 0.57409103E+03</pdfrwt>
<totfact> 0.97347884E+02</totfact>
</mgrwt>
</event>
<event>
 4    1  0.4821294E-002  0.7616031E+03  0.7818608E-02  0.9617321E-01
         21   -1    0    0  501  502  0.00000000000E+00  0.00000000000E+00  0.14837638876E+04  0.14837638876E+04  0.00000000000E+00 0. -1.
         21   -1    0    0  502  503 -0.00000000000E+00 -0.00000000000E+00 -0.64286242208E+03  0.64286242208E+03  0.00000000000E+00 0. -1.
    9000007    1    1    2  501    0 -0.48500113361E+03  0.42989906676E+03  0.10861056443E+04  0.13265235685E+04  0.40000000000E+03 0. -1.
   -9000007    1    1    2    0  503  0.48500113361E+03 -0.42989906676E+03 -0.24520417876E+03  0.80010274120E+03  0.40000000000E+03 0. -1.
<mgrwt>
<rscale>  2 0.76160312E+03</rscale>
<asrwt>0</asrwt>
<pdfrwt beam="1">  1       21 0.22827137E+00 0.76160312E+03</pdfrwt>
<pdfrwt beam="2">  1       21 0.98901911E-01 0.76160312E+03</pdfrwt>
<totfact> 0.51050367E+01</totfact>
</mgrwt>
</event>
<event>
 4    1  0.4821294E-002  0.4009153E+03  0.7818608E-02  0.1043463E+00
         21   -1    0    0  501  502  0.00000000000E+00  0.00000000000E+00  0.11862548344E+04  0.11862548344E+04  0.00000000000E+00 0.  1.
         21   -1    0    0  502  503 -0.00000000000E+00 -0.00000000000E+00 -0.16389273363E+03  0.16389273363E+03  0.00000000000E+00 0.  1.
    9000007    1    1    2  501    0  0.24065870603E+02  0.12407674721E+02  0.79217919364E+03  0.88785189720E+03  0.40000000000E+03 0.  1.
   -9000007    1    1    2    0  503 -0.24065870603E+02 -0.12407674721E+02  0.23018290709E+03  0.46229567080E+03  0.40000000000E+03 0.  1.
<mgrwt>
<rscale>  2 0.40091535E+03</rscale>
<asrwt>0</asrwt>
<pdfrwt beam="1">  1       21 0.18250074E+00 0.40091535E+03</pdfrwt>
<pdfrwt beam="2">  1       21 0.25214267E-01 0.40091535E+03</pdfrwt>
<totfact> 0.22679543E+03</totfact>
</mgrwt>
</event>
<event>
 4    1  0.4821294E-002  0.4790051E+03  0.7818608E-02  0.1019409E+00
         21   -1    0    0  501  502  0.00000000000E+00  0.00000000000E+00  0.11374391034E+04  0.11374391034E+04  0.00000000000E+00 0. -1.
         21   -1    0    0  502  503 -0.00000000000E+00 -0.00000000000E+00 -0.96373359667E+03  0.96373359667E+03  0.00000000000E+00 0.  1.
    9000007    1    1    2  501    0  0.10812672261E+03 -0.24032159457E+03  0.10210405793E+04  0.11278163510E+04  0.40000000000E+03 0. -1.
   -9000007    1    1    2    0  503 -0.10812672261E+03  0.24032159457E+03 -0.84733507261E+03  0.97335634905E+03  0.40000000000E+03 0.  1.
<mgrwt>
<rscale>  2 0.47900507E+03</rscale>
<asrwt>0</asrwt>
<pdfrwt beam="1">  1       21 0.17499063E+00 0.47900507E+03</pdfrwt>
<pdfrwt beam="2">  1       21 0.14826671E+00 0.47900507E+03</pdfrwt>
<totfact> 0.46747153E+01</totfact>
</mgrwt>
</event>
<event>
 4    1  0.4821294E-002  0.4719706E+03  0.7818608E-02  0.1021366E+00
         21   -1    0    0  501  502  0.00000000000E+00  0.00000000000E+00  0.50313544906E+03  0.50313544906E+03  0.00000000000E+00 0. -1.
         21   -1    0    0  502  503 -0.00000000000E+00 -0.00000000000E+00 -0.48010167239E+03  0.48010167239E+03  0.00000000000E+00 0.  1.
    9000007    1    1    2  501    0  0.97859893334E+02  0.23060716879E+03 -0.12563364420E+03  0.48840560764E+03  0.40000000000E+03 0.  1.
   -9000007    1    1    2    0  503 -0.97859893334E+02 -0.23060716879E+03  0.14866742088E+03  0.49483151380E+03  0.40000000000E+03 0. -1.
<mgrwt>
<rscale>  2 0.47197058E+03</rscale>
<asrwt>0</asrwt>
<pdfrwt beam="1">  1       21 0.77405454E-01 0.47197058E+03</pdfrwt>
<pdfrwt beam="2">  1       21 0.73861796E-01 0.47197058E+03</pdfrwt>
<totfact> 0.20898471E+03</totfact>
</mgrwt>
</event>
<event>
 4    1  0.4821294E-002  0.4522152E+03  0.7818608E-02  0.1027063E+00
         21   -1    0    0  503  502  0.00000000000E+00  0.00000000000E+00  0.16852115733E+03  0.16852115733E+03  0.00000000000E+00 0.  1.
         21   -1    0    0  501  503 -0.00000000000E+00 -0.00000000000E+00 -0.14701750403E+04  0.14701750403E+04  0.00000000000E+00 0.  1.
    9000007    1    1    2  501    0  0.20962327168E+03 -0.23594787460E+02 -0.99318831108E+03  0.10912935679E+04  0.40000000000E+03 0.  1.
   -9000007    1    1    2    0  502 -0.20962327168E+03  0.23594787460E+02 -0.30846557189E+03  0.54740262976E+03  0.40000000000E+03 0.  1.
<mgrwt>
<rscale>  2 0.45221525E+03</rscale>
<asrwt>0</asrwt>
<pdfrwt beam="1">  1       21 0.25926332E-01 0.45221525E+03</pdfrwt>
<pdfrwt beam="2">  1       21 0.22618078E+00 0.45221525E+03</pdfrwt>
<totfact> 0.10792617E+03</totfact>
</mgrwt>
</event>
<event>
 4    1  0.4821294E-002  0.5362978E+03  0.7818608E-02  0.1004716E+00
         21   -1    0    0  501  502  0.00000000000E+00  0.00000000000E+00  0.36799698619E+03  0.36799698619E+03  0.00000000000E+00 0.  1.
         21   -1    0    0  502  503 -0.00000000000E+00 -0.00000000000E+00 -0.87598852860E+03  0.87598852860E+03  0.00000000000E+00 0.  1.
    9000007    1    1    2  501    0  0.34707658423E+03 -0.84576750694E+02 -0.49791476152E+02  0.53860428255E+03  0.40000000000E+03 0.  1.
   -9000007    1    1    2    0  503 -0.34707658423E+03  0.84576750694E+02 -0.45820006626E+03  0.70538123224E+03  0.40000000000E+03 0.  1.
<mgrwt>
<rscale>  2 0.53629785E+03</rscale>
<asrwt>0</asrwt>
<pdfrwt beam="1">  1       21 0.56614921E-01 0.53629785E+03</pdfrwt>
<pdfrwt beam="2">  1       21 0.13476747E+00 0.53629785E+03</pdfrwt>
<totfact> 0.94788281E+02</totfact>
</mgrwt>
</event>
<event>
 4    1  0.4821294E-002  0.5629218E+03  0.7818608E-02  0.9985465E-01
         21   -1    0    0  501  502  0.00000000000E+00  0.00000000000E+00  0.74046240374E+03  0.74046240374E+03  0.00000000000E+00 0. -1.
         21   -1    0    0  502  503 -0.00000000000E+00 -0.00000000000E+00 -0.59204400242E+03  0.59204400242E+03  0.00000000000E+00 0.  1.
    9000007    1    1    2  501    0 -0.23927698498E+03  0.31563828961E+03  0.42496790488E+03  0.70532171779E+03  0.40000000000E+03 0. -1.
   -9000007    1    1    2    0  503  0.23927698498E+03 -0.31563828961E+03 -0.27654950357E+03  0.62718468837E+03  0.40000000000E+03 0.  1.
<mgrwt>
<rscale>  2 0.56292185E+03</rscale>
<asrwt>0</asrwt>
<pdfrwt beam="1">  1       21 0.11391729E+00 0.56292185E+03</pdfrwt>
<pdfrwt beam="2">  1       21 0.91083693E-01 0.56292185E+03</pdfrwt>
<totfact> 0.49045725E+02</totfact>
</mgrwt>
</event>
<event>
 4    1  0.4821294E-002  0.4312413E+03  0.7818608E-02  0.1033469E+00
         21   -1    0    0  503  502  0.00000000000E+00  0.00000000000E+00  0.33570462310E+03  0.33570462310E+03  0.00000000000E+00 0.  1.
         21   -1    0    0  501  503 -0.00000000000E+00 -0.00000000000E+00 -0.89607914451E+03  0.89607914451E+03  0.00000000000E+00 0.  1.
    9000007    1    1    2  501    0 -0.81765547330E+02  0.13886498942E+03 -0.66074092376E+03  0.78901689358E+03  0.40000000000E+03 0.  1.
   -9000007    1    1    2    0  502  0.81765547330E+02 -0.13886498942E+03  0.10036640235E+03  0.44276687403E+03  0.40000000000E+03 0.  1.
<mgrwt>
<rscale>  2 0.43124134E+03</rscale>
<asrwt>0</asrwt>
<pdfrwt beam="1">  1       21 0.51646865E-01 0.43124134E+03</pdfrwt>
<pdfrwt beam="2">  1       21 0.13785833E+00 0.43124134E+03</pdfrwt>
<totfact> 0.11340811E+03</totfact>
</mgrwt>
</event>
<event>
 4    1  0.4821294E-002  0.5735574E+03  0.7818608E-02  0.9961837E-01
         21   -1    0    0  503  502  0.00000000000E+00  0.00000000000E+00  0.48690994649E+03  0.48690994649E+03  0.00000000000E+00 0.  1.
         21   -1    0    0  501  503 -0.00000000000E+00 -0.00000000000E+00 -0.12413653250E+04  0.12413653250E+04  0.00000000000E+00 0.  1.
    9000007    1    1    2  501    0 -0.40706367649E+03 -0.57160222485E+02 -0.96059488267E+03  0.11187987560E+04  0.40000000000E+03 0.  1.
   -9000007    1    1    2    0  502  0.40706367649E+03  0.57160222485E+02  0.20613950418E+03  0.60947651549E+03  0.40000000000E+03 0.  1.
<mgrwt>
<rscale>  2 0.57355743E+03</rscale>
<asrwt>0</asrwt>
<pdfrwt beam="1">  1       21 0.74909224E-01 0.57355743E+03</pdfrwt>
<pdfrwt beam="2">  1       21 0.19097928E+00 0.57355743E+03</pdfrwt>
<totfact> 0.18730606E+02</totfact>
</mgrwt>
</event>
<event>
 4    1  0.4821294E-002  0.7255535E+03  0.7818608E-02  0.9674503E-01
         21   -1    0    0  501  502  0.00000000000E+00  0.00000000000E+00  0.73816555507E+03  0.73816555507E+03  0.00000000000E+00 0.  1.
         21   -1    0    0  502  503 -0.00000000000E+00 -0.00000000000E+00 -0.71784406510E+03  0.71784406510E+03  0.00000000000E+00 0. -1.
    9000007    1    1    2  501    0 -0.53183289143E+03 -0.28910481250E+03  0.68987778438E+02  0.72882585752E+03  0.40000000000E+03 0.  1.
   -9000007    1    1    2    0  503  0.53183289143E+03  0.28910481250E+03 -0.48666288474E+02  0.72718376265E+03  0.40000000000E+03 0. -1.
<mgrwt>
<rscale>  2 0.72555346E+03</rscale>
<asrwt>0</asrwt>
<pdfrwt beam="1">  1       21 0.11356393E+00 0.72555346E+03</pdfrwt>
<pdfrwt beam="2">  1       21 0.11043755E+00 0.72555346E+03</pdfrwt>
<totfact> 0.29253737E+02</totfact>
</mgrwt>
</event>
<event>
 4    1  0.4821294E-002  0.4505086E+03  0.7818608E-02  0.1027570E+00
         21   -1    0    0  503  502  0.00000000000E+00  0.00000000000E+00  0.67565529232E+03  0.67565529232E+03  0.00000000000E+00 0.  1.
         21   -1    0    0  501  503 -0.00000000000E+00 -0.00000000000E+00 -0.33660673839E+03  0.33660673839E+03  0.00000000000E+00 0.  1.
    9000007    1    1    2  501    0 -0.48720967276E+02  0.20145541706E+03  0.34988391337E+01  0.45052220765E+03  0.40000000000E+03 0.  1.
   -9000007    1    1    2    0  502  0.48720967276E+02 -0.20145541706E+03  0.33554971479E+03  0.56173982306E+03  0.40000000000E+03 0.  1.
<mgrwt>
<rscale>  2 0.45050862E+03</rscale>
<asrwt>0</asrwt>
<pdfrwt beam="1">  1       21 0.10394697E+00 0.45050862E+03</pdfrwt>
<pdfrwt beam="2">  1       21 0.51785652E-01 0.45050862E+03</pdfrwt>
<totfact> 0.22907699E+03</totfact>
</mgrwt>
</event>
<event>
 4    1  0.4821294E-002  0.4107278E+03  0.7818608E-02  0.1040127E+00
         21   -1    0    0  503  502  0.00000000000E+00  0.00000000000E+00  0.77546740406E+03  0.77546740406E+03  0.00000000000E+00 0. -1.
         21   -1    0    0  501  503 -0.00000000000E+00 -0.00000000000E+00 -0.21831684596E+03  0.21831684596E+03  0.00000000000E+00 0. -1.
    9000007    1    1    2  501    0 -0.82291576824E+02  0.43879404644E+02  0.24898711580E+03  0.48030395543E+03  0.40000000000E+03 0.  1.
   -9000007    1    1    2    0  502  0.82291576824E+02 -0.43879404644E+02  0.30816344230E+03  0.51348029460E+03  0.40000000000E+03 0.  1.
<mgrwt>
<rscale>  2 0.41072778E+03</rscale>
<asrwt>0</asrwt>
<pdfrwt beam="1">  1       21 0.11930268E+00 0.41072778E+03</pdfrwt>
<pdfrwt beam="2">  1       21 0.33587207E-01 0.41072778E+03</pdfrwt>
<totfact> 0.40480521E+03</totfact>
</mgrwt>
</event>
<event>
 4    1  0.4821294E-002  0.4862373E+03  0.7818608E-02  0.1017435E+00
         21   -1    0    0  501  502  0.00000000000E+00  0.00000000000E+00  0.61518002861E+03  0.61518002861E+03  0.00000000000E+00 0. -1.
         21   -1    0    0  502  503 -0.00000000000E+00 -0.00000000000E+00 -0.67861472895E+03  0.67861472895E+03  0.00000000000E+00 0.  1.
    9000007    1    1    2  501    0 -0.27461392689E+03 -0.31841273399E+02  0.39428713200E+03  0.62601039767E+03  0.40000000000E+03 0. -1.
   -9000007    1    1    2    0  503  0.27461392689E+03  0.31841273399E+02 -0.45772183233E+03  0.66778435990E+03  0.40000000000E+03 0.  1.
<mgrwt>
<rscale>  2 0.48623726E+03</rscale>
<asrwt>0</asrwt>
<pdfrwt beam="1">  1       21 0.94643082E-01 0.48623726E+03</pdfrwt>
<pdfrwt beam="2">  1       21 0.10440227E+00 0.48623726E+03</pdfrwt>
<totfact> 0.57230658E+02</totfact>
</mgrwt>
</event>
<event>
 4    1  0.4821294E-002  0.5040366E+03  0.7818608E-02  0.1012731E+00
         21   -1    0    0  501  502  0.00000000000E+00  0.00000000000E+00  0.50375563529E+03  0.50375563529E+03  0.00000000000E+00 0. -1.
         21   -1    0    0  502  503 -0.00000000000E+00 -0.00000000000E+00 -0.18741495381E+04  0.18741495381E+04  0.00000000000E+00 0.  1.
    9000007    1    1    2  501    0 -0.27120208365E+03 -0.14318628439E+03  0.33127650996E+03  0.60315587394E+03  0.40000000000E+03 0. -1.
   -9000007    1    1    2    0  503  0.27120208365E+03  0.14318628439E+03 -0.17016704128E+04  0.17747492995E+04  0.40000000000E+03 0.  1.
<mgrwt>
<rscale>  2 0.50403659E+03</rscale>
<asrwt>0</asrwt>
<pdfrwt beam="1">  1       21 0.77500868E-01 0.50403659E+03</pdfrwt>
<pdfrwt beam="2">  1       21 0.28833069E+00 0.50403659E+03</pdfrwt>
<totfact> 0.43386203E+01</totfact>
</mgrwt>
</event>
<event>
 4    1  0.4821294E-002  0.5409581E+03  0.7818608E-02  0.1003609E+00
         21   -1    0    0  501  502  0.00000000000E+00  0.00000000000E+00  0.53905045772E+03  0.53905045772E+03  0.00000000000E+00 0. -1.
         21   -1    0    0  502  503 -0.00000000000E+00 -0.00000000000E+00 -0.61184002829E+03  0.61184002829E+03  0.00000000000E+00 0. -1.
    9000007    1    1    2  501    0 -0.26664859532E+03  0.24806082909E+03  0.15680539009E+03  0.56322604581E+03  0.40000000000E+03 0. -1.
   -9000007    1    1    2    0  503  0.26664859532E+03 -0.24806082909E+03 -0.22959496067E+03  0.58766444020E+03  0.40000000000E+03 0. -1.
<mgrwt>
<rscale>  2 0.54095808E+03</rscale>
<asrwt>0</asrwt>
<pdfrwt beam="1">  1       21 0.82930840E-01 0.54095808E+03</pdfrwt>
<pdfrwt beam="2">  1       21 0.94129235E-01 0.54095808E+03</pdfrwt>
<totfact> 0.98670599E+02</totfact>
</mgrwt>
</event>
<event>
 4    1  0.4821294E-002  0.4137409E+03  0.7818608E-02  0.1039123E+00
         21   -1    0    0  501  502  0.00000000000E+00  0.00000000000E+00  0.63755891278E+02  0.63755891278E+02  0.00000000000E+00 0.  1.
         21   -1    0    0  502  503 -0.00000000000E+00 -0.00000000000E+00 -0.26971379505E+04  0.26971379505E+04  0.00000000000E+00 0.  1.
    9000007    1    1    2  501    0 -0.10551161921E+03  0.69849671665E+01 -0.12239007727E+04  0.12919421787E+04  0.40000000000E+03 0.  1.
   -9000007    1    1    2    0  503  0.10551161921E+03 -0.69849671665E+01 -0.14094812865E+04  0.14689516631E+04  0.40000000000E+03 0.  1.
<mgrwt>
<rscale>  2 0.41374085E+03</rscale>
<asrwt>0</asrwt>
<pdfrwt beam="1">  1       21 0.98085976E-02 0.41374085E+03</pdfrwt>
<pdfrwt beam="2">  1       21 0.41494435E+00 0.41374085E+03</pdfrwt>
<totfact> 0.46646916E+02</totfact>
</mgrwt>
</event>
<event>
 4    1  0.4821294E-002  0.4696661E+03  0.7818608E-02  0.1022014E+00
         21   -1    0    0  501  502  0.00000000000E+00  0.00000000000E+00  0.13360250480E+04  0.13360250480E+04  0.00000000000E+00 0.  1.
         21   -1    0    0  502  503 -0.00000000000E+00 -0.00000000000E+00 -0.19935150491E+03  0.19935150491E+03  0.00000000000E+00 0. -1.
    9000007    1    1    2  501    0 -0.62915919334E+01  0.24606226875E+03  0.88651810155E+03  0.10032450192E+04  0.40000000000E+03 0.  1.
   -9000007    1    1    2    0  503  0.62915919334E+01 -0.24606226875E+03  0.25015544158E+03  0.53213153372E+03  0.40000000000E+03 0. -1.
<mgrwt>
<rscale>  2 0.46966608E+03</rscale>
<asrwt>0</asrwt>
<pdfrwt beam="1">  1       21 0.20554231E+00 0.46966608E+03</pdfrwt>
<pdfrwt beam="2">  1       21 0.30669463E-01 0.46966608E+03</pdfrwt>
<totfact> 0.10443581E+03</totfact>
</mgrwt>
</event>
<event>
 4    1  0.4821294E-002  0.4069960E+03  0.7818608E-02  0.1041384E+00
         21   -1    0    0  503  502  0.00000000000E+00  0.00000000000E+00  0.55648964118E+03  0.55648964118E+03  0.00000000000E+00 0.  1.
         21   -1    0    0  501  503 -0.00000000000E+00 -0.00000000000E+00 -0.35154547133E+03  0.35154547133E+03  0.00000000000E+00 0. -1.
    9000007    1    1    2  501    0  0.75119801088E+02 -0.16501760746E+01 -0.75278274299E+02  0.41389917393E+03  0.40000000000E+03 0.  1.
   -9000007    1    1    2    0  502 -0.75119801088E+02  0.16501760746E+01  0.28022244415E+03  0.49413593858E+03  0.40000000000E+03 0.  1.
<mgrwt>
<rscale>  2 0.40699596E+03</rscale>
<asrwt>0</asrwt>
<pdfrwt beam="1">  1       21 0.85613791E-01 0.40699596E+03</pdfrwt>
<pdfrwt beam="2">  1       21 0.54083919E-01 0.40699596E+03</pdfrwt>
<totfact> 0.33756459E+03</totfact>
</mgrwt>
</event>
<event>
 4    1  0.4821294E-002  0.4377994E+03  0.7818608E-02  0.1031424E+00
         21   -1    0    0  501  502  0.00000000000E+00  0.00000000000E+00  0.30436076530E+03  0.30436076530E+03  0.00000000000E+00 0. -1.
         21   -1    0    0  502  503 -0.00000000000E+00 -0.00000000000E+00 -0.67091989918E+03  0.67091989918E+03  0.00000000000E+00 0. -1.
    9000007    1    1    2  501    0  0.87465114454E+02  0.15497787840E+03 -0.62469122004E+02  0.44223373938E+03  0.40000000000E+03 0. -1.
   -9000007    1    1    2    0  503 -0.87465114454E+02 -0.15497787840E+03 -0.30409001187E+03  0.53304692510E+03  0.40000000000E+03 0. -1.
<mgrwt>
<rscale>  2 0.43779937E+03</rscale>
<asrwt>0</asrwt>
<pdfrwt beam="1">  1       21 0.46824734E-01 0.43779937E+03</pdfrwt>
<pdfrwt beam="2">  1       21 0.10321844E+00 0.43779937E+03</pdfrwt>
<totfact> 0.28994932E+03</totfact>
</mgrwt>
</event>
<event>
 4    1  0.4821294E-002  0.4322339E+03  0.7818608E-02  0.1033157E+00
         21   -1    0    0  503  502  0.00000000000E+00  0.00000000000E+00  0.42194689293E+03  0.42194689293E+03  0.00000000000E+00 0.  1.
         21   -1    0    0  501  503 -0.00000000000E+00 -0.00000000000E+00 -0.65208052414E+03  0.65208052414E+03  0.00000000000E+00 0.  1.
    9000007    1    1    2  501    0 -0.13729396143E+03  0.89311338486E+02  0.18918173424E+03  0.47182186850E+03  0.40000000000E+03 0.  1.
   -9000007    1    1    2    0  502  0.13729396143E+03 -0.89311338486E+02 -0.41931536544E+03  0.60220554857E+03  0.40000000000E+03 0.  1.
<mgrwt>
<rscale>  2 0.43223390E+03</rscale>
<asrwt>0</asrwt>
<pdfrwt beam="1">  1       21 0.64914907E-01 0.43223390E+03</pdfrwt>
<pdfrwt beam="2">  1       21 0.10032008E+00 0.43223390E+03</pdfrwt>
<totfact> 0.15383370E+03</totfact>
</mgrwt>
</event>
<event>
 4    1  0.4821294E-002  0.4085391E+03  0.7818608E-02  0.1040862E+00
         21   -1    0    0  503  502  0.00000000000E+00  0.00000000000E+00  0.46340821791E+03  0.46340821791E+03  0.00000000000E+00 0.  1.
         21   -1    0    0  501  503 -0.00000000000E+00 -0.00000000000E+00 -0.81784478605E+03  0.81784478605E+03  0.00000000000E+00 0.  1.
    9000007    1    1    2  501    0 -0.58276755990E+02  0.59228451119E+02 -0.65645439479E+03  0.77319891499E+03  0.40000000000E+03 0.  1.
   -9000007    1    1    2    0  502  0.58276755990E+02 -0.59228451119E+02  0.30201782664E+03  0.50805408897E+03  0.40000000000E+03 0.  1.
<mgrwt>
<rscale>  2 0.40853909E+03</rscale>
<asrwt>0</asrwt>
<pdfrwt beam="1">  1       21 0.71293572E-01 0.40853909E+03</pdfrwt>
<pdfrwt beam="2">  1       21 0.12582227E+00 0.40853909E+03</pdfrwt>
<totfact> 0.71647547E+02</totfact>
</mgrwt>
</event>
<event>
 4    1  0.4821294E-002  0.4135239E+03  0.7818608E-02  0.1039195E+00
         21   -1    0    0  503  502  0.00000000000E+00  0.00000000000E+00  0.45404311344E+03  0.45404311344E+03  0.00000000000E+00 0. -1.
         21   -1    0    0  501  503 -0.00000000000E+00 -0.00000000000E+00 -0.94097610840E+03  0.94097610840E+03  0.00000000000E+00 0. -1.
    9000007    1    1    2  501    0 -0.88549257017E+02  0.56223266139E+02 -0.78364494298E+03  0.88605949193E+03  0.40000000000E+03 0. -1.
   -9000007    1    1    2    0  502  0.88549257017E+02 -0.56223266139E+02  0.29671194802E+03  0.50895972991E+03  0.40000000000E+03 0. -1.
<mgrwt>
<rscale>  2 0.41352391E+03</rscale>
<asrwt>0</asrwt>
<pdfrwt beam="1">  1       21 0.69852787E-01 0.41352391E+03</pdfrwt>
<pdfrwt beam="2">  1       21 0.14476556E+00 0.41352391E+03</pdfrwt>
<totfact> 0.51826149E+02</totfact>
</mgrwt>
</event>
<event>
 4    1  0.4821294E-002  0.4254099E+03  0.7818608E-02  0.1035320E+00
         21   -1    0    0  503  502  0.00000000000E+00  0.00000000000E+00  0.12027314217E+03  0.12027314217E+03  0.00000000000E+00 0. -1.
         21   -1    0    0  501  503 -0.00000000000E+00 -0.00000000000E+00 -0.15046879707E+04  0.15046879707E+04  0.00000000000E+00 0. -1.
    9000007    1    1    2  501    0  0.30427427593E+02  0.14158996339E+03 -0.69233036644E+03  0.81258530775E+03  0.40000000000E+03 0.  1.
   -9000007    1    1    2    0  502 -0.30427427593E+02 -0.14158996339E+03 -0.69208446209E+03  0.81237580512E+03  0.40000000000E+03 0.  1.
<mgrwt>
<rscale>  2 0.42540986E+03</rscale>
<asrwt>0</asrwt>
<pdfrwt beam="1">  1       21 0.18503560E-01 0.42540986E+03</pdfrwt>
<pdfrwt beam="2">  1       21 0.23149046E+00 0.42540986E+03</pdfrwt>
<totfact> 0.19337992E+03</totfact>
</mgrwt>
</event>
<event>
 4    1  0.4821294E-002  0.4039398E+03  0.7818608E-02  0.1042424E+00
         21   -1    0    0  503  502  0.00000000000E+00  0.00000000000E+00  0.95965229203E+03  0.95965229203E+03  0.00000000000E+00 0. -1.
         21   -1    0    0  501  503 -0.00000000000E+00 -0.00000000000E+00 -0.33453100799E+03  0.33453100799E+03  0.00000000000E+00 0. -1.
    9000007    1    1    2  501    0  0.53960031908E+00  0.56276405756E+02 -0.14120867479E+03  0.42791028832E+03  0.40000000000E+03 0. -1.
   -9000007    1    1    2    0  502 -0.53960031908E+00 -0.56276405756E+02  0.76632995883E+03  0.86627301171E+03  0.40000000000E+03 0. -1.
<mgrwt>
<rscale>  2 0.40393975E+03</rscale>
<asrwt>0</asrwt>
<pdfrwt beam="1">  1       21 0.14763881E+00 0.40393975E+03</pdfrwt>
<pdfrwt beam="2">  1       21 0.51466309E-01 0.40393975E+03</pdfrwt>
<totfact> 0.96347230E+02</totfact>
</mgrwt>
</event>
<event>
 4    1  0.4821294E-002  0.4023030E+03  0.7818608E-02  0.1042985E+00
         21   -1    0    0  501  502  0.00000000000E+00  0.00000000000E+00  0.15562657103E+03  0.15562657103E+03  0.00000000000E+00 0.  1.
         21   -1    0    0  502  503 -0.00000000000E+00 -0.00000000000E+00 -0.11566898905E+04  0.11566898905E+04  0.00000000000E+00 0.  1.
    9000007    1    1    2  501    0 -0.29864118548E+02 -0.30916454589E+02 -0.70896339675E+03  0.81515445817E+03  0.40000000000E+03 0.  1.
   -9000007    1    1    2    0  503  0.29864118548E+02  0.30916454589E+02 -0.29209992276E+03  0.49716200339E+03  0.40000000000E+03 0.  1.
<mgrwt>
<rscale>  2 0.40230299E+03</rscale>
<asrwt>0</asrwt>
<pdfrwt beam="1">  1       21 0.23942551E-01 0.40230299E+03</pdfrwt>
<pdfrwt beam="2">  1       21 0.17795228E+00 0.40230299E+03</pdfrwt>
<totfact> 0.26966016E+03</totfact>
</mgrwt>
</event>
<event>
 4    1  0.4821294E-002  0.4364126E+03  0.7818608E-02  0.1031853E+00
         21   -1    0    0  501  502  0.00000000000E+00  0.00000000000E+00  0.37771397017E+03  0.37771397017E+03  0.00000000000E+00 0.  1.
         21   -1    0    0  502  503 -0.00000000000E+00 -0.00000000000E+00 -0.57059087305E+03  0.57059087305E+03  0.00000000000E+00 0.  1.
    9000007    1    1    2  501    0  0.98832398899E+02 -0.14383377185E+03  0.65258005281E+02  0.44126477794E+03  0.40000000000E+03 0.  1.
   -9000007    1    1    2    0  503 -0.98832398899E+02  0.14383377185E+03 -0.25813490816E+03  0.50704006529E+03  0.40000000000E+03 0.  1.
<mgrwt>
<rscale>  2 0.43641265E+03</rscale>
<asrwt>0</asrwt>
<pdfrwt beam="1">  1       21 0.58109841E-01 0.43641265E+03</pdfrwt>
<pdfrwt beam="2">  1       21 0.87783211E-01 0.43641265E+03</pdfrwt>
<totfact> 0.26952309E+03</totfact>
</mgrwt>
</event>
<event>
 4    1  0.4821294E-002  0.4204917E+03  0.7818608E-02  0.1036906E+00
         21   -1    0    0  503  502  0.00000000000E+00  0.00000000000E+00  0.95747780124E+03  0.95747780124E+03  0.00000000000E+00 0. -1.
         21   -1    0    0  501  503 -0.00000000000E+00 -0.00000000000E+00 -0.26031830917E+03  0.26031830917E+03  0.00000000000E+00 0. -1.
    9000007    1    1    2  501    0 -0.12745881791E+03 -0.23822663098E+02  0.20330073497E+02  0.42098287546E+03  0.40000000000E+03 0. -1.
   -9000007    1    1    2    0  502  0.12745881791E+03  0.23822663098E+02  0.67682941857E+03  0.79681323495E+03  0.40000000000E+03 0. -1.
<mgrwt>
<rscale>  2 0.42049170E+03</rscale>
<asrwt>0</asrwt>
<pdfrwt beam="1">  1       21 0.14730428E+00 0.42049170E+03</pdfrwt>
<pdfrwt beam="2">  1       21 0.40048971E-01 0.42049170E+03</pdfrwt>
<totfact> 0.16266517E+03</totfact>
</mgrwt>
</event>
<event>
 4    1  0.4821294E-002  0.5028003E+03  0.7818608E-02  0.1013051E+00
         21   -1    0    0  503  502  0.00000000000E+00  0.00000000000E+00  0.10467362548E+04  0.10467362548E+04  0.00000000000E+00 0. -1.
         21   -1    0    0  501  503 -0.00000000000E+00 -0.00000000000E+00 -0.38104697929E+03  0.38104697929E+03  0.00000000000E+00 0.  1.
    9000007    1    1    2  501    0  0.29930650615E+03 -0.56778443632E+02 -0.99143148854E+02  0.51248174626E+03  0.40000000000E+03 0.  1.
   -9000007    1    1    2    0  502 -0.29930650615E+03  0.56778443632E+02  0.76483242437E+03  0.91530148785E+03  0.40000000000E+03 0. -1.
<mgrwt>
<rscale>  2 0.50280033E+03</rscale>
<asrwt>0</asrwt>
<pdfrwt beam="1">  1       21 0.16103635E+00 0.50280033E+03</pdfrwt>
<pdfrwt beam="2">  1       21 0.58622612E-01 0.50280033E+03</pdfrwt>
<totfact> 0.54836403E+02</totfact>
</mgrwt>
</event>
<event>
 4    1  0.4821294E-002  0.4408657E+03  0.7818608E-02  0.1030482E+00
         21   -1    0    0  503  502  0.00000000000E+00  0.00000000000E+00  0.32962703065E+03  0.32962703065E+03  0.00000000000E+00 0. -1.
         21   -1    0    0  501  503 -0.00000000000E+00 -0.00000000000E+00 -0.71221397050E+03  0.71221397050E+03  0.00000000000E+00 0. -1.
    9000007    1    1    2  501    0  0.11945717933E+03  0.14174826926E+03 -0.40739523131E+03  0.60027782237E+03  0.40000000000E+03 0. -1.
   -9000007    1    1    2    0  502 -0.11945717933E+03 -0.14174826926E+03  0.24808291453E+02  0.44156317878E+03  0.40000000000E+03 0. -1.
<mgrwt>
<rscale>  2 0.44086573E+03</rscale>
<asrwt>0</asrwt>
<pdfrwt beam="1">  1       21 0.50711851E-01 0.44086573E+03</pdfrwt>
<pdfrwt beam="2">  1       21 0.10957138E+00 0.44086573E+03</pdfrwt>
<totfact> 0.21111481E+03</totfact>
</mgrwt>
</event>
<event>
 4    1  0.4821294E-002  0.5853382E+03  0.7818608E-02  0.9936300E-01
         21   -1    0    0  503  502  0.00000000000E+00  0.00000000000E+00  0.74599966542E+03  0.74599966542E+03  0.00000000000E+00 0. -1.
         21   -1    0    0  501  503 -0.00000000000E+00 -0.00000000000E+00 -0.59731565738E+03  0.59731565738E+03  0.00000000000E+00 0.  1.
    9000007    1    1    2  501    0  0.25434659773E+03 -0.34340742295E+03 -0.24854132649E+03  0.63591952391E+03  0.40000000000E+03 0. -1.
   -9000007    1    1    2    0  502 -0.25434659773E+03  0.34340742295E+03  0.39722533453E+03  0.70739579890E+03  0.40000000000E+03 0. -1.
<mgrwt>
<rscale>  2 0.58533824E+03</rscale>
<asrwt>0</asrwt>
<pdfrwt beam="1">  1       21 0.11476918E+00 0.58533824E+03</pdfrwt>
<pdfrwt beam="2">  1       21 0.91894716E-01 0.58533824E+03</pdfrwt>
<totfact> 0.46754982E+02</totfact>
</mgrwt>
</event>
<event>
 4    1  0.4821294E-002  0.4264322E+03  0.7818608E-02  0.1034993E+00
         21   -1    0    0  501  502  0.00000000000E+00  0.00000000000E+00  0.11951965412E+04  0.11951965412E+04  0.00000000000E+00 0. -1.
         21   -1    0    0  502  503 -0.00000000000E+00 -0.00000000000E+00 -0.89223339815E+03  0.89223339815E+03  0.00000000000E+00 0. -1.
    9000007    1    1    2  501    0  0.71374622525E+02 -0.12942204735E+03  0.11020517203E+04  0.11816777892E+04  0.40000000000E+03 0. -1.
   -9000007    1    1    2    0  503 -0.71374622525E+02  0.12942204735E+03 -0.79908857733E+03  0.90575215015E+03  0.40000000000E+03 0. -1.
<mgrwt>
<rscale>  2 0.42643218E+03</rscale>
<asrwt>0</asrwt>
<pdfrwt beam="1">  1       21 0.18387639E+00 0.42643218E+03</pdfrwt>
<pdfrwt beam="2">  1       21 0.13726668E+00 0.42643218E+03</pdfrwt>
<totfact> 0.51348887E+01</totfact>
</mgrwt>
</event>
<event>
 4    1  0.4821294E-002  0.5293574E+03  0.7818608E-02  0.1006388E+00
         21   -1    0    0  503  502  0.00000000000E+00  0.00000000000E+00  0.61705824410E+03  0.61705824410E+03  0.00000000000E+00 0. -1.
         21   -1    0    0  501  503 -0.00000000000E+00 -0.00000000000E+00 -0.50162885117E+03  0.50162885117E+03  0.00000000000E+00 0. -1.
    9000007    1    1    2  501    0  0.24750650488E+03  0.24281633184E+03 -0.11442026213E+03  0.54158216122E+03  0.40000000000E+03 0. -1.
   -9000007    1    1    2    0  502 -0.24750650488E+03 -0.24281633184E+03  0.22984965506E+03  0.57710493404E+03  0.40000000000E+03 0. -1.
<mgrwt>
<rscale>  2 0.52935738E+03</rscale>
<asrwt>0</asrwt>
<pdfrwt beam="1">  1       21 0.94932037E-01 0.52935738E+03</pdfrwt>
<pdfrwt beam="2">  1       21 0.77173670E-01 0.52935738E+03</pdfrwt>
<totfact> 0.11468509E+03</totfact>
</mgrwt>
</event>
<event>
 4    1  0.4821294E-002  0.4451592E+03  0.7818608E-02  0.1029176E+00
         21   -1    0    0  503  502  0.00000000000E+00  0.00000000000E+00  0.83068361838E+03  0.83068361838E+03  0.00000000000E+00 0. -1.
         21   -1    0    0  501  503 -0.00000000000E+00 -0.00000000000E+00 -0.29324066945E+03  0.29324066945E+03  0.00000000000E+00 0. -1.
    9000007    1    1    2  501    0  0.13897200928E+03 -0.13730793593E+03  0.26050638875E+02  0.44592076025E+03  0.40000000000E+03 0.  1.
   -9000007    1    1    2    0  502 -0.13897200928E+03  0.13730793593E+03  0.51139231006E+03  0.67800352758E+03  0.40000000000E+03 0.  1.
<mgrwt>
<rscale>  2 0.44515917E+03</rscale>
<asrwt>0</asrwt>
<pdfrwt beam="1">  1       21 0.12779748E+00 0.44515917E+03</pdfrwt>
<pdfrwt beam="2">  1       21 0.45113950E-01 0.44515917E+03</pdfrwt>
<totfact> 0.18288040E+03</totfact>
</mgrwt>
</event>
<event>
 4    1  0.4821294E-002  0.4330116E+03  0.7818608E-02  0.1032913E+00
         21   -1    0    0  503  502  0.00000000000E+00  0.00000000000E+00  0.13806346033E+03  0.13806346033E+03  0.00000000000E+00 0.  1.
         21   -1    0    0  501  503 -0.00000000000E+00 -0.00000000000E+00 -0.15810956925E+04  0.15810956925E+04  0.00000000000E+00 0.  1.
    9000007    1    1    2  501    0 -0.15884102462E+03  0.47629107354E+02 -0.10443583818E+04  0.11305677479E+04  0.40000000000E+03 0.  1.
   -9000007    1    1    2    0  502  0.15884102462E+03 -0.47629107354E+02 -0.39867385035E+03  0.58859140490E+03  0.40000000000E+03 0.  1.
<mgrwt>
<rscale>  2 0.43301155E+03</rscale>
<asrwt>0</asrwt>
<pdfrwt beam="1">  1       21 0.21240533E-01 0.43301155E+03</pdfrwt>
<pdfrwt beam="2">  1       21 0.24324548E+00 0.43301155E+03</pdfrwt>
<totfact> 0.12528247E+03</totfact>
</mgrwt>
</event>
<event>
 4    1  0.4821294E-002  0.4339966E+03  0.7818608E-02  0.1032605E+00
         21   -1    0    0  503  502  0.00000000000E+00  0.00000000000E+00  0.12225112131E+04  0.12225112131E+04  0.00000000000E+00 0. -1.
         21   -1    0    0  501  503 -0.00000000000E+00 -0.00000000000E+00 -0.20265113950E+03  0.20265113950E+03  0.00000000000E+00 0.  1.
    9000007    1    1    2  501    0 -0.43010878086E+02  0.16279765315E+03  0.16103798370E+03  0.46291062172E+03  0.40000000000E+03 0.  1.
   -9000007    1    1    2    0  502  0.43010878086E+02 -0.16279765315E+03  0.85882208994E+03  0.96225173093E+03  0.40000000000E+03 0. -1.
<mgrwt>
<rscale>  2 0.43399656E+03</rscale>
<asrwt>0</asrwt>
<pdfrwt beam="1">  1       21 0.18807864E+00 0.43399656E+03</pdfrwt>
<pdfrwt beam="2">  1       21 0.31177099E-01 0.43399656E+03</pdfrwt>
<totfact> 0.13460020E+03</totfact>
</mgrwt>
</event>
<event>
 4    1  0.4821294E-002  0.4419330E+03  0.7818608E-02  0.1030155E+00
         21   -1    0    0  501  502  0.00000000000E+00  0.00000000000E+00  0.36146397344E+03  0.36146397344E+03  0.00000000000E+00 0.  1.
         21   -1    0    0  502  503 -0.00000000000E+00 -0.00000000000E+00 -0.84006764525E+03  0.84006764525E+03  0.00000000000E+00 0. -1.
    9000007    1    1    2  501    0 -0.11763888370E+03  0.14651247152E+03  0.11956124441E+03  0.45782060071E+03  0.40000000000E+03 0.  1.
   -9000007    1    1    2    0  503  0.11763888370E+03 -0.14651247152E+03 -0.59816491623E+03  0.74371101799E+03  0.40000000000E+03 0. -1.
<mgrwt>
<rscale>  2 0.44193304E+03</rscale>
<asrwt>0</asrwt>
<pdfrwt beam="1">  1       21 0.55609843E-01 0.44193304E+03</pdfrwt>
<pdfrwt beam="2">  1       21 0.12924117E+00 0.44193304E+03</pdfrwt>
<totfact> 0.11398659E+03</totfact>
</mgrwt>
</event>
<event>
 4    1  0.4821294E-002  0.5391832E+03  0.7818608E-02  0.1004029E+00
         21   -1    0    0  501  502  0.00000000000E+00  0.00000000000E+00  0.17679196566E+03  0.17679196566E+03  0.00000000000E+00 0. -1.
         21   -1    0    0  502  503 -0.00000000000E+00 -0.00000000000E+00 -0.17565677535E+04  0.17565677535E+04  0.00000000000E+00 0. -1.
    9000007    1    1    2  501    0 -0.14850057377E+03 -0.32964540187E+03 -0.54562107111E+03  0.76708595647E+03  0.40000000000E+03 0. -1.
   -9000007    1    1    2    0  503  0.14850057377E+03  0.32964540187E+03 -0.10341547167E+04  0.11662737627E+04  0.40000000000E+03 0. -1.
<mgrwt>
<rscale>  2 0.53918319E+03</rscale>
<asrwt>0</asrwt>
<pdfrwt beam="1">  1       21 0.27198764E-01 0.53918319E+03</pdfrwt>
<pdfrwt beam="2">  1       21 0.27024119E+00 0.53918319E+03</pdfrwt>
<totfact> 0.50363317E+02</totfact>
</mgrwt>
</event>
<event>
 4    1  0.4821294E-002  0.5485200E+03  0.7818608E-02  0.1001837E+00
         21   -1    0    0  501  502  0.00000000000E+00  0.00000000000E+00  0.87703375336E+03  0.87703375336E+03  0.00000000000E+00 0. -1.
         21   -1    0    0  502  503 -0.00000000000E+00 -0.00000000000E+00 -0.57018866587E+03  0.57018866587E+03  0.00000000000E+00 0.  1.
    9000007    1    1    2  501    0  0.36260522161E+03  0.96910442003E+02  0.61012472049E+03  0.82044277988E+03  0.40000000000E+03 0. -1.
   -9000007    1    1    2    0  503 -0.36260522161E+03 -0.96910442003E+02 -0.30327963300E+03  0.62677963935E+03  0.40000000000E+03 0.  1.
<mgrwt>
<rscale>  2 0.54851999E+03</rscale>
<asrwt>0</asrwt>
<pdfrwt beam="1">  1       21 0.13492827E+00 0.54851999E+03</pdfrwt>
<pdfrwt beam="2">  1       21 0.87721333E-01 0.54851999E+03</pdfrwt>
<totfact> 0.34856110E+02</totfact>
</mgrwt>
</event>
<event>
 4    1  0.4821294E-002  0.4164248E+03  0.7818608E-02  0.1038236E+00
         21   -1    0    0  501  502  0.00000000000E+00  0.00000000000E+00  0.65106601260E+03  0.65106601260E+03  0.00000000000E+00 0. -1.
         21   -1    0    0  502  503 -0.00000000000E+00 -0.00000000000E+00 -0.50113904257E+03  0.50113904257E+03  0.00000000000E+00 0. -1.
    9000007    1    1    2  501    0  0.10489377723E+03 -0.49059930805E+02  0.46929565004E+03  0.62741372989E+03  0.40000000000E+03 0. -1.
   -9000007    1    1    2    0  503 -0.10489377723E+03  0.49059930805E+02 -0.31936868002E+03  0.52479132528E+03  0.40000000000E+03 0. -1.
<mgrwt>
<rscale>  2 0.41642476E+03</rscale>
<asrwt>0</asrwt>
<pdfrwt beam="1">  1       21 0.10016400E+00 0.41642476E+03</pdfrwt>
<pdfrwt beam="2">  1       21 0.77098314E-01 0.41642476E+03</pdfrwt>
<totfact> 0.10550107E+03</totfact>
</mgrwt>
</event>
<event>
 4    1  0.4821294E-002  0.4439011E+03  0.7818608E-02  0.1029557E+00
         21   -1    0    0  503  502  0.00000000000E+00  0.00000000000E+00  0.47041095106E+03  0.47041095106E+03  0.00000000000E+00 0. -1.
         21   -1    0    0  501  503 -0.00000000000E+00 -0.00000000000E+00 -0.41892014373E+03  0.41892014373E+03  0.00000000000E+00 0.  1.
    9000007    1    1    2  501    0 -0.74685443480E+02 -0.17739865439E+03  0.21685794474E+02  0.44443050270E+03  0.40000000000E+03 0. -1.
   -9000007    1    1    2    0  502  0.74685443480E+02  0.17739865439E+03  0.29805012852E+02  0.44490059209E+03  0.40000000000E+03 0. -1.
<mgrwt>
<rscale>  2 0.44390111E+03</rscale>
<asrwt>0</asrwt>
<pdfrwt beam="1">  1       21 0.72370916E-01 0.44390111E+03</pdfrwt>
<pdfrwt beam="2">  1       21 0.64449253E-01 0.44390111E+03</pdfrwt>
<totfact> 0.33427366E+03</totfact>
</mgrwt>
</event>
<event>
 4    1  0.4821294E-002  0.4089673E+03  0.7818608E-02  0.1040718E+00
         21   -1    0    0  501  502  0.00000000000E+00  0.00000000000E+00  0.19322854138E+04  0.19322854138E+04  0.00000000000E+00 0. -1.
         21   -1    0    0  502  503 -0.00000000000E+00 -0.00000000000E+00 -0.96429009418E+02  0.96429009418E+02  0.00000000000E+00 0. -1.
    9000007    1    1    2  501    0 -0.75098101911E+02  0.40181607460E+02  0.12424719536E+04  0.13080484861E+04  0.40000000000E+03 0.  1.
   -9000007    1    1    2    0  503  0.75098101911E+02 -0.40181607460E+02  0.59338445072E+03  0.72066593707E+03  0.40000000000E+03 0.  1.
<mgrwt>
<rscale>  2 0.40896734E+03</rscale>
<asrwt>0</asrwt>
<pdfrwt beam="1">  1       21 0.29727465E+00 0.40896734E+03</pdfrwt>
<pdfrwt beam="2">  1       21 0.14835234E-01 0.40896734E+03</pdfrwt>
<totfact> 0.11741121E+03</totfact>
</mgrwt>
</event>
<event>
 4    1  0.4821294E-002  0.4095673E+03  0.7818608E-02  0.1040516E+00
         21   -1    0    0  501  502  0.00000000000E+00  0.00000000000E+00  0.87138739597E+03  0.87138739597E+03  0.00000000000E+00 0.  1.
         21   -1    0    0  502  503 -0.00000000000E+00 -0.00000000000E+00 -0.42088361907E+03  0.42088361907E+03  0.00000000000E+00 0.  1.
    9000007    1    1    2  501    0 -0.70267864152E+02 -0.52988520310E+02  0.70121302189E+03  0.81206222550E+03  0.40000000000E+03 0.  1.
   -9000007    1    1    2    0  503  0.70267864152E+02  0.52988520310E+02 -0.25070924500E+03  0.48020878953E+03  0.40000000000E+03 0.  1.
<mgrwt>
<rscale>  2 0.40956728E+03</rscale>
<asrwt>0</asrwt>
<pdfrwt beam="1">  1       21 0.13405960E+00 0.40956728E+03</pdfrwt>
<pdfrwt beam="2">  1       21 0.64751326E-01 0.40956728E+03</pdfrwt>
<totfact> 0.75365885E+02</totfact>
</mgrwt>
</event>
<event>
 4    1  0.4821294E-002  0.5568045E+03  0.7818608E-02  0.9999311E-01
         21   -1    0    0  501  502  0.00000000000E+00  0.00000000000E+00  0.14791346727E+04  0.14791346727E+04  0.00000000000E+00 0.  1.
         21   -1    0    0  502  503 -0.00000000000E+00 -0.00000000000E+00 -0.24745461156E+03  0.24745461156E+03  0.00000000000E+00 0.  1.
    9000007    1    1    2  501    0  0.37603255198E+03 -0.92901914869E+02  0.95347914652E+03  0.11041529463E+04  0.40000000000E+03 0.  1.
   -9000007    1    1    2    0  503 -0.37603255198E+03  0.92901914869E+02  0.27820091463E+03  0.62243633798E+03  0.40000000000E+03 0.  1.
<mgrwt>
<rscale>  2 0.55680450E+03</rscale>
<asrwt>0</asrwt>
<pdfrwt beam="1">  1       21 0.22755917E+00 0.55680450E+03</pdfrwt>
<pdfrwt beam="2">  1       21 0.38069941E-01 0.55680450E+03</pdfrwt>
<totfact> 0.46805658E+02</totfact>
</mgrwt>
</event>
<event>
 4    1  0.4821294E-002  0.4065905E+03  0.7818608E-02  0.1041521E+00
         21   -1    0    0  501  502  0.00000000000E+00  0.00000000000E+00  0.27595669360E+03  0.27595669360E+03  0.00000000000E+00 0. -1.
         21   -1    0    0  502  503 -0.00000000000E+00 -0.00000000000E+00 -0.61086225304E+03  0.61086225304E+03  0.00000000000E+00 0. -1.
    9000007    1    1    2  501    0 -0.27183267574E+02 -0.67653005735E+02 -0.10583118455E+03  0.42013819018E+03  0.40000000000E+03 0. -1.
   -9000007    1    1    2    0  503  0.27183267574E+02  0.67653005735E+02 -0.22907437489E+03  0.46668075646E+03  0.40000000000E+03 0. -1.
<mgrwt>
<rscale>  2 0.40659053E+03</rscale>
<asrwt>0</asrwt>
<pdfrwt beam="1">  1       21 0.42454877E-01 0.40659053E+03</pdfrwt>
<pdfrwt beam="2">  1       21 0.93978806E-01 0.40659053E+03</pdfrwt>
<totfact> 0.45150015E+03</totfact>
</mgrwt>
</event>
<event>
 4    1  0.4821294E-002  0.4246825E+03  0.7818608E-02  0.1035553E+00
         21   -1    0    0  501  502  0.00000000000E+00  0.00000000000E+00  0.22412813372E+03  0.22412813372E+03  0.00000000000E+00 0. -1.
         21   -1    0    0  502  503 -0.00000000000E+00 -0.00000000000E+00 -0.80502204260E+03  0.80502204260E+03  0.00000000000E+00 0.  1.
    9000007    1    1    2  501    0  0.13459341612E+03 -0.47327047925E+02 -0.30078680104E+03  0.52041131503E+03  0.40000000000E+03 0. -1.
   -9000007    1    1    2    0  503 -0.13459341612E+03  0.47327047925E+02 -0.28010710784E+03  0.50873886129E+03  0.40000000000E+03 0.  1.
<mgrwt>
<rscale>  2 0.42468251E+03</rscale>
<asrwt>0</asrwt>
<pdfrwt beam="1">  1       21 0.34481251E-01 0.42468251E+03</pdfrwt>
<pdfrwt beam="2">  1       21 0.12384955E+00 0.42468251E+03</pdfrwt>
<totfact> 0.34717971E+03</totfact>
</mgrwt>
</event>
<event>
 4    1  0.4821294E-002  0.5652266E+03  0.7818608E-02  0.9980297E-01
         21   -1    0    0  503  502  0.00000000000E+00  0.00000000000E+00  0.11062807397E+04  0.11062807397E+04  0.00000000000E+00 0. -1.
         21   -1    0    0  501  503 -0.00000000000E+00 -0.00000000000E+00 -0.29477466301E+03  0.29477466301E+03  0.00000000000E+00 0.  1.
    9000007    1    1    2  501    0 -0.28947382888E+03  0.27511099040E+03  0.30592454147E+03  0.64270598232E+03  0.40000000000E+03 0.  1.
   -9000007    1    1    2    0  502  0.28947382888E+03 -0.27511099040E+03  0.50558153522E+03  0.75834942038E+03  0.40000000000E+03 0. -1.
<mgrwt>
<rscale>  2 0.56522664E+03</rscale>
<asrwt>0</asrwt>
<pdfrwt beam="1">  1       21 0.17019703E+00 0.56522664E+03</pdfrwt>
<pdfrwt beam="2">  1       21 0.45349949E-01 0.56522664E+03</pdfrwt>
<totfact> 0.79407495E+02</totfact>
</mgrwt>
</event>
<event>
 4    1  0.4821294E-002  0.4677829E+03  0.7818608E-02  0.1022548E+00
         21   -1    0    0  501  502  0.00000000000E+00  0.00000000000E+00  0.10285742921E+04  0.10285742921E+04  0.00000000000E+00 0. -1.
         21   -1    0    0  502  503 -0.00000000000E+00 -0.00000000000E+00 -0.22159983715E+03  0.22159983715E+03  0.00000000000E+00 0. -1.
    9000007    1    1    2  501    0  0.14788134253E+03  0.19222885473E+03  0.52846209633E+03  0.70575704836E+03  0.40000000000E+03 0. -1.
   -9000007    1    1    2    0  503 -0.14788134253E+03 -0.19222885473E+03  0.27851235864E+03  0.54441708090E+03  0.40000000000E+03 0. -1.
<mgrwt>
<rscale>  2 0.46778288E+03</rscale>
<asrwt>0</asrwt>
<pdfrwt beam="1">  1       21 0.15824220E+00 0.46778288E+03</pdfrwt>
<pdfrwt beam="2">  1       21 0.34092283E-01 0.46778288E+03</pdfrwt>
<totfact> 0.18211263E+03</totfact>
</mgrwt>
</event>
<event>
 4    1  0.4821294E-002  0.4095001E+03  0.7818608E-02  0.1040539E+00
         21   -1    0    0  503  502  0.00000000000E+00  0.00000000000E+00  0.54363543050E+03  0.54363543050E+03  0.00000000000E+00 0. -1.
         21   -1    0    0  501  503 -0.00000000000E+00 -0.00000000000E+00 -0.31224633999E+03  0.31224633999E+03  0.00000000000E+00 0. -1.
    9000007    1    1    2  501    0  0.86175669505E+02  0.16250251550E+02  0.68576333634E+02  0.41520239670E+03  0.40000000000E+03 0.  1.
   -9000007    1    1    2    0  502 -0.86175669505E+02 -0.16250251550E+02  0.16281275688E+03  0.44067937380E+03  0.40000000000E+03 0.  1.
<mgrwt>
<rscale>  2 0.40950008E+03</rscale>
<asrwt>0</asrwt>
<pdfrwt beam="1">  1       21 0.83636220E-01 0.40950008E+03</pdfrwt>
<pdfrwt beam="2">  1       21 0.48037898E-01 0.40950008E+03</pdfrwt>
<totfact> 0.45837346E+03</totfact>
</mgrwt>
</event>
<event>
 4    1  0.4821294E-002  0.4194373E+03  0.7818608E-02  0.1037250E+00
         21   -1    0    0  501  502  0.00000000000E+00  0.00000000000E+00  0.13503445766E+04  0.13503445766E+04  0.00000000000E+00 0.  1.
         21   -1    0    0  502  503 -0.00000000000E+00 -0.00000000000E+00 -0.13185084798E+03  0.13185084798E+03  0.00000000000E+00 0.  1.
    9000007    1    1    2  501    0 -0.10854004374E+03 -0.64395022706E+02  0.69004705281E+03  0.80752250441E+03  0.40000000000E+03 0.  1.
   -9000007    1    1    2    0  503  0.10854004374E+03  0.64395022706E+02  0.52844667582E+03  0.67467292018E+03  0.40000000000E+03 0.  1.
<mgrwt>
<rscale>  2 0.41943731E+03</rscale>
<asrwt>0</asrwt>
<pdfrwt beam="1">  1       21 0.20774531E+00 0.41943731E+03</pdfrwt>
<pdfrwt beam="2">  1       21 0.20284747E-01 0.41943731E+03</pdfrwt>
<totfact> 0.23100908E+03</totfact>
</mgrwt>
</event>
<event>
 4    1  0.4821294E-002  0.5233442E+03  0.7818608E-02  0.1007859E+00
         21   -1    0    0  501  502  0.00000000000E+00  0.00000000000E+00  0.57496541380E+03  0.57496541380E+03  0.00000000000E+00 0. -1.
         21   -1    0    0  502  503 -0.00000000000E+00 -0.00000000000E+00 -0.85906479829E+03  0.85906479829E+03  0.00000000000E+00 0. -1.
    9000007    1    1    2  501    0  0.44332098943E+02 -0.33455010987E+03  0.33652385795E+03  0.62220367885E+03  0.40000000000E+03 0. -1.
   -9000007    1    1    2    0  503 -0.44332098943E+02  0.33455010987E+03 -0.62062324244E+03  0.81182653324E+03  0.40000000000E+03 0. -1.
<mgrwt>
<rscale>  2 0.52334416E+03</rscale>
<asrwt>0</asrwt>
<pdfrwt beam="1">  1       21 0.88456218E-01 0.52334416E+03</pdfrwt>
<pdfrwt beam="2">  1       21 0.13216381E+00 0.52334416E+03</pdfrwt>
<totfact> 0.36440309E+02</totfact>
</mgrwt>
</event>
<event>
 4    1  0.4821294E-002  0.4054709E+03  0.7818608E-02  0.1041902E+00
         21   -1    0    0  503  502  0.00000000000E+00  0.00000000000E+00  0.37639787259E+03  0.37639787259E+03  0.00000000000E+00 0.  1.
         21   -1    0    0  501  503 -0.00000000000E+00 -0.00000000000E+00 -0.50360291867E+03  0.50360291867E+03  0.00000000000E+00 0.  1.
    9000007    1    1    2  501    0  0.37227184551E+02  0.54962003171E+02 -0.22386815240E+03  0.46316696203E+03  0.40000000000E+03 0. -1.
   -9000007    1    1    2    0  502 -0.37227184551E+02 -0.54962003171E+02  0.96663106312E+02  0.41683382922E+03  0.40000000000E+03 0. -1.
<mgrwt>
<rscale>  2 0.40547094E+03</rscale>
<asrwt>0</asrwt>
<pdfrwt beam="1">  1       21 0.57907365E-01 0.40547094E+03</pdfrwt>
<pdfrwt beam="2">  1       21 0.77477371E-01 0.40547094E+03</pdfrwt>
<totfact> 0.36715974E+03</totfact>
</mgrwt>
</event>
<event>
 4    1  0.4821294E-002  0.4061627E+03  0.7818608E-02  0.1041666E+00
         21   -1    0    0  501  502  0.00000000000E+00  0.00000000000E+00  0.85767660862E+02  0.85767660862E+02  0.00000000000E+00 0. -1.
         21   -1    0    0  502  503 -0.00000000000E+00 -0.00000000000E+00 -0.21358867024E+04  0.21358867024E+04  0.00000000000E+00 0. -1.
    9000007    1    1    2  501    0  0.11828517504E+02 -0.69485363276E+02 -0.67471755505E+03  0.78753533802E+03  0.40000000000E+03 0. -1.
   -9000007    1    1    2    0  503 -0.11828517504E+02  0.69485363276E+02 -0.13754014865E+04  0.14341190253E+04  0.40000000000E+03 0. -1.
<mgrwt>
<rscale>  2 0.40616269E+03</rscale>
<asrwt>0</asrwt>
<pdfrwt beam="1">  1       21 0.13195025E-01 0.40616269E+03</pdfrwt>
<pdfrwt beam="2">  1       21 0.32859795E+00 0.40616269E+03</pdfrwt>
<totfact> 0.94663871E+02</totfact>
</mgrwt>
</event>
<event>
 4    1  0.4821294E-002  0.5232645E+03  0.7818608E-02  0.1007879E+00
         21   -1    0    0  501  502  0.00000000000E+00  0.00000000000E+00  0.27285611618E+03  0.27285611618E+03  0.00000000000E+00 0. -1.
         21   -1    0    0  502  503 -0.00000000000E+00 -0.00000000000E+00 -0.11869966692E+04  0.11869966692E+04  0.00000000000E+00 0. -1.
    9000007    1    1    2  501    0 -0.29553967216E+03  0.16267151489E+03 -0.17006373317E+03  0.55020668200E+03  0.40000000000E+03 0. -1.
   -9000007    1    1    2    0  503  0.29553967216E+03 -0.16267151489E+03 -0.74407681988E+03  0.90964610342E+03  0.40000000000E+03 0. -1.
<mgrwt>
<rscale>  2 0.52326448E+03</rscale>
<asrwt>0</asrwt>
<pdfrwt beam="1">  1       21 0.41977865E-01 0.52326448E+03</pdfrwt>
<pdfrwt beam="2">  1       21 0.18261487E+00 0.52326448E+03</pdfrwt>
<totfact> 0.77215061E+02</totfact>
</mgrwt>
</event>
<event>
 4    1  0.4821294E-002  0.4019564E+03  0.7818608E-02  0.1043104E+00
         21   -1    0    0  503  502  0.00000000000E+00  0.00000000000E+00  0.18622270026E+03  0.18622270026E+03  0.00000000000E+00 0.  1.
         21   -1    0    0  501  503 -0.00000000000E+00 -0.00000000000E+00 -0.87694110270E+03  0.87694110270E+03  0.00000000000E+00 0.  1.
    9000007    1    1    2  501    0 -0.36636273159E+02  0.15058370530E+02 -0.40018875450E+03  0.56720367617E+03  0.40000000000E+03 0.  1.
   -9000007    1    1    2    0  502  0.36636273159E+02 -0.15058370530E+02 -0.29052964793E+03  0.49596012679E+03  0.40000000000E+03 0.  1.
<mgrwt>
<rscale>  2 0.40195643E+03</rscale>
<asrwt>0</asrwt>
<pdfrwt beam="1">  1       21 0.28649646E-01 0.40195643E+03</pdfrwt>
<pdfrwt beam="2">  1       21 0.13491402E+00 0.40195643E+03</pdfrwt>
<totfact> 0.40628238E+03</totfact>
</mgrwt>
</event>
<event>
 4    1  0.4821294E-002  0.4682025E+03  0.7818608E-02  0.1022429E+00
         21   -1    0    0  501  502  0.00000000000E+00  0.00000000000E+00  0.99214780284E+03  0.99214780284E+03  0.00000000000E+00 0. -1.
         21   -1    0    0  502  503 -0.00000000000E+00 -0.00000000000E+00 -0.50845643896E+03  0.50845643896E+03  0.00000000000E+00 0.  1.
    9000007    1    1    2  501    0  0.22992239596E+03  0.79682122521E+02  0.80604717908E+03  0.93216179053E+03  0.40000000000E+03 0. -1.
   -9000007    1    1    2    0  503 -0.22992239596E+03 -0.79682122521E+02 -0.32235581520E+03  0.56844245127E+03  0.40000000000E+03 0.  1.
<mgrwt>
<rscale>  2 0.46820247E+03</rscale>
<asrwt>0</asrwt>
<pdfrwt beam="1">  1       21 0.15263812E+00 0.46820247E+03</pdfrwt>
<pdfrwt beam="2">  1       21 0.78224068E-01 0.46820247E+03</pdfrwt>
<totfact> 0.33813157E+02</totfact>
</mgrwt>
</event>
<event>
 4    1  0.4821294E-002  0.4291132E+03  0.7818608E-02  0.1034140E+00
         21   -1    0    0  501  502  0.00000000000E+00  0.00000000000E+00  0.19490391745E+03  0.19490391745E+03  0.00000000000E+00 0.  1.
         21   -1    0    0  502  503 -0.00000000000E+00 -0.00000000000E+00 -0.10854742109E+04  0.10854742109E+04  0.00000000000E+00 0.  1.
    9000007    1    1    2  501    0  0.10808962972E+03 -0.11160107770E+03 -0.21479010429E+03  0.47986764581E+03  0.40000000000E+03 0.  1.
   -9000007    1    1    2    0  503 -0.10808962972E+03  0.11160107770E+03 -0.67578018916E+03  0.80051048254E+03  0.40000000000E+03 0.  1.
<mgrwt>
<rscale>  2 0.42911324E+03</rscale>
<asrwt>0</asrwt>
<pdfrwt beam="1">  1       21 0.29985218E-01 0.42911324E+03</pdfrwt>
<pdfrwt beam="2">  1       21 0.16699603E+00 0.42911324E+03</pdfrwt>
<totfact> 0.20570505E+03</totfact>
</mgrwt>
</event>
<event>
 4    1  0.4821294E-002  0.6249750E+03  0.7818608E-02  0.9854904E-01
         21   -1    0    0  503  502  0.00000000000E+00  0.00000000000E+00  0.13645793580E+04  0.13645793580E+04  0.00000000000E+00 0.  1.
         21   -1    0    0  501  503 -0.00000000000E+00 -0.00000000000E+00 -0.42917174008E+03  0.42917174008E+03  0.00000000000E+00 0. -1.
    9000007    1    1    2  501    0 -0.42173402185E+03  0.22963916842E+03  0.98529255067E+03  0.11667883884E+04  0.40000000000E+03 0.  1.
   -9000007    1    1    2    0  502  0.42173402185E+03 -0.22963916842E+03 -0.49884932727E+02  0.62696270972E+03  0.40000000000E+03 0. -1.
<mgrwt>
<rscale>  2 0.62497499E+03</rscale>
<asrwt>0</asrwt>
<pdfrwt beam="1">  1       21 0.20993528E+00 0.62497499E+03</pdfrwt>
<pdfrwt beam="2">  1       21 0.66026422E-01 0.62497499E+03</pdfrwt>
<totfact> 0.18208337E+02</totfact>
</mgrwt>
</event>
<event>
 4    1  0.4821294E-002  0.6881554E+03  0.7818608E-02  0.9737705E-01
         21   -1    0    0  501  502  0.00000000000E+00  0.00000000000E+00  0.68163513050E+03  0.68163513050E+03  0.00000000000E+00 0. -1.
         21   -1    0    0  502  503 -0.00000000000E+00 -0.00000000000E+00 -0.70232988588E+03  0.70232988588E+03  0.00000000000E+00 0.  1.
    9000007    1    1    2  501    0  0.26032877930E+03  0.49576882822E+03  0.61597576372E+02  0.69090669832E+03  0.40000000000E+03 0.  1.
   -9000007    1    1    2    0  503 -0.26032877930E+03 -0.49576882822E+03 -0.82292331752E+02  0.69305831806E+03  0.40000000000E+03 0. -1.
<mgrwt>
<rscale>  2 0.68815536E+03</rscale>
<asrwt>0</asrwt>
<pdfrwt beam="1">  1       21 0.10486694E+00 0.68815536E+03</pdfrwt>
<pdfrwt beam="2">  1       21 0.10805075E+00 0.68815536E+03</pdfrwt>
<totfact> 0.38151823E+02</totfact>
</mgrwt>
</event>
<event>
 4    1  0.4821294E-002  0.7014482E+03  0.7818608E-02  0.9714759E-01
         21   -1    0    0  501  502  0.00000000000E+00  0.00000000000E+00  0.13421871915E+04  0.13421871915E+04  0.00000000000E+00 0. -1.
         21   -1    0    0  502  503 -0.00000000000E+00 -0.00000000000E+00 -0.36829597116E+03  0.36829597116E+03  0.00000000000E+00 0.  1.
    9000007    1    1    2  501    0 -0.31872535372E+03 -0.48004558621E+03  0.54518814552E+03  0.88840290970E+03  0.40000000000E+03 0.  1.
   -9000007    1    1    2    0  503  0.31872535372E+03  0.48004558621E+03  0.42870307481E+03  0.82208025295E+03  0.40000000000E+03 0. -1.
<mgrwt>
<rscale>  2 0.70144823E+03</rscale>
<asrwt>0</asrwt>
<pdfrwt beam="1">  1       21 0.20649033E+00 0.70144823E+03</pdfrwt>
<pdfrwt beam="2">  1       21 0.56660919E-01 0.70144823E+03</pdfrwt>
<totfact> 0.26230277E+02</totfact>
</mgrwt>
</event>
<event>
 4    1  0.4821294E-002  0.4210286E+03  0.7818608E-02  0.1036732E+00
         21   -1    0    0  501  502  0.00000000000E+00  0.00000000000E+00  0.60819284628E+03  0.60819284628E+03  0.00000000000E+00 0. -1.
         21   -1    0    0  502  503 -0.00000000000E+00 -0.00000000000E+00 -0.98390385578E+03  0.98390385578E+03  0.00000000000E+00 0. -1.
    9000007    1    1    2  501    0  0.62547956003E+02 -0.11555439872E+03  0.47995737525E+03  0.63845449949E+03  0.40000000000E+03 0. -1.
   -9000007    1    1    2    0  503 -0.62547956003E+02  0.11555439872E+03 -0.85566838475E+03  0.95364220257E+03  0.40000000000E+03 0. -1.
<mgrwt>
<rscale>  2 0.42102858E+03</rscale>
<asrwt>0</asrwt>
<pdfrwt beam="1">  1       21 0.93568131E-01 0.42102858E+03</pdfrwt>
<pdfrwt beam="2">  1       21 0.15136982E+00 0.42102858E+03</pdfrwt>
<totfact> 0.23281586E+02</totfact>
</mgrwt>
</event>
<event>
 4    1  0.4821294E-002  0.4001304E+03  0.7818608E-02  0.1043735E+00
         21   -1    0    0  501  502  0.00000000000E+00  0.00000000000E+00  0.17256670702E+03  0.17256670702E+03  0.00000000000E+00 0.  1.
         21   -1    0    0  502  503 -0.00000000000E+00 -0.00000000000E+00 -0.10843298013E+04  0.10843298013E+04  0.00000000000E+00 0.  1.
    9000007    1    1    2  501    0  0.99011946457E+01  0.25074114261E+01 -0.21709380870E+03  0.45522965912E+03  0.40000000000E+03 0.  1.
   -9000007    1    1    2    0  503 -0.99011946457E+01 -0.25074114261E+01 -0.69466928558E+03  0.80166684920E+03  0.40000000000E+03 0.  1.
<mgrwt>
<rscale>  2 0.40013038E+03</rscale>
<asrwt>0</asrwt>
<pdfrwt beam="1">  1       21 0.26548725E-01 0.40013038E+03</pdfrwt>
<pdfrwt beam="2">  1       21 0.16681997E+00 0.40013038E+03</pdfrwt>
<totfact> 0.26553251E+03</totfact>
</mgrwt>
</event>
<event>
 4    1  0.4821294E-002  0.6069037E+03  0.7818608E-02  0.9891186E-01
         21   -1    0    0  503  502  0.00000000000E+00  0.00000000000E+00  0.52165566300E+03  0.52165566300E+03  0.00000000000E+00 0. -1.
         21   -1    0    0  501  503 -0.00000000000E+00 -0.00000000000E+00 -0.10587044828E+04  0.10587044828E+04  0.00000000000E+00 0. -1.
    9000007    1    1    2  501    0  0.43120731033E+03  0.14964072634E+03  0.18750536962E+03  0.63520890666E+03  0.40000000000E+03 0. -1.
   -9000007    1    1    2    0  502 -0.43120731033E+03 -0.14964072634E+03 -0.72455418946E+03  0.94515123918E+03  0.40000000000E+03 0. -1.
<mgrwt>
<rscale>  2 0.60690369E+03</rscale>
<asrwt>0</asrwt>
<pdfrwt beam="1">  1       21 0.80254719E-01 0.60690369E+03</pdfrwt>
<pdfrwt beam="2">  1       21 0.16287761E+00 0.60690369E+03</pdfrwt>
<totfact> 0.25119943E+02</totfact>
</mgrwt>
</event>
<event>
 4    1  0.4821294E-002  0.4229648E+03  0.7818608E-02  0.1036106E+00
         21   -1    0    0  501  502  0.00000000000E+00  0.00000000000E+00  0.34799466455E+03  0.34799466455E+03  0.00000000000E+00 0.  1.
         21   -1    0    0  502  503 -0.00000000000E+00 -0.00000000000E+00 -0.11986005823E+04  0.11986005823E+04  0.00000000000E+00 0.  1.
    9000007    1    1    2  501    0 -0.61177924275E+02  0.12311165719E+03  0.15908432202E+03  0.45189273071E+03  0.40000000000E+03 0.  1.
   -9000007    1    1    2    0  503  0.61177924275E+02 -0.12311165719E+03 -0.10096902398E+04  0.10947025161E+04  0.40000000000E+03 0.  1.
<mgrwt>
<rscale>  2 0.42296480E+03</rscale>
<asrwt>0</asrwt>
<pdfrwt beam="1">  1       21 0.53537641E-01 0.42296480E+03</pdfrwt>
<pdfrwt beam="2">  1       21 0.18440009E+00 0.42296480E+03</pdfrwt>
<totfact> 0.46944032E+02</totfact>
</mgrwt>
</event>
<event>
 4    1  0.4821294E-002  0.5007286E+03  0.7818608E-02  0.1013589E+00
         21   -1    0    0  501  502  0.00000000000E+00  0.00000000000E+00  0.17070064973E+04  0.17070064973E+04  0.00000000000E+00 0. -1.
         21   -1    0    0  502  503 -0.00000000000E+00 -0.00000000000E+00 -0.19478882206E+03  0.19478882206E+03  0.00000000000E+00 0.  1.
    9000007    1    1    2  501    0 -0.22246785599E+03  0.20306932597E+03  0.12276818373E+04  0.13258702016E+04  0.40000000000E+03 0. -1.
   -9000007    1    1    2    0  503  0.22246785599E+03 -0.20306932597E+03  0.28453583794E+03  0.57592511767E+03  0.40000000000E+03 0.  1.
<mgrwt>
<rscale>  2 0.50072857E+03</rscale>
<asrwt>0</asrwt>
<pdfrwt beam="1">  1       21 0.26261637E+00 0.50072857E+03</pdfrwt>
<pdfrwt beam="2">  1       21 0.29967512E-01 0.50072857E+03</pdfrwt>
<totfact> 0.47086786E+02</totfact>
</mgrwt>
</event>
<event>
 4    1  0.4821294E-002  0.4624188E+03  0.7818608E-02  0.1024082E+00
         21   -1    0    0  501  502  0.00000000000E+00  0.00000000000E+00  0.55825824954E+03  0.55825824954E+03  0.00000000000E+00 0.  1.
         21   -1    0    0  502  503 -0.00000000000E+00 -0.00000000000E+00 -0.93491690818E+03  0.93491690818E+03  0.00000000000E+00 0.  1.
    9000007    1    1    2  501    0 -0.38138875562E+02 -0.22885923890E+03  0.38528271871E+03  0.60189193249E+03  0.40000000000E+03 0.  1.
   -9000007    1    1    2    0  503  0.38138875562E+02  0.22885923890E+03 -0.76194137734E+03  0.89128322523E+03  0.40000000000E+03 0.  1.
<mgrwt>
<rscale>  2 0.46241878E+03</rscale>
<asrwt>0</asrwt>
<pdfrwt beam="1">  1       21 0.85885885E-01 0.46241878E+03</pdfrwt>
<pdfrwt beam="2">  1       21 0.14383337E+00 0.46241878E+03</pdfrwt>
<totfact> 0.32051639E+02</totfact>
</mgrwt>
</event>
<event>
 4    1  0.4821294E-002  0.4065035E+03  0.7818608E-02  0.1041551E+00
         21   -1    0    0  503  502  0.00000000000E+00  0.00000000000E+00  0.10855084346E+04  0.10855084346E+04  0.00000000000E+00 0. -1.
         21   -1    0    0  501  503 -0.00000000000E+00 -0.00000000000E+00 -0.15224828354E+03  0.15224828354E+03  0.00000000000E+00 0. -1.
    9000007    1    1    2  501    0  0.37581618783E+01 -0.72325232455E+02  0.45953313297E+03  0.61352731262E+03  0.40000000000E+03 0. -1.
   -9000007    1    1    2    0  502 -0.37581618783E+01  0.72325232455E+02  0.47372701806E+03  0.62422940548E+03  0.40000000000E+03 0. -1.
<mgrwt>
<rscale>  2 0.40650346E+03</rscale>
<asrwt>0</asrwt>
<pdfrwt beam="1">  1       21 0.16700129E+00 0.40650346E+03</pdfrwt>
<pdfrwt beam="2">  1       21 0.23422814E-01 0.40650346E+03</pdfrwt>
<totfact> 0.33663642E+03</totfact>
</mgrwt>
</event>
<event>
 4    1  0.4821294E-002  0.5169433E+03  0.7818608E-02  0.1009449E+00
         21   -1    0    0  501  502  0.00000000000E+00  0.00000000000E+00  0.75643970778E+03  0.75643970778E+03  0.00000000000E+00 0. -1.
         21   -1    0    0  502  503 -0.00000000000E+00 -0.00000000000E+00 -0.49345761752E+03  0.49345761752E+03  0.00000000000E+00 0. -1.
    9000007    1    1    2  501    0  0.98925446750E+02  0.31216042573E+03  0.46458615941E+03  0.69503285888E+03  0.40000000000E+03 0. -1.
   -9000007    1    1    2    0  503 -0.98925446750E+02 -0.31216042573E+03 -0.20160406914E+03  0.55486446643E+03  0.40000000000E+03 0. -1.
<mgrwt>
<rscale>  2 0.51694330E+03</rscale>
<asrwt>0</asrwt>
<pdfrwt beam="1">  1       21 0.11637534E+00 0.51694330E+03</pdfrwt>
<pdfrwt beam="2">  1       21 0.75916557E-01 0.51694330E+03</pdfrwt>
<totfact> 0.72381549E+02</totfact>
</mgrwt>
</event>
<event>
 4    1  0.4821294E-002  0.4980149E+03  0.7818608E-02  0.1014298E+00
         21   -1    0    0  503  502  0.00000000000E+00  0.00000000000E+00  0.65583565416E+03  0.65583565416E+03  0.00000000000E+00 0.  1.
         21   -1    0    0  501  503 -0.00000000000E+00 -0.00000000000E+00 -0.11833333668E+04  0.11833333668E+04  0.00000000000E+00 0. -1.
    9000007    1    1    2  501    0  0.29278272680E+03  0.47927820399E+02 -0.10222906372E+04  0.11371442072E+04  0.40000000000E+03 0. -1.
   -9000007    1    1    2    0  502 -0.29278272680E+03 -0.47927820399E+02  0.49479292450E+03  0.70202481382E+03  0.40000000000E+03 0.  1.
<mgrwt>
<rscale>  2 0.49801486E+03</rscale>
<asrwt>0</asrwt>
<pdfrwt beam="1">  1       21 0.10089779E+00 0.49801486E+03</pdfrwt>
<pdfrwt beam="2">  1       21 0.18205129E+00 0.49801486E+03</pdfrwt>
<totfact> 0.11062149E+02</totfact>
</mgrwt>
</event>
<event>
 4    1  0.4821294E-002  0.4033849E+03  0.7818608E-02  0.1042614E+00
         21   -1    0    0  503  502  0.00000000000E+00  0.00000000000E+00  0.13764886702E+04  0.13764886702E+04  0.00000000000E+00 0.  1.
         21   -1    0    0  501  503 -0.00000000000E+00 -0.00000000000E+00 -0.13052665893E+03  0.13052665893E+03  0.00000000000E+00 0.  1.
    9000007    1    1    2  501    0 -0.52132900440E+02  0.12302663129E+01  0.85441398557E+03  0.94485057634E+03  0.40000000000E+03 0.  1.
   -9000007    1    1    2    0  502  0.52132900440E+02 -0.12302663129E+01  0.39154802574E+03  0.56216475283E+03  0.40000000000E+03 0.  1.
<mgrwt>
<rscale>  2 0.40338487E+03</rscale>
<asrwt>0</asrwt>
<pdfrwt beam="1">  1       21 0.21176748E+00 0.40338487E+03</pdfrwt>
<pdfrwt beam="2">  1       21 0.20081025E-01 0.40338487E+03</pdfrwt>
<totfact> 0.22341896E+03</totfact>
</mgrwt>
</event>
<event>
 4    1  0.4821294E-002  0.4479541E+03  0.7818608E-02  0.1028334E+00
         21   -1    0    0  503  502  0.00000000000E+00  0.00000000000E+00  0.28391266826E+03  0.28391266826E+03  0.00000000000E+00 0.  1.
         21   -1    0    0  501  503 -0.00000000000E+00 -0.00000000000E+00 -0.17047269012E+04  0.17047269012E+04  0.00000000000E+00 0. -1.
    9000007    1    1    2  501    0  0.18619399972E+03  0.77425461354E+02 -0.14711765785E+04  0.15378632685E+04  0.40000000000E+03 0. -1.
   -9000007    1    1    2    0  502 -0.18619399972E+03 -0.77425461354E+02  0.50362345577E+02  0.45077630090E+03  0.40000000000E+03 0.  1.
<mgrwt>
<rscale>  2 0.44795414E+03</rscale>
<asrwt>0</asrwt>
<pdfrwt beam="1">  1       21 0.43678873E-01 0.44795414E+03</pdfrwt>
<pdfrwt beam="2">  1       21 0.26226567E+00 0.44795414E+03</pdfrwt>
<totfact> 0.22601354E+02</totfact>
</mgrwt>
</event>
<event>
 4    1  0.4821294E-002  0.5053754E+03  0.7818608E-02  0.1012385E+00
         21   -1    0    0  501  502  0.00000000000E+00  0.00000000000E+00  0.36780078622E+03  0.36780078622E+03  0.00000000000E+00 0. -1.
         21   -1    0    0  502  503 -0.00000000000E+00 -0.00000000000E+00 -0.14340336955E+04  0.14340336955E+04  0.00000000000E+00 0.  1.
    9000007    1    1    2  501    0  0.23007235542E+03  0.20608489106E+03  0.11389332637E+03  0.51805015282E+03  0.40000000000E+03 0. -1.
   -9000007    1    1    2    0  503 -0.23007235542E+03 -0.20608489106E+03 -0.11801262356E+04  0.12837843289E+04  0.40000000000E+03 0.  1.
<mgrwt>
<rscale>  2 0.50537538E+03</rscale>
<asrwt>0</asrwt>
<pdfrwt beam="1">  1       21 0.56584736E-01 0.50537538E+03</pdfrwt>
<pdfrwt beam="2">  1       21 0.22062057E+00 0.50537538E+03</pdfrwt>
<totfact> 0.22954170E+02</totfact>
</mgrwt>
</event>
<event>
 4    1  0.4821294E-002  0.5131726E+03  0.7818608E-02  0.1010397E+00
         21   -1    0    0  503  502  0.00000000000E+00  0.00000000000E+00  0.52124408908E+03  0.52124408908E+03  0.00000000000E+00 0.  1.
         21   -1    0    0  501  503 -0.00000000000E+00 -0.00000000000E+00 -0.57053305031E+03  0.57053305031E+03  0.00000000000E+00 0. -1.
    9000007    1    1    2  501    0  0.91370354541E+01 -0.32134501993E+03 -0.20933447540E+03  0.55422651492E+03  0.40000000000E+03 0.  1.
   -9000007    1    1    2    0  502 -0.91370354541E+01  0.32134501993E+03  0.16004551417E+03  0.53755062446E+03  0.40000000000E+03 0.  1.
<mgrwt>
<rscale>  2 0.51317259E+03</rscale>
<asrwt>0</asrwt>
<pdfrwt beam="1">  1       21 0.80191398E-01 0.51317259E+03</pdfrwt>
<pdfrwt beam="2">  1       21 0.87774315E-01 0.51317259E+03</pdfrwt>
<totfact> 0.12723317E+03</totfact>
</mgrwt>
</event>
<event>
 4    1  0.4821294E-002  0.4729300E+03  0.7818608E-02  0.1021096E+00
         21   -1    0    0  503  502  0.00000000000E+00  0.00000000000E+00  0.11600891295E+04  0.11600891295E+04  0.00000000000E+00 0. -1.
         21   -1    0    0  501  503 -0.00000000000E+00 -0.00000000000E+00 -0.21489064717E+03  0.21489064717E+03  0.00000000000E+00 0.  1.
    9000007    1    1    2  501    0  0.15418459290E+02 -0.25184328386E+03  0.69303510082E+03  0.83902349161E+03  0.40000000000E+03 0.  1.
   -9000007    1    1    2    0  502 -0.15418459290E+02  0.25184328386E+03  0.25216338151E+03  0.53595628505E+03  0.40000000000E+03 0. -1.
<mgrwt>
<rscale>  2 0.47292998E+03</rscale>
<asrwt>0</asrwt>
<pdfrwt beam="1">  1       21 0.17847525E+00 0.47292998E+03</pdfrwt>
<pdfrwt beam="2">  1       21 0.33060100E-01 0.47292998E+03</pdfrwt>
<totfact> 0.13733083E+03</totfact>
</mgrwt>
</event>
<event>
 4    1  0.4821294E-002  0.4322361E+03  0.7818608E-02  0.1033156E+00
         21   -1    0    0  501  502  0.00000000000E+00  0.00000000000E+00  0.32858019873E+03  0.32858019873E+03  0.00000000000E+00 0.  1.
         21   -1    0    0  502  503 -0.00000000000E+00 -0.00000000000E+00 -0.64848041950E+03  0.64848041950E+03  0.00000000000E+00 0.  1.
    9000007    1    1    2  501    0 -0.10624238782E+03 -0.12466211952E+03  0.11518590039E+02  0.43238960086E+03  0.40000000000E+03 0.  1.
   -9000007    1    1    2    0  503  0.10624238782E+03  0.12466211952E+03 -0.33141881081E+03  0.54467101738E+03  0.40000000000E+03 0.  1.
<mgrwt>
<rscale>  2 0.43223615E+03</rscale>
<asrwt>0</asrwt>
<pdfrwt beam="1">  1       21 0.50550800E-01 0.43223615E+03</pdfrwt>
<pdfrwt beam="2">  1       21 0.99766218E-01 0.43223615E+03</pdfrwt>
<totfact> 0.26846906E+03</totfact>
</mgrwt>
</event>
<event>
 4    1  0.4821294E-002  0.4566242E+03  0.7818608E-02  0.1025765E+00
         21   -1    0    0  503  502  0.00000000000E+00  0.00000000000E+00  0.42440304697E+03  0.42440304697E+03  0.00000000000E+00 0.  1.
         21   -1    0    0  501  503 -0.00000000000E+00 -0.00000000000E+00 -0.72927984583E+03  0.72927984583E+03  0.00000000000E+00 0.  1.
    9000007    1    1    2  501    0  0.21902316091E+03  0.23119393160E+02 -0.48196244181E+03  0.66392277162E+03  0.40000000000E+03 0.  1.
   -9000007    1    1    2    0  502 -0.21902316091E+03 -0.23119393160E+02  0.17708564296E+03  0.48976012118E+03  0.40000000000E+03 0.  1.
<mgrwt>
<rscale>  2 0.45662419E+03</rscale>
<asrwt>0</asrwt>
<pdfrwt beam="1">  1       21 0.65292777E-01 0.45662419E+03</pdfrwt>
<pdfrwt beam="2">  1       21 0.11219690E+00 0.45662419E+03</pdfrwt>
<totfact> 0.11413296E+03</totfact>
</mgrwt>
</event>
<event>
 4    1  0.4821294E-002  0.4726558E+03  0.7818608E-02  0.1021173E+00
         21   -1    0    0  503  502  0.00000000000E+00  0.00000000000E+00  0.40318850577E+03  0.40318850577E+03  0.00000000000E+00 0. -1.
         21   -1    0    0  501  503 -0.00000000000E+00 -0.00000000000E+00 -0.57091157988E+03  0.57091157988E+03  0.00000000000E+00 0. -1.
    9000007    1    1    2  501    0 -0.24515569560E+03  0.57464988286E+02 -0.26346344362E+00  0.47265591012E+03  0.40000000000E+03 0. -1.
   -9000007    1    1    2    0  502  0.24515569560E+03 -0.57464988286E+02 -0.16745961067E+03  0.50144417553E+03  0.40000000000E+03 0. -1.
<mgrwt>
<rscale>  2 0.47265584E+03</rscale>
<asrwt>0</asrwt>
<pdfrwt beam="1">  1       21 0.62029000E-01 0.47265584E+03</pdfrwt>
<pdfrwt beam="2">  1       21 0.87832551E-01 0.47265584E+03</pdfrwt>
<totfact> 0.23024210E+03</totfact>
</mgrwt>
</event>
<event>
 4    1  0.4821294E-002  0.4750345E+03  0.7818608E-02  0.1020509E+00
         21   -1    0    0  503  502  0.00000000000E+00  0.00000000000E+00  0.88219245493E+03  0.88219245493E+03  0.00000000000E+00 0. -1.
         21   -1    0    0  501  503 -0.00000000000E+00 -0.00000000000E+00 -0.26928957384E+03  0.26928957384E+03  0.00000000000E+00 0.  1.
    9000007    1    1    2  501    0 -0.28771750371E+02  0.25461735950E+03  0.43534894476E+03  0.64434968541E+03  0.40000000000E+03 0. -1.
   -9000007    1    1    2    0  502  0.28771750371E+02 -0.25461735950E+03  0.17755393632E+03  0.50713234336E+03  0.40000000000E+03 0.  1.
<mgrwt>
<rscale>  2 0.47503454E+03</rscale>
<asrwt>0</asrwt>
<pdfrwt beam="1">  1       21 0.13572191E+00 0.47503454E+03</pdfrwt>
<pdfrwt beam="2">  1       21 0.41429166E-01 0.47503454E+03</pdfrwt>
<totfact> 0.18461159E+03</totfact>
</mgrwt>
</event>
<event>
 4    1  0.4821294E-002  0.5074643E+03  0.7818608E-02  0.1011849E+00
         21   -1    0    0  501  502  0.00000000000E+00  0.00000000000E+00  0.61988180964E+03  0.61988180964E+03  0.00000000000E+00 0. -1.
         21   -1    0    0  502  503 -0.00000000000E+00 -0.00000000000E+00 -0.42455226603E+03  0.42455226603E+03  0.00000000000E+00 0.  1.
    9000007    1    1    2  501    0 -0.25509401695E+03  0.18013077470E+03  0.17419601189E+03  0.53652987245E+03  0.40000000000E+03 0. -1.
   -9000007    1    1    2    0  503  0.25509401695E+03 -0.18013077470E+03  0.21133531715E+02  0.50790420321E+03  0.40000000000E+03 0. -1.
<mgrwt>
<rscale>  2 0.50746434E+03</rscale>
<asrwt>0</asrwt>
<pdfrwt beam="1">  1       21 0.95366432E-01 0.50746434E+03</pdfrwt>
<pdfrwt beam="2">  1       21 0.65315733E-01 0.50746434E+03</pdfrwt>
<totfact> 0.16675562E+03</totfact>
</mgrwt>
</event>
<event>
 4    1  0.4821294E-002  0.4565660E+03  0.7818608E-02  0.1025782E+00
         21   -1    0    0  503  502  0.00000000000E+00  0.00000000000E+00  0.74437624940E+03  0.74437624940E+03  0.00000000000E+00 0. -1.
         21   -1    0    0  501  503 -0.00000000000E+00 -0.00000000000E+00 -0.28050335136E+03  0.28050335136E+03  0.00000000000E+00 0. -1.
    9000007    1    1    2  501    0 -0.20525173237E+03  0.79524889937E+02  0.25284321034E+03  0.52190245331E+03  0.40000000000E+03 0. -1.
   -9000007    1    1    2    0  502  0.20525173237E+03 -0.79524889937E+02  0.21102968771E+03  0.50297714745E+03  0.40000000000E+03 0. -1.
<mgrwt>
<rscale>  2 0.45656597E+03</rscale>
<asrwt>0</asrwt>
<pdfrwt beam="1">  1       21 0.11451942E+00 0.45656597E+03</pdfrwt>
<pdfrwt beam="2">  1       21 0.43154362E-01 0.45656597E+03</pdfrwt>
<totfact> 0.26415592E+03</totfact>
</mgrwt>
</event>
<event>
 4    1  0.4821294E-002  0.4313903E+03  0.7818608E-02  0.1033422E+00
         21   -1    0    0  501  502  0.00000000000E+00  0.00000000000E+00  0.52560146064E+03  0.52560146064E+03  0.00000000000E+00 0. -1.
         21   -1    0    0  502  503 -0.00000000000E+00 -0.00000000000E+00 -0.45743782171E+03  0.45743782171E+03  0.00000000000E+00 0. -1.
    9000007    1    1    2  501    0  0.53293678779E+02 -0.15250380633E+03  0.26773723186E+03  0.50772123500E+03  0.40000000000E+03 0. -1.
   -9000007    1    1    2    0  503 -0.53293678779E+02  0.15250380633E+03 -0.19957359293E+03  0.47531804735E+03  0.40000000000E+03 0. -1.
<mgrwt>
<rscale>  2 0.43139034E+03</rscale>
<asrwt>0</asrwt>
<pdfrwt beam="1">  1       21 0.80861763E-01 0.43139034E+03</pdfrwt>
<pdfrwt beam="2">  1       21 0.70375049E-01 0.43139034E+03</pdfrwt>
<totfact> 0.21402924E+03</totfact>
</mgrwt>
</event>
<event>
 4    1  0.4821294E-002  0.4374435E+03  0.7818608E-02  0.1031534E+00
         21   -1    0    0  503  502  0.00000000000E+00  0.00000000000E+00  0.31927136779E+03  0.31927136779E+03  0.00000000000E+00 0. -1.
         21   -1    0    0  501  503 -0.00000000000E+00 -0.00000000000E+00 -0.10354148099E+04  0.10354148099E+04  0.00000000000E+00 0. -1.
    9000007    1    1    2  501    0  0.97063667468E+02 -0.14810623857E+03 -0.79763830385E+03  0.90971626193E+03  0.40000000000E+03 0. -1.
   -9000007    1    1    2    0  502 -0.97063667468E+02  0.14810623857E+03  0.81494861744E+02  0.44496991577E+03  0.40000000000E+03 0. -1.
<mgrwt>
<rscale>  2 0.43744350E+03</rscale>
<asrwt>0</asrwt>
<pdfrwt beam="1">  1       21 0.49118672E-01 0.43744350E+03</pdfrwt>
<pdfrwt beam="2">  1       21 0.15929459E+00 0.43744350E+03</pdfrwt>
<totfact> 0.85108837E+02</totfact>
</mgrwt>
</event>
<event>
 4    1  0.4821294E-002  0.4335937E+03  0.7818608E-02  0.1032731E+00
         21   -1    0    0  503  502  0.00000000000E+00  0.00000000000E+00  0.40765499273E+03  0.40765499273E+03  0.00000000000E+00 0. -1.
         21   -1    0    0  501  503 -0.00000000000E+00 -0.00000000000E+00 -0.48473419116E+03  0.48473419116E+03  0.00000000000E+00 0.  1.
    9000007    1    1    2  501    0 -0.16004594223E+03 -0.48875705129E+02 -0.13689070296E+03  0.45468956743E+03  0.40000000000E+03 0.  1.
   -9000007    1    1    2    0  502  0.16004594223E+03  0.48875705129E+02  0.59811504524E+02  0.43769961646E+03  0.40000000000E+03 0. -1.
<mgrwt>
<rscale>  2 0.43359375E+03</rscale>
<asrwt>0</asrwt>
<pdfrwt beam="1">  1       21 0.62716153E-01 0.43359375E+03</pdfrwt>
<pdfrwt beam="2">  1       21 0.74574491E-01 0.43359375E+03</pdfrwt>
<totfact> 0.33289690E+03</totfact>
</mgrwt>
</event>
<event>
 4    1  0.4821294E-002  0.4069289E+03  0.7818608E-02  0.1041407E+00
         21   -1    0    0  501  502  0.00000000000E+00  0.00000000000E+00  0.11643409110E+04  0.11643409110E+04  0.00000000000E+00 0. -1.
         21   -1    0    0  502  503 -0.00000000000E+00 -0.00000000000E+00 -0.44864408099E+03  0.44864408099E+03  0.00000000000E+00 0. -1.
    9000007    1    1    2  501    0 -0.71958649111E+02 -0.20324264036E+02  0.10243661090E+04  0.11022327559E+04  0.40000000000E+03 0. -1.
   -9000007    1    1    2    0  503  0.71958649111E+02  0.20324264036E+02 -0.30866927899E+03  0.51075223610E+03  0.40000000000E+03 0. -1.
<mgrwt>
<rscale>  2 0.40692889E+03</rscale>
<asrwt>0</asrwt>
<pdfrwt beam="1">  1       21 0.17912937E+00 0.40692889E+03</pdfrwt>
<pdfrwt beam="2">  1       21 0.69022167E-01 0.40692889E+03</pdfrwt>
<totfact> 0.29527166E+02</totfact>
</mgrwt>
</event>
<event>
 4    1  0.4821294E-002  0.5105603E+03  0.7818608E-02  0.1011059E+00
         21   -1    0    0  503  502  0.00000000000E+00  0.00000000000E+00  0.26855476959E+03  0.26855476959E+03  0.00000000000E+00 0.  1.
         21   -1    0    0  501  503 -0.00000000000E+00 -0.00000000000E+00 -0.97990242946E+03  0.97990242946E+03  0.00000000000E+00 0.  1.
    9000007    1    1    2  501    0  0.31717201078E+03 -0.85885456381E+01 -0.29500669373E+03  0.58966159522E+03  0.40000000000E+03 0.  1.
   -9000007    1    1    2    0  502 -0.31717201078E+03  0.85885456381E+01 -0.41634096614E+03  0.65879560383E+03  0.40000000000E+03 0.  1.
<mgrwt>
<rscale>  2 0.51056033E+03</rscale>
<asrwt>0</asrwt>
<pdfrwt beam="1">  1       21 0.41316119E-01 0.51056033E+03</pdfrwt>
<pdfrwt beam="2">  1       21 0.15075422E+00 0.51056033E+03</pdfrwt>
<totfact> 0.13821838E+03</totfact>
</mgrwt>
</event>
<event>
 4    1  0.4821294E-002  0.4299769E+03  0.7818608E-02  0.1033867E+00
         21   -1    0    0  503  502  0.00000000000E+00  0.00000000000E+00  0.21420187263E+03  0.21420187263E+03  0.00000000000E+00 0.  1.
         21   -1    0    0  501  503 -0.00000000000E+00 -0.00000000000E+00 -0.10379882188E+04  0.10379882188E+04  0.00000000000E+00 0.  1.
    9000007    1    1    2  501    0  0.15672904874E+03 -0.17779240049E+02 -0.15490681289E+03  0.45702977668E+03  0.40000000000E+03 0.  1.
   -9000007    1    1    2    0  502 -0.15672904874E+03  0.17779240049E+02 -0.66887953331E+03  0.79516031476E+03  0.40000000000E+03 0.  1.
<mgrwt>
<rscale>  2 0.42997686E+03</rscale>
<asrwt>0</asrwt>
<pdfrwt beam="1">  1       21 0.32954134E-01 0.42997686E+03</pdfrwt>
<pdfrwt beam="2">  1       21 0.15969049E+00 0.42997686E+03</pdfrwt>
<totfact> 0.19305537E+03</totfact>
</mgrwt>
</event>
<event>
 4    1  0.4821294E-002  0.5371157E+03  0.7818608E-02  0.1004521E+00
         21   -1    0    0  503  502  0.00000000000E+00  0.00000000000E+00  0.83721940025E+03  0.83721940025E+03  0.00000000000E+00 0.  1.
         21   -1    0    0  501  503 -0.00000000000E+00 -0.00000000000E+00 -0.50033704308E+03  0.50033704308E+03  0.00000000000E+00 0.  1.
    9000007    1    1    2  501    0 -0.22084202814E+03  0.28235100859E+03 -0.20469519994E+03  0.57479858936E+03  0.40000000000E+03 0.  1.
   -9000007    1    1    2    0  502  0.22084202814E+03 -0.28235100859E+03  0.54157755711E+03  0.76275785398E+03  0.40000000000E+03 0.  1.
<mgrwt>
<rscale>  2 0.53711572E+03</rscale>
<asrwt>0</asrwt>
<pdfrwt beam="1">  1       21 0.12880298E+00 0.53711572E+03</pdfrwt>
<pdfrwt beam="2">  1       21 0.76974930E-01 0.53711572E+03</pdfrwt>
<totfact> 0.53633588E+02</totfact>
</mgrwt>
</event>
<event>
 4    1  0.4821294E-002  0.4311527E+03  0.7818608E-02  0.1033496E+00
         21   -1    0    0  503  502  0.00000000000E+00  0.00000000000E+00  0.22055282419E+04  0.22055282419E+04  0.00000000000E+00 0. -1.
         21   -1    0    0  501  503 -0.00000000000E+00 -0.00000000000E+00 -0.21482558646E+03  0.21482558646E+03  0.00000000000E+00 0. -1.
    9000007    1    1    2  501    0  0.13227774646E+03  0.91625794811E+02  0.51988332907E+02  0.43427580550E+03  0.40000000000E+03 0. -1.
   -9000007    1    1    2    0  502 -0.13227774646E+03 -0.91625794811E+02  0.19387143225E+04  0.19860780228E+04  0.40000000000E+03 0. -1.
<mgrwt>
<rscale>  2 0.43115274E+03</rscale>
<asrwt>0</asrwt>
<pdfrwt beam="1">  1       21 0.33931202E+00 0.43115274E+03</pdfrwt>
<pdfrwt beam="2">  1       21 0.33050092E-01 0.43115274E+03</pdfrwt>
<totfact> 0.13859959E+02</totfact>
</mgrwt>
</event>
<event>
 4    1  0.4821294E-002  0.4700024E+03  0.7818608E-02  0.1021920E+00
         21   -1    0    0  503  502  0.00000000000E+00  0.00000000000E+00  0.47144116573E+03  0.47144116573E+03  0.00000000000E+00 0.  1.
         21   -1    0    0  501  503 -0.00000000000E+00 -0.00000000000E+00 -0.57969337100E+03  0.57969337100E+03  0.00000000000E+00 0.  1.
    9000007    1    1    2  501    0 -0.12786055195E+03  0.21107808835E+03 -0.28423616275E+03  0.54926539700E+03  0.40000000000E+03 0.  1.
   -9000007    1    1    2    0  502  0.12786055195E+03 -0.21107808835E+03  0.17598395748E+03  0.50186913973E+03  0.40000000000E+03 0.  1.
<mgrwt>
<rscale>  2 0.47000243E+03</rscale>
<asrwt>0</asrwt>
<pdfrwt beam="1">  1       21 0.72529411E-01 0.47000243E+03</pdfrwt>
<pdfrwt beam="2">  1       21 0.89183595E-01 0.47000243E+03</pdfrwt>
<totfact> 0.15666857E+03</totfact>
</mgrwt>
</event>
<event>
 4    1  0.4821294E-002  0.4170480E+03  0.7818608E-02  0.1038031E+00
         21   -1    0    0  503  502  0.00000000000E+00  0.00000000000E+00  0.43811127954E+03  0.43811127954E+03  0.00000000000E+00 0.  1.
         21   -1    0    0  501  503 -0.00000000000E+00 -0.00000000000E+00 -0.41605195650E+03  0.41605195650E+03  0.00000000000E+00 0.  1.
    9000007    1    1    2  501    0  0.83478492611E+02  0.83428849944E+02 -0.80368340841E+02  0.42472120496E+03  0.40000000000E+03 0.  1.
   -9000007    1    1    2    0  502 -0.83478492611E+02 -0.83428849944E+02  0.10242766388E+03  0.42944203108E+03  0.40000000000E+03 0.  1.
<mgrwt>
<rscale>  2 0.41704800E+03</rscale>
<asrwt>0</asrwt>
<pdfrwt beam="1">  1       21 0.67401736E-01 0.41704800E+03</pdfrwt>
<pdfrwt beam="2">  1       21 0.64007993E-01 0.41704800E+03</pdfrwt>
<totfact> 0.40212469E+03</totfact>
</mgrwt>
</event>
<event>
 4    1  0.4821294E-002  0.5218804E+03  0.7818608E-02  0.1008220E+00
         21   -1    0    0  501  502  0.00000000000E+00  0.00000000000E+00  0.18321581259E+03  0.18321581259E+03  0.00000000000E+00 0.  1.
         21   -1    0    0  502  503 -0.00000000000E+00 -0.00000000000E+00 -0.15195021074E+04  0.15195021074E+04  0.00000000000E+00 0. -1.
    9000007    1    1    2  501    0  0.33389746366E+03 -0.29524066794E+02 -0.79351894395E+03  0.94975338965E+03  0.40000000000E+03 0. -1.
   -9000007    1    1    2    0  503 -0.33389746366E+03  0.29524066794E+02 -0.54276735082E+03  0.75296453029E+03  0.40000000000E+03 0.  1.
<mgrwt>
<rscale>  2 0.52188043E+03</rscale>
<asrwt>0</asrwt>
<pdfrwt beam="1">  1       21 0.28187048E-01 0.52188043E+03</pdfrwt>
<pdfrwt beam="2">  1       21 0.23376956E+00 0.52188043E+03</pdfrwt>
<totfact> 0.79488430E+02</totfact>
</mgrwt>
</event>
<event>
 4    1  0.4821294E-002  0.4856530E+03  0.7818608E-02  0.1017593E+00
         21   -1    0    0  503  502  0.00000000000E+00  0.00000000000E+00  0.13645044205E+04  0.13645044205E+04  0.00000000000E+00 0. -1.
         21   -1    0    0  501  503 -0.00000000000E+00 -0.00000000000E+00 -0.37295855493E+03  0.37295855493E+03  0.00000000000E+00 0. -1.
    9000007    1    1    2  501    0 -0.27310438464E+03  0.35676912768E+02 -0.14056046549E+03  0.50558490036E+03  0.40000000000E+03 0. -1.
   -9000007    1    1    2    0  502  0.27310438464E+03 -0.35676912768E+02  0.11321063310E+04  0.12318780750E+04  0.40000000000E+03 0. -1.
<mgrwt>
<rscale>  2 0.48565301E+03</rscale>
<asrwt>0</asrwt>
<pdfrwt beam="1">  1       21 0.20992375E+00 0.48565301E+03</pdfrwt>
<pdfrwt beam="2">  1       21 0.57378240E-01 0.48565301E+03</pdfrwt>
<totfact> 0.26374471E+02</totfact>
</mgrwt>
</event>
<event>
 4    1  0.4821294E-002  0.5100660E+03  0.7818608E-02  0.1011184E+00
         21   -1    0    0  501  502  0.00000000000E+00  0.00000000000E+00  0.37909858253E+03  0.37909858253E+03  0.00000000000E+00 0.  1.
         21   -1    0    0  502  503 -0.00000000000E+00 -0.00000000000E+00 -0.73688456149E+03  0.73688456149E+03  0.00000000000E+00 0.  1.
    9000007    1    1    2  501    0 -0.48646911907E+02 -0.31273121570E+03 -0.32665938067E+02  0.51111094571E+03  0.40000000000E+03 0.  1.
   -9000007    1    1    2    0  503  0.48646911907E+02  0.31273121570E+03 -0.32512004088E+03  0.60487219831E+03  0.40000000000E+03 0.  1.
<mgrwt>
<rscale>  2 0.51006601E+03</rscale>
<asrwt>0</asrwt>
<pdfrwt beam="1">  1       21 0.58322859E-01 0.51006601E+03</pdfrwt>
<pdfrwt beam="2">  1       21 0.11336686E+00 0.51006601E+03</pdfrwt>
<totfact> 0.13983093E+03</totfact>
</mgrwt>
</event>
<event>
 4    1  0.4821294E-002  0.4027091E+03  0.7818608E-02  0.1042846E+00
         21   -1    0    0  503  502  0.00000000000E+00  0.00000000000E+00  0.67290829635E+03  0.67290829635E+03  0.00000000000E+00 0. -1.
         21   -1    0    0  501  503 -0.00000000000E+00 -0.00000000000E+00 -0.26374818100E+03  0.26374818100E+03  0.00000000000E+00 0. -1.
    9000007    1    1    2  501    0  0.17557330303E+02  0.43201562668E+02  0.67056863895E+02  0.40825391347E+03  0.40000000000E+03 0.  1.
   -9000007    1    1    2    0  502 -0.17557330303E+02 -0.43201562668E+02  0.34210325146E+03  0.52840256389E+03  0.40000000000E+03 0.  1.
<mgrwt>
<rscale>  2 0.40270912E+03</rscale>
<asrwt>0</asrwt>
<pdfrwt beam="1">  1       21 0.10352435E+00 0.40270912E+03</pdfrwt>
<pdfrwt beam="2">  1       21 0.40576644E-01 0.40270912E+03</pdfrwt>
<totfact> 0.39307170E+03</totfact>
</mgrwt>
</event>
<event>
 4    1  0.4821294E-002  0.5110629E+03  0.7818608E-02  0.1010931E+00
         21   -1    0    0  503  502  0.00000000000E+00  0.00000000000E+00  0.11375606801E+04  0.11375606801E+04  0.00000000000E+00 0. -1.
         21   -1    0    0  501  503 -0.00000000000E+00 -0.00000000000E+00 -0.27211384743E+03  0.27211384743E+03  0.00000000000E+00 0. -1.
    9000007    1    1    2  501    0  0.20337947260E+03 -0.24458560918E+03  0.15412896464E+03  0.53379871472E+03  0.40000000000E+03 0. -1.
   -9000007    1    1    2    0  502 -0.20337947260E+03  0.24458560918E+03  0.71131786803E+03  0.87587581281E+03  0.40000000000E+03 0. -1.
<mgrwt>
<rscale>  2 0.51106294E+03</rscale>
<asrwt>0</asrwt>
<pdfrwt beam="1">  1       21 0.17500933E+00 0.51106294E+03</pdfrwt>
<pdfrwt beam="2">  1       21 0.41863669E-01 0.51106294E+03</pdfrwt>
<totfact> 0.88378190E+02</totfact>
</mgrwt>
</event>
<event>
 4    1  0.4821294E-002  0.4062424E+03  0.7818608E-02  0.1041639E+00
         21   -1    0    0  501  502  0.00000000000E+00  0.00000000000E+00  0.64573693988E+03  0.64573693988E+03  0.00000000000E+00 0. -1.
         21   -1    0    0  502  503 -0.00000000000E+00 -0.00000000000E+00 -0.30494900096E+03  0.30494900096E+03  0.00000000000E+00 0. -1.
    9000007    1    1    2  501    0  0.12905696049E+02 -0.69759190957E+02  0.36166605644E+03  0.54390738007E+03  0.40000000000E+03 0. -1.
   -9000007    1    1    2    0  503 -0.12905696049E+02  0.69759190957E+02 -0.20878117507E+02  0.40677856077E+03  0.40000000000E+03 0. -1.
<mgrwt>
<rscale>  2 0.40624242E+03</rscale>
<asrwt>0</asrwt>
<pdfrwt beam="1">  1       21 0.99344144E-01 0.40624242E+03</pdfrwt>
<pdfrwt beam="2">  1       21 0.46915231E-01 0.40624242E+03</pdfrwt>
<totfact> 0.32082703E+03</totfact>
</mgrwt>
</event>
<event>
 4    1  0.4821294E-002  0.4319060E+03  0.7818608E-02  0.1033260E+00
         21   -1    0    0  503  502  0.00000000000E+00  0.00000000000E+00  0.42408580780E+03  0.42408580780E+03  0.00000000000E+00 0. -1.
         21   -1    0    0  501  503 -0.00000000000E+00 -0.00000000000E+00 -0.44969407906E+03  0.44969407906E+03  0.00000000000E+00 0. -1.
    9000007    1    1    2  501    0  0.14326661812E+03 -0.77572346100E+02  0.51768811308E+02  0.43499747421E+03  0.40000000000E+03 0. -1.
   -9000007    1    1    2    0  502 -0.14326661812E+03  0.77572346100E+02 -0.77377082561E+02  0.43878241265E+03  0.40000000000E+03 0. -1.
<mgrwt>
<rscale>  2 0.43190600E+03</rscale>
<asrwt>0</asrwt>
<pdfrwt beam="1">  1       21 0.65243970E-01 0.43190600E+03</pdfrwt>
<pdfrwt beam="2">  1       21 0.69183704E-01 0.43190600E+03</pdfrwt>
<totfact> 0.36161418E+03</totfact>
</mgrwt>
</event>
<event>
 4    1  0.4821294E-002  0.5638653E+03  0.7818608E-02  0.9983347E-01
         21   -1    0    0  501  502  0.00000000000E+00  0.00000000000E+00  0.35326810676E+03  0.35326810676E+03  0.00000000000E+00 0.  1.
         21   -1    0    0  502  503 -0.00000000000E+00 -0.00000000000E+00 -0.10657283618E+04  0.10657283618E+04  0.00000000000E+00 0. -1.
    9000007    1    1    2  501    0  0.54219851331E+02  0.39370579779E+03 -0.76450382017E+02  0.56902434781E+03  0.40000000000E+03 0.  1.
   -9000007    1    1    2    0  503 -0.54219851331E+02 -0.39370579779E+03 -0.63600987306E+03  0.84997212079E+03  0.40000000000E+03 0. -1.
<mgrwt>
<rscale>  2 0.56386527E+03</rscale>
<asrwt>0</asrwt>
<pdfrwt beam="1">  1       21 0.54348939E-01 0.56386527E+03</pdfrwt>
<pdfrwt beam="2">  1       21 0.16395821E+00 0.56386527E+03</pdfrwt>
<totfact> 0.60039461E+02</totfact>
</mgrwt>
</event>
<event>
 4    1  0.4821294E-002  0.4346707E+03  0.7818608E-02  0.1032395E+00
         21   -1    0    0  501  502  0.00000000000E+00  0.00000000000E+00  0.22711006091E+04  0.22711006091E+04  0.00000000000E+00 0. -1.
         21   -1    0    0  502  503 -0.00000000000E+00 -0.00000000000E+00 -0.12333889461E+03  0.12333889461E+03  0.00000000000E+00 0. -1.
    9000007    1    1    2  501    0  0.16409897136E+03 -0.44834439564E+02  0.17569221735E+04  0.18098934010E+04  0.40000000000E+03 0. -1.
   -9000007    1    1    2    0  503 -0.16409897136E+03  0.44834439564E+02  0.39083954107E+03  0.58454610274E+03  0.40000000000E+03 0. -1.
<mgrwt>
<rscale>  2 0.43467068E+03</rscale>
<asrwt>0</asrwt>
<pdfrwt beam="1">  1       21 0.34940006E+00 0.43467068E+03</pdfrwt>
<pdfrwt beam="2">  1       21 0.18975216E-01 0.43467068E+03</pdfrwt>
<totfact> 0.35347200E+02</totfact>
</mgrwt>
</event>
<event>
 4    1  0.4821294E-002  0.4885702E+03  0.7818608E-02  0.1016806E+00
         21   -1    0    0  503  502  0.00000000000E+00  0.00000000000E+00  0.32656373162E+03  0.32656373162E+03  0.00000000000E+00 0. -1.
         21   -1    0    0  501  503 -0.00000000000E+00 -0.00000000000E+00 -0.76640662387E+03  0.76640662387E+03  0.00000000000E+00 0. -1.
    9000007    1    1    2  501    0 -0.27012992691E+03 -0.75701315404E+02 -0.33746916353E+03  0.59378978006E+03  0.40000000000E+03 0. -1.
   -9000007    1    1    2    0  502  0.27012992691E+03  0.75701315404E+02 -0.10237372872E+03  0.49918057544E+03  0.40000000000E+03 0. -1.
<mgrwt>
<rscale>  2 0.48857023E+03</rscale>
<asrwt>0</asrwt>
<pdfrwt beam="1">  1       21 0.50240574E-01 0.48857023E+03</pdfrwt>
<pdfrwt beam="2">  1       21 0.11790871E+00 0.48857023E+03</pdfrwt>
<totfact> 0.17615246E+03</totfact>
</mgrwt>
</event>
<event>
 4    1  0.4821294E-002  0.5453732E+03  0.7818608E-02  0.1002571E+00
         21   -1    0    0  501  502  0.00000000000E+00  0.00000000000E+00  0.48394020202E+03  0.48394020202E+03  0.00000000000E+00 0.  1.
         21   -1    0    0  502  503 -0.00000000000E+00 -0.00000000000E+00 -0.63206511085E+03  0.63206511085E+03  0.00000000000E+00 0.  1.
    9000007    1    1    2  501    0 -0.33067770744E+03 -0.16758342043E+03  0.18680710023E+02  0.54569306201E+03  0.40000000000E+03 0.  1.
   -9000007    1    1    2    0  503  0.33067770744E+03  0.16758342043E+03 -0.16680561885E+03  0.57031225086E+03  0.40000000000E+03 0.  1.
<mgrwt>
<rscale>  2 0.54537322E+03</rscale>
<asrwt>0</asrwt>
<pdfrwt beam="1">  1       21 0.74452339E-01 0.54537322E+03</pdfrwt>
<pdfrwt beam="2">  1       21 0.97240786E-01 0.54537322E+03</pdfrwt>
<totfact> 0.11689178E+03</totfact>
</mgrwt>
</event>
<event>
 4    1  0.4821294E-002  0.4336179E+03  0.7818608E-02  0.1032723E+00
         21   -1    0    0  503  502  0.00000000000E+00  0.00000000000E+00  0.34213127881E+03  0.34213127881E+03  0.00000000000E+00 0. -1.
         21   -1    0    0  501  503 -0.00000000000E+00 -0.00000000000E+00 -0.57210735202E+03  0.57210735202E+03  0.00000000000E+00 0. -1.
    9000007    1    1    2  501    0 -0.12901676970E+03  0.10667322934E+03 -0.20571965273E+03  0.47994278851E+03  0.40000000000E+03 0. -1.
   -9000007    1    1    2    0  502  0.12901676970E+03 -0.10667322934E+03 -0.24256420473E+02  0.43429584232E+03  0.40000000000E+03 0. -1.
<mgrwt>
<rscale>  2 0.43361792E+03</rscale>
<asrwt>0</asrwt>
<pdfrwt beam="1">  1       21 0.52635582E-01 0.43361792E+03</pdfrwt>
<pdfrwt beam="2">  1       21 0.88016514E-01 0.43361792E+03</pdfrwt>
<totfact> 0.33198460E+03</totfact>
</mgrwt>
</event>
<event>
 4    1  0.4821294E-002  0.5111592E+03  0.7818608E-02  0.1010907E+00
         21   -1    0    0  503  502  0.00000000000E+00  0.00000000000E+00  0.78560308586E+03  0.78560308586E+03  0.00000000000E+00 0. -1.
         21   -1    0    0  501  503 -0.00000000000E+00 -0.00000000000E+00 -0.75132480538E+03  0.75132480538E+03  0.00000000000E+00 0. -1.
    9000007    1    1    2  501    0  0.76315316370E+02 -0.30896560128E+03 -0.55655331276E+03  0.75566881651E+03  0.40000000000E+03 0. -1.
   -9000007    1    1    2    0  502 -0.76315316370E+02  0.30896560128E+03  0.59083159324E+03  0.78125907474E+03  0.40000000000E+03 0. -1.
<mgrwt>
<rscale>  2 0.51115924E+03</rscale>
<asrwt>0</asrwt>
<pdfrwt beam="1">  1       21 0.12086201E+00 0.51115924E+03</pdfrwt>
<pdfrwt beam="2">  1       21 0.11558843E+00 0.51115924E+03</pdfrwt>
<totfact> 0.24007669E+02</totfact>
</mgrwt>
</event>
<event>
 4    1  0.4821294E-002  0.4267141E+03  0.7818608E-02  0.1034903E+00
         21   -1    0    0  501  502  0.00000000000E+00  0.00000000000E+00  0.57923122973E+03  0.57923122973E+03  0.00000000000E+00 0.  1.
         21   -1    0    0  502  503 -0.00000000000E+00 -0.00000000000E+00 -0.35003078612E+03  0.35003078612E+03  0.00000000000E+00 0.  1.
    9000007    1    1    2  501    0 -0.14860042597E+03 -0.16753529140E+01 -0.33731796617E+02  0.42804524003E+03  0.40000000000E+03 0.  1.
   -9000007    1    1    2    0  503  0.14860042597E+03  0.16753529140E+01  0.26293224023E+03  0.50121677581E+03  0.40000000000E+03 0.  1.
<mgrwt>
<rscale>  2 0.42671407E+03</rscale>
<asrwt>0</asrwt>
<pdfrwt beam="1">  1       21 0.89112497E-01 0.42671407E+03</pdfrwt>
<pdfrwt beam="2">  1       21 0.53850890E-01 0.42671407E+03</pdfrwt>
<totfact> 0.30780744E+03</totfact>
</mgrwt>
</event>
<event>
 4    1  0.4821294E-002  0.4698428E+03  0.7818608E-02  0.1021965E+00
         21   -1    0    0  501  502  0.00000000000E+00  0.00000000000E+00  0.18136465118E+04  0.18136465118E+04  0.00000000000E+00 0.  1.
         21   -1    0    0  502  503 -0.00000000000E+00 -0.00000000000E+00 -0.15410552142E+03  0.15410552142E+03  0.00000000000E+00 0.  1.
    9000007    1    1    2  501    0 -0.24173978508E+03  0.48105203108E+02  0.12808203394E+04  0.13642774556E+04  0.40000000000E+03 0.  1.
   -9000007    1    1    2    0  503  0.24173978508E+03 -0.48105203108E+02  0.37872065100E+03  0.60347457755E+03  0.40000000000E+03 0.  1.
<mgrwt>
<rscale>  2 0.46984278E+03</rscale>
<asrwt>0</asrwt>
<pdfrwt beam="1">  1       21 0.27902253E+00 0.46984278E+03</pdfrwt>
<pdfrwt beam="2">  1       21 0.23708543E-01 0.46984278E+03</pdfrwt>
<totfact> 0.60226642E+02</totfact>
</mgrwt>
</event>
<event>
 4    1  0.4821294E-002  0.4754856E+03  0.7818608E-02  0.1020383E+00
         21   -1    0    0  501  502  0.00000000000E+00  0.00000000000E+00  0.19539016075E+03  0.19539016075E+03  0.00000000000E+00 0.  1.
         21   -1    0    0  502  503 -0.00000000000E+00 -0.00000000000E+00 -0.12313345458E+04  0.12313345458E+04  0.00000000000E+00 0. -1.
    9000007    1    1    2  501    0 -0.13509088636E+03 -0.21871678064E+03 -0.69312449847E+03  0.84054039052E+03  0.40000000000E+03 0. -1.
   -9000007    1    1    2    0  503  0.13509088636E+03  0.21871678064E+03 -0.34281988656E+03  0.58618431601E+03  0.40000000000E+03 0. -1.
<mgrwt>
<rscale>  2 0.47548562E+03</rscale>
<asrwt>0</asrwt>
<pdfrwt beam="1">  1       21 0.30060025E-01 0.47548562E+03</pdfrwt>
<pdfrwt beam="2">  1       21 0.18943608E+00 0.47548562E+03</pdfrwt>
<totfact> 0.13915019E+03</totfact>
</mgrwt>
</event>
<event>
 4    1  0.4821294E-002  0.4067712E+03  0.7818608E-02  0.1041460E+00
         21   -1    0    0  503  502  0.00000000000E+00  0.00000000000E+00  0.64351397800E+03  0.64351397800E+03  0.00000000000E+00 0. -1.
         21   -1    0    0  501  503 -0.00000000000E+00 -0.00000000000E+00 -0.25983394554E+03  0.25983394554E+03  0.00000000000E+00 0. -1.
    9000007    1    1    2  501    0  0.79876653829E+01 -0.73477990506E+02  0.23796817634E+03  0.47126602979E+03  0.40000000000E+03 0.  1.
   -9000007    1    1    2    0  502 -0.79876653829E+01  0.73477990506E+02  0.14571185613E+03  0.43208189375E+03  0.40000000000E+03 0.  1.
<mgrwt>
<rscale>  2 0.40677121E+03</rscale>
<asrwt>0</asrwt>
<pdfrwt beam="1">  1       21 0.99002150E-01 0.40677121E+03</pdfrwt>
<pdfrwt beam="2">  1       21 0.39974453E-01 0.40677121E+03</pdfrwt>
<totfact> 0.45118877E+03</totfact>
</mgrwt>
</event>
<event>
 4    1  0.4821294E-002  0.4214528E+03  0.7818608E-02  0.1036594E+00
         21   -1    0    0  501  502  0.00000000000E+00  0.00000000000E+00  0.63793036714E+03  0.63793036714E+03  0.00000000000E+00 0.  1.
         21   -1    0    0  502  503 -0.00000000000E+00 -0.00000000000E+00 -0.30017569410E+03  0.30017569410E+03  0.00000000000E+00 0.  1.
    9000007    1    1    2  501    0 -0.29144792674E+02  0.12951088476E+03  0.29510817384E+03  0.51450104225E+03  0.40000000000E+03 0.  1.
   -9000007    1    1    2    0  503  0.29144792674E+02 -0.12951088476E+03  0.42646499198E+02  0.42360501898E+03  0.40000000000E+03 0.  1.
<mgrwt>
<rscale>  2 0.42145283E+03</rscale>
<asrwt>0</asrwt>
<pdfrwt beam="1">  1       21 0.98143133E-01 0.42145283E+03</pdfrwt>
<pdfrwt beam="2">  1       21 0.46180876E-01 0.42145283E+03</pdfrwt>
<totfact> 0.33952712E+03</totfact>
</mgrwt>
</event>
<event>
 4    1  0.4821294E-002  0.4495294E+03  0.7818608E-02  0.1027862E+00
         21   -1    0    0  501  502  0.00000000000E+00  0.00000000000E+00  0.19098396284E+03  0.19098396284E+03  0.00000000000E+00 0.  1.
         21   -1    0    0  502  503 -0.00000000000E+00 -0.00000000000E+00 -0.10815673804E+04  0.10815673804E+04  0.00000000000E+00 0.  1.
    9000007    1    1    2  501    0  0.44674816240E+02 -0.20020192565E+03 -0.53905210110E+03  0.70189302457E+03  0.40000000000E+03 0.  1.
   -9000007    1    1    2    0  503 -0.44674816240E+02  0.20020192565E+03 -0.35153131650E+03  0.57065831872E+03  0.40000000000E+03 0.  1.
<mgrwt>
<rscale>  2 0.44952937E+03</rscale>
<asrwt>0</asrwt>
<pdfrwt beam="1">  1       21 0.29382147E-01 0.44952937E+03</pdfrwt>
<pdfrwt beam="2">  1       21 0.16639499E+00 0.44952937E+03</pdfrwt>
<totfact> 0.21454185E+03</totfact>
</mgrwt>
</event>
<event>
 4    1  0.4821294E-002  0.4030090E+03  0.7818608E-02  0.1042743E+00
         21   -1    0    0  501  502  0.00000000000E+00  0.00000000000E+00  0.17268700501E+03  0.17268700501E+03  0.00000000000E+00 0.  1.
         21   -1    0    0  502  503 -0.00000000000E+00 -0.00000000000E+00 -0.11791777011E+04  0.11791777011E+04  0.00000000000E+00 0.  1.
    9000007    1    1    2  501    0  0.12458341709E+02 -0.47550346945E+02 -0.80733233398E+03  0.90233128244E+03  0.40000000000E+03 0.  1.
   -9000007    1    1    2    0  503 -0.12458341709E+02  0.47550346945E+02 -0.19915836206E+03  0.44953342362E+03  0.40000000000E+03 0.  1.
<mgrwt>
<rscale>  2 0.40300899E+03</rscale>
<asrwt>0</asrwt>
<pdfrwt beam="1">  1       21 0.26567232E-01 0.40300899E+03</pdfrwt>
<pdfrwt beam="2">  1       21 0.18141195E+00 0.40300899E+03</pdfrwt>
<totfact> 0.20824459E+03</totfact>
</mgrwt>
</event>
<event>
 4    1  0.4821294E-002  0.5862894E+03  0.7818608E-02  0.9934267E-01
         21   -1    0    0  503  502  0.00000000000E+00  0.00000000000E+00  0.12275608474E+04  0.12275608474E+04  0.00000000000E+00 0. -1.
         21   -1    0    0  501  503 -0.00000000000E+00 -0.00000000000E+00 -0.40458178569E+03  0.40458178569E+03  0.00000000000E+00 0. -1.
    9000007    1    1    2  501    0  0.53874794341E+02  0.42524435048E+03 -0.41331263772E+02  0.58774443804E+03  0.40000000000E+03 0. -1.
   -9000007    1    1    2    0  502 -0.53874794341E+02 -0.42524435048E+03  0.86431032547E+03  0.10443981950E+04  0.40000000000E+03 0. -1.
<mgrwt>
<rscale>  2 0.58628939E+03</rscale>
<asrwt>0</asrwt>
<pdfrwt beam="1">  1       21 0.18885551E+00 0.58628939E+03</pdfrwt>
<pdfrwt beam="2">  1       21 0.62243352E-01 0.58628939E+03</pdfrwt>
<totfact> 0.29269023E+02</totfact>
</mgrwt>
</event>
<event>
 4    1  0.4821294E-002  0.5310290E+03  0.7818608E-02  0.1005983E+00
         21   -1    0    0  503  502  0.00000000000E+00  0.00000000000E+00  0.85855416095E+03  0.85855416095E+03  0.00000000000E+00 0.  1.
         21   -1    0    0  501  503 -0.00000000000E+00 -0.00000000000E+00 -0.38459820127E+03  0.38459820127E+03  0.00000000000E+00 0.  1.
    9000007    1    1    2  501    0  0.34398310738E+03  0.60559390019E+02  0.47447600249E+03  0.71212308965E+03  0.40000000000E+03 0.  1.
   -9000007    1    1    2    0  502 -0.34398310738E+03 -0.60559390019E+02 -0.52004279911E+00  0.53102927257E+03  0.40000000000E+03 0.  1.
<mgrwt>
<rscale>  2 0.53102902E+03</rscale>
<asrwt>0</asrwt>
<pdfrwt beam="1">  1       21 0.13208526E+00 0.53102902E+03</pdfrwt>
<pdfrwt beam="2">  1       21 0.59168954E-01 0.53102902E+03</pdfrwt>
<totfact> 0.90901417E+02</totfact>
</mgrwt>
</event>
<event>
 4    1  0.4821294E-002  0.5010901E+03  0.7818608E-02  0.1013495E+00
         21   -1    0    0  503  502  0.00000000000E+00  0.00000000000E+00  0.64118075625E+03  0.64118075625E+03  0.00000000000E+00 0.  1.
         21   -1    0    0  501  503 -0.00000000000E+00 -0.00000000000E+00 -0.82449539156E+03  0.82449539156E+03  0.00000000000E+00 0. -1.
    9000007    1    1    2  501    0  0.26753503912E+03  0.13970084137E+03 -0.62266588284E+03  0.79925222796E+03  0.40000000000E+03 0. -1.
   -9000007    1    1    2    0  502 -0.26753503912E+03 -0.13970084137E+03  0.43935124753E+03  0.66642391985E+03  0.40000000000E+03 0.  1.
<mgrwt>
<rscale>  2 0.50109013E+03</rscale>
<asrwt>0</asrwt>
<pdfrwt beam="1">  1       21 0.98643194E-01 0.50109013E+03</pdfrwt>
<pdfrwt beam="2">  1       21 0.12684544E+00 0.50109013E+03</pdfrwt>
<totfact> 0.31516709E+02</totfact>
</mgrwt>
</event>
<event>
 4    1  0.4821294E-002  0.4370204E+03  0.7818608E-02  0.1031665E+00
         21   -1    0    0  503  502  0.00000000000E+00  0.00000000000E+00  0.37118620279E+03  0.37118620279E+03  0.00000000000E+00 0. -1.
         21   -1    0    0  501  503 -0.00000000000E+00 -0.00000000000E+00 -0.57629825067E+03  0.57629825067E+03  0.00000000000E+00 0. -1.
    9000007    1    1    2  501    0 -0.11838783456E+03  0.13027347483E+03 -0.25765077959E+03  0.50731723984E+03  0.40000000000E+03 0. -1.
   -9000007    1    1    2    0  502  0.11838783456E+03 -0.13027347483E+03  0.52538731703E+02  0.44016721362E+03  0.40000000000E+03 0. -1.
<mgrwt>
<rscale>  2 0.43702043E+03</rscale>
<asrwt>0</asrwt>
<pdfrwt beam="1">  1       21 0.57105569E-01 0.43702043E+03</pdfrwt>
<pdfrwt beam="2">  1       21 0.88661270E-01 0.43702043E+03</pdfrwt>
<totfact> 0.27338929E+03</totfact>
</mgrwt>
</event>
<event>
 4    1  0.4821294E-002  0.5379559E+03  0.7818608E-02  0.1004321E+00
         21   -1    0    0  501  502  0.00000000000E+00  0.00000000000E+00  0.11422229083E+04  0.11422229083E+04  0.00000000000E+00 0.  1.
         21   -1    0    0  502  503 -0.00000000000E+00 -0.00000000000E+00 -0.35475192151E+03  0.35475192151E+03  0.00000000000E+00 0.  1.
    9000007    1    1    2  501    0 -0.13962636810E+01 -0.35971454404E+03  0.79388137461E+03  0.95898078172E+03  0.40000000000E+03 0.  1.
   -9000007    1    1    2    0  503  0.13962636810E+01  0.35971454404E+03 -0.64103877808E+01  0.53799404813E+03  0.40000000000E+03 0.  1.
<mgrwt>
<rscale>  2 0.53795586E+03</rscale>
<asrwt>0</asrwt>
<pdfrwt beam="1">  1       21 0.17572660E+00 0.53795586E+03</pdfrwt>
<pdfrwt beam="2">  1       21 0.54577219E-01 0.53795586E+03</pdfrwt>
<totfact> 0.49247605E+02</totfact>
</mgrwt>
</event>
<event>
 4    1  0.4821294E-002  0.4422199E+03  0.7818608E-02  0.1030068E+00
         21   -1    0    0  501  502  0.00000000000E+00  0.00000000000E+00  0.47455405836E+03  0.47455405836E+03  0.00000000000E+00 0.  1.
         21   -1    0    0  502  503 -0.00000000000E+00 -0.00000000000E+00 -0.81513378346E+03  0.81513378346E+03  0.00000000000E+00 0.  1.
    9000007    1    1    2  501    0  0.15860998896E+03  0.10198680071E+03  0.28314707629E+03  0.52510065981E+03  0.40000000000E+03 0.  1.
   -9000007    1    1    2    0  503 -0.15860998896E+03 -0.10198680071E+03 -0.62372680139E+03  0.76458718201E+03  0.40000000000E+03 0.  1.
<mgrwt>
<rscale>  2 0.44221990E+03</rscale>
<asrwt>0</asrwt>
<pdfrwt beam="1">  1       21 0.73008317E-01 0.44221990E+03</pdfrwt>
<pdfrwt beam="2">  1       21 0.12540520E+00 0.44221990E+03</pdfrwt>
<totfact> 0.67422509E+02</totfact>
</mgrwt>
</event>
<event>
 4    1  0.4821294E-002  0.4300134E+03  0.7818608E-02  0.1033856E+00
         21   -1    0    0  501  502  0.00000000000E+00  0.00000000000E+00  0.80552059182E+03  0.80552059182E+03  0.00000000000E+00 0.  1.
         21   -1    0    0  502  503 -0.00000000000E+00 -0.00000000000E+00 -0.66068469892E+03  0.66068469892E+03  0.00000000000E+00 0.  1.
    9000007    1    1    2  501    0 -0.14252233830E+03  0.67815300320E+02  0.66462213503E+03  0.79160224497E+03  0.40000000000E+03 0.  1.
   -9000007    1    1    2    0  503  0.14252233830E+03 -0.67815300320E+02 -0.51978624212E+03  0.67460304578E+03  0.40000000000E+03 0.  1.
<mgrwt>
<rscale>  2 0.43001341E+03</rscale>
<asrwt>0</asrwt>
<pdfrwt beam="1">  1       21 0.12392625E+00 0.43001341E+03</pdfrwt>
<pdfrwt beam="2">  1       21 0.10164380E+00 0.43001341E+03</pdfrwt>
<totfact> 0.32157870E+02</totfact>
</mgrwt>
</event>
<event>
 4    1  0.4821294E-002  0.4098124E+03  0.7818608E-02  0.1040434E+00
         21   -1    0    0  503  502  0.00000000000E+00  0.00000000000E+00  0.88713278944E+03  0.88713278944E+03  0.00000000000E+00 0. -1.
         21   -1    0    0  501  503 -0.00000000000E+00 -0.00000000000E+00 -0.83307740641E+03  0.83307740641E+03  0.00000000000E+00 0. -1.
    9000007    1    1    2  501    0  0.36237074972E+02 -0.81443593439E+02 -0.72905999697E+03  0.83634601912E+03  0.40000000000E+03 0. -1.
   -9000007    1    1    2    0  502 -0.36237074972E+02  0.81443593439E+02  0.78311538000E+03  0.88386417673E+03  0.40000000000E+03 0. -1.
<mgrwt>
<rscale>  2 0.40981238E+03</rscale>
<asrwt>0</asrwt>
<pdfrwt beam="1">  1       21 0.13648197E+00 0.40981238E+03</pdfrwt>
<pdfrwt beam="2">  1       21 0.12816576E+00 0.40981238E+03</pdfrwt>
<totfact> 0.14170710E+02</totfact>
</mgrwt>
</event>
<event>
 4    1  0.4821294E-002  0.5395538E+03  0.7818608E-02  0.1003941E+00
         21   -1    0    0  503  502  0.00000000000E+00  0.00000000000E+00  0.54898283134E+03  0.54898283134E+03  0.00000000000E+00 0.  1.
         21   -1    0    0  501  503 -0.00000000000E+00 -0.00000000000E+00 -0.10178440958E+04  0.10178440958E+04  0.00000000000E+00 0. -1.
    9000007    1    1    2  501    0  0.19198695075E+03 -0.30701680358E+03 -0.77663531476E+03  0.94566416823E+03  0.40000000000E+03 0. -1.
   -9000007    1    1    2    0  502 -0.19198695075E+03  0.30701680358E+03  0.30777405035E+03  0.62116275887E+03  0.40000000000E+03 0.  1.
<mgrwt>
<rscale>  2 0.53955380E+03</rscale>
<asrwt>0</asrwt>
<pdfrwt beam="1">  1       21 0.84458898E-01 0.53955380E+03</pdfrwt>
<pdfrwt beam="2">  1       21 0.15659140E+00 0.53955380E+03</pdfrwt>
<totfact> 0.25559454E+02</totfact>
</mgrwt>
</event>
<event>
 4    1  0.4821294E-002  0.5397962E+03  0.7818608E-02  0.1003884E+00
         21   -1    0    0  501  502  0.00000000000E+00  0.00000000000E+00  0.10069521834E+04  0.10069521834E+04  0.00000000000E+00 0. -1.
         21   -1    0    0  502  503 -0.00000000000E+00 -0.00000000000E+00 -0.29734752446E+03  0.29734752446E+03  0.00000000000E+00 0. -1.
    9000007    1    1    2  501    0 -0.75621642902E+02 -0.35448743106E+03  0.24797128709E+03  0.59402839232E+03  0.40000000000E+03 0. -1.
   -9000007    1    1    2    0  503  0.75621642902E+02  0.35448743106E+03  0.46163337183E+03  0.71027131552E+03  0.40000000000E+03 0. -1.
<mgrwt>
<rscale>  2 0.53979623E+03</rscale>
<asrwt>0</asrwt>
<pdfrwt beam="1">  1       21 0.15491572E+00 0.53979623E+03</pdfrwt>
<pdfrwt beam="2">  1       21 0.45745773E-01 0.53979623E+03</pdfrwt>
<totfact> 0.10258532E+03</totfact>
</mgrwt>
</event>
<event>
 4    1  0.4821294E-002  0.4475239E+03  0.7818608E-02  0.1028463E+00
         21   -1    0    0  503  502  0.00000000000E+00  0.00000000000E+00  0.24888980129E+03  0.24888980129E+03  0.00000000000E+00 0. -1.
         21   -1    0    0  501  503 -0.00000000000E+00 -0.00000000000E+00 -0.99958157346E+03  0.99958157346E+03  0.00000000000E+00 0. -1.
    9000007    1    1    2  501    0  0.44475480850E+02  0.19570279559E+03 -0.65098613676E+03  0.78997506470E+03  0.40000000000E+03 0. -1.
   -9000007    1    1    2    0  502 -0.44475480850E+02 -0.19570279559E+03 -0.99705635410E+02  0.45849631005E+03  0.40000000000E+03 0. -1.
<mgrwt>
<rscale>  2 0.44752391E+03</rscale>
<asrwt>0</asrwt>
<pdfrwt beam="1">  1       21 0.38290738E-01 0.44752391E+03</pdfrwt>
<pdfrwt beam="2">  1       21 0.15378178E+00 0.44752391E+03</pdfrwt>
<totfact> 0.15690140E+03</totfact>
</mgrwt>
</event>
<event>
 4    1  0.4821294E-002  0.5235049E+03  0.7818608E-02  0.1007820E+00
         21   -1    0    0  503  502  0.00000000000E+00  0.00000000000E+00  0.11916565489E+04  0.11916565489E+04  0.00000000000E+00 0. -1.
         21   -1    0    0  501  503 -0.00000000000E+00 -0.00000000000E+00 -0.63541287458E+03  0.63541287458E+03  0.00000000000E+00 0.  1.
    9000007    1    1    2  501    0 -0.87728016421E+02  0.32613057849E+03 -0.45159849242E+03  0.69137439745E+03  0.40000000000E+03 0.  1.
   -9000007    1    1    2    0  502  0.87728016421E+02 -0.32613057849E+03  0.10078421668E+04  0.11356950261E+04  0.40000000000E+03 0. -1.
<mgrwt>
<rscale>  2 0.52350488E+03</rscale>
<asrwt>0</asrwt>
<pdfrwt beam="1">  1       21 0.18333178E+00 0.52350488E+03</pdfrwt>
<pdfrwt beam="2">  1       21 0.97755827E-01 0.52350488E+03</pdfrwt>
<totfact> 0.11559811E+02</totfact>
</mgrwt>
</event>
<event>
 4    1  0.4821294E-002  0.5080208E+03  0.7818608E-02  0.1011706E+00
         21   -1    0    0  503  502  0.00000000000E+00  0.00000000000E+00  0.22972494574E+04  0.22972494574E+04  0.00000000000E+00 0. -1.
         21   -1    0    0  501  503 -0.00000000000E+00 -0.00000000000E+00 -0.11234811134E+03  0.11234811134E+03  0.00000000000E+00 0. -1.
    9000007    1    1    2  501    0  0.28953775592E+03  0.11938609406E+03  0.10984905031E+04  0.12102753972E+04  0.40000000000E+03 0. -1.
   -9000007    1    1    2    0  502 -0.28953775592E+03 -0.11938609406E+03  0.10864108429E+04  0.11993221715E+04  0.40000000000E+03 0. -1.
<mgrwt>
<rscale>  2 0.50802082E+03</rscale>
<asrwt>0</asrwt>
<pdfrwt beam="1">  1       21 0.35342296E+00 0.50802082E+03</pdfrwt>
<pdfrwt beam="2">  1       21 0.17284327E-01 0.50802082E+03</pdfrwt>
<totfact> 0.38123886E+02</totfact>
</mgrwt>
</event>
<event>
 4    1  0.4821294E-002  0.4588756E+03  0.7818608E-02  0.1025108E+00
         21   -1    0    0  503  502  0.00000000000E+00  0.00000000000E+00  0.69026028494E+03  0.69026028494E+03  0.00000000000E+00 0. -1.
         21   -1    0    0  501  503 -0.00000000000E+00 -0.00000000000E+00 -0.30513219415E+03  0.30513219415E+03  0.00000000000E+00 0. -1.
    9000007    1    1    2  501    0 -0.13186204810E+03 -0.18215170374E+03  0.18461025284E+03  0.49461883138E+03  0.40000000000E+03 0. -1.
   -9000007    1    1    2    0  502  0.13186204810E+03  0.18215170374E+03  0.20051783794E+03  0.50077364771E+03  0.40000000000E+03 0. -1.
<mgrwt>
<rscale>  2 0.45887563E+03</rscale>
<asrwt>0</asrwt>
<pdfrwt beam="1">  1       21 0.10619389E+00 0.45887563E+03</pdfrwt>
<pdfrwt beam="2">  1       21 0.46943415E-01 0.45887563E+03</pdfrwt>
<totfact> 0.26688030E+03</totfact>
</mgrwt>
</event>
<event>
 4    1  0.4821294E-002  0.4541692E+03  0.7818608E-02  0.1026486E+00
         21   -1    0    0  501  502  0.00000000000E+00  0.00000000000E+00  0.11034295262E+03  0.11034295262E+03  0.00000000000E+00 0.  1.
         21   -1    0    0  502  503 -0.00000000000E+00 -0.00000000000E+00 -0.20726756018E+04  0.20726756018E+04  0.00000000000E+00 0.  1.
    9000007    1    1    2  501    0 -0.11428628782E+03 -0.18223150510E+03 -0.63929943822E+03  0.78420242843E+03  0.40000000000E+03 0.  1.
   -9000007    1    1    2    0  503  0.11428628782E+03  0.18223150510E+03 -0.13230332110E+04  0.13988161260E+04  0.40000000000E+03 0.  1.
<mgrwt>
<rscale>  2 0.45416922E+03</rscale>
<asrwt>0</asrwt>
<pdfrwt beam="1">  1       21 0.16975841E-01 0.45416922E+03</pdfrwt>
<pdfrwt beam="2">  1       21 0.31887312E+00 0.45416922E+03</pdfrwt>
<totfact> 0.66032883E+02</totfact>
</mgrwt>
</event>
<event>
 4    1  0.4821294E-002  0.5188317E+03  0.7818608E-02  0.1008977E+00
         21   -1    0    0  503  502  0.00000000000E+00  0.00000000000E+00  0.45423849462E+03  0.45423849462E+03  0.00000000000E+00 0. -1.
         21   -1    0    0  501  503 -0.00000000000E+00 -0.00000000000E+00 -0.62802178533E+03  0.62802178533E+03  0.00000000000E+00 0. -1.
    9000007    1    1    2  501    0  0.11771841425E+03 -0.30875344936E+03  0.41603789072E+02  0.52049706321E+03  0.40000000000E+03 0. -1.
   -9000007    1    1    2    0  502 -0.11771841425E+03  0.30875344936E+03 -0.21538707978E+03  0.56176321674E+03  0.40000000000E+03 0. -1.
<mgrwt>
<rscale>  2 0.51883169E+03</rscale>
<asrwt>0</asrwt>
<pdfrwt beam="1">  1       21 0.69882845E-01 0.51883169E+03</pdfrwt>
<pdfrwt beam="2">  1       21 0.96618736E-01 0.51883169E+03</pdfrwt>
<totfact> 0.13832076E+03</totfact>
</mgrwt>
</event>
<event>
 4    1  0.4821294E-002  0.4231022E+03  0.7818608E-02  0.1036061E+00
         21   -1    0    0  503  502  0.00000000000E+00  0.00000000000E+00  0.65169371059E+03  0.65169371059E+03  0.00000000000E+00 0. -1.
         21   -1    0    0  501  503 -0.00000000000E+00 -0.00000000000E+00 -0.41725230359E+03  0.41725230359E+03  0.00000000000E+00 0. -1.
    9000007    1    1    2  501    0 -0.35553925211E+02  0.13323448694E+03 -0.19518908477E+03  0.46595524347E+03  0.40000000000E+03 0. -1.
   -9000007    1    1    2    0  502  0.35553925211E+02 -0.13323448694E+03  0.42963049176E+03  0.60299077071E+03  0.40000000000E+03 0. -1.
<mgrwt>
<rscale>  2 0.42310225E+03</rscale>
<asrwt>0</asrwt>
<pdfrwt beam="1">  1       21 0.10026057E+00 0.42310225E+03</pdfrwt>
<pdfrwt beam="2">  1       21 0.64192662E-01 0.42310225E+03</pdfrwt>
<totfact> 0.15851656E+03</totfact>
</mgrwt>
</event>
<event>
 4    1  0.4821294E-002  0.5756717E+03  0.7818608E-02  0.9957206E-01
         21   -1    0    0  501  502  0.00000000000E+00  0.00000000000E+00  0.21184954524E+04  0.21184954524E+04  0.00000000000E+00 0.  1.
         21   -1    0    0  502  503 -0.00000000000E+00 -0.00000000000E+00 -0.22576415750E+03  0.22576415750E+03  0.00000000000E+00 0. -1.
    9000007    1    1    2  501    0 -0.95822681465E+02  0.40276033651E+03  0.15959258700E+04  0.16965781024E+04  0.40000000000E+03 0.  1.
   -9000007    1    1    2    0  503  0.95822681465E+02 -0.40276033651E+03  0.29680542491E+03  0.64768150754E+03  0.40000000000E+03 0. -1.
<mgrwt>
<rscale>  2 0.57567167E+03</rscale>
<asrwt>0</asrwt>
<pdfrwt beam="1">  1       21 0.32592236E+00 0.57567167E+03</pdfrwt>
<pdfrwt beam="2">  1       21 0.34732949E-01 0.57567167E+03</pdfrwt>
<totfact> 0.13910587E+02</totfact>
</mgrwt>
</event>
<event>
 4    1  0.4821294E-002  0.4277512E+03  0.7818608E-02  0.1034573E+00
         21   -1    0    0  501  502  0.00000000000E+00  0.00000000000E+00  0.14112418082E+04  0.14112418082E+04  0.00000000000E+00 0.  1.
         21   -1    0    0  502  503 -0.00000000000E+00 -0.00000000000E+00 -0.23369741817E+03  0.23369741817E+03  0.00000000000E+00 0.  1.
    9000007    1    1    2  501    0  0.13978346540E+03 -0.58580811461E+02  0.11375584088E+04  0.12153231101E+04  0.40000000000E+03 0.  1.
   -9000007    1    1    2    0  503 -0.13978346540E+03  0.58580811461E+02  0.39985981316E+02  0.42961611629E+03  0.40000000000E+03 0.  1.
<mgrwt>
<rscale>  2 0.42775125E+03</rscale>
<asrwt>0</asrwt>
<pdfrwt beam="1">  1       21 0.21711412E+00 0.42775125E+03</pdfrwt>
<pdfrwt beam="2">  1       21 0.35953450E-01 0.42775125E+03</pdfrwt>
<totfact> 0.65087126E+02</totfact>
</mgrwt>
</event>
<event>
 4    1  0.4821294E-002  0.4366947E+03  0.7818608E-02  0.1031766E+00
         21   -1    0    0  503  502  0.00000000000E+00  0.00000000000E+00  0.16281380464E+03  0.16281380464E+03  0.00000000000E+00 0.  1.
         21   -1    0    0  501  503 -0.00000000000E+00 -0.00000000000E+00 -0.11744256488E+04  0.11744256488E+04  0.00000000000E+00 0.  1.
    9000007    1    1    2  501    0 -0.16958572408E+03  0.44079012753E+02 -0.54035125004E+03  0.69475301409E+03  0.40000000000E+03 0.  1.
   -9000007    1    1    2    0  502  0.16958572408E+03 -0.44079012753E+02 -0.47126059412E+03  0.64248643935E+03  0.40000000000E+03 0.  1.
<mgrwt>
<rscale>  2 0.43669472E+03</rscale>
<asrwt>0</asrwt>
<pdfrwt beam="1">  1       21 0.25048277E-01 0.43669472E+03</pdfrwt>
<pdfrwt beam="2">  1       21 0.18068087E+00 0.43669472E+03</pdfrwt>
<totfact> 0.23286532E+03</totfact>
</mgrwt>
</event>
<event>
 4    1  0.4821294E-002  0.4712191E+03  0.7818608E-02  0.1021577E+00
         21   -1    0    0  501  502  0.00000000000E+00  0.00000000000E+00  0.73343704627E+03  0.73343704627E+03  0.00000000000E+00 0. -1.
         21   -1    0    0  502  503 -0.00000000000E+00 -0.00000000000E+00 -0.58433542307E+03  0.58433542307E+03  0.00000000000E+00 0. -1.
    9000007    1    1    2  501    0 -0.23347309303E+03 -0.86820504180E+02  0.53193908097E+03  0.71063821385E+03  0.40000000000E+03 0. -1.
   -9000007    1    1    2    0  503  0.23347309303E+03  0.86820504180E+02 -0.38283745778E+03  0.60713425549E+03  0.40000000000E+03 0. -1.
<mgrwt>
<rscale>  2 0.47121915E+03</rscale>
<asrwt>0</asrwt>
<pdfrwt beam="1">  1       21 0.11283647E+00 0.47121915E+03</pdfrwt>
<pdfrwt beam="2">  1       21 0.89897757E-01 0.47121915E+03</pdfrwt>
<totfact> 0.53702590E+02</totfact>
</mgrwt>
</event>
<event>
 4    1  0.4821294E-002  0.4373773E+03  0.7818608E-02  0.1031555E+00
         21   -1    0    0  501  502  0.00000000000E+00  0.00000000000E+00  0.32899196072E+03  0.32899196072E+03  0.00000000000E+00 0.  1.
         21   -1    0    0  502  503 -0.00000000000E+00 -0.00000000000E+00 -0.59286413631E+03  0.59286413631E+03  0.00000000000E+00 0.  1.
    9000007    1    1    2  501    0 -0.98368370587E+02 -0.14704604124E+03 -0.68036076646E+02  0.44263730333E+03  0.40000000000E+03 0.  1.
   -9000007    1    1    2    0  503  0.98368370587E+02  0.14704604124E+03 -0.19583609894E+03  0.47921879369E+03  0.40000000000E+03 0.  1.
<mgrwt>
<rscale>  2 0.43737727E+03</rscale>
<asrwt>0</asrwt>
<pdfrwt beam="1">  1       21 0.50614148E-01 0.43737727E+03</pdfrwt>
<pdfrwt beam="2">  1       21 0.91209867E-01 0.43737727E+03</pdfrwt>
<totfact> 0.33133035E+03</totfact>
</mgrwt>
</event>
<event>
 4    1  0.4821294E-002  0.4477084E+03  0.7818608E-02  0.1028408E+00
         21   -1    0    0  503  502  0.00000000000E+00  0.00000000000E+00  0.14949730868E+03  0.14949730868E+03  0.00000000000E+00 0.  1.
         21   -1    0    0  501  503 -0.00000000000E+00 -0.00000000000E+00 -0.16025609931E+04  0.16025609931E+04  0.00000000000E+00 0.  1.
    9000007    1    1    2  501    0  0.15174428203E+03 -0.13197138242E+03 -0.10805957010E+04  0.11696708263E+04  0.40000000000E+03 0.  1.
   -9000007    1    1    2    0  502 -0.15174428203E+03  0.13197138242E+03 -0.37246798342E+03  0.58238747546E+03  0.40000000000E+03 0.  1.
<mgrwt>
<rscale>  2 0.44770836E+03</rscale>
<asrwt>0</asrwt>
<pdfrwt beam="1">  1       21 0.22999586E-01 0.44770836E+03</pdfrwt>
<pdfrwt beam="2">  1       21 0.24654784E+00 0.44770836E+03</pdfrwt>
<totfact> 0.10185479E+03</totfact>
</mgrwt>
</event>
<event>
 4    1  0.4821294E-002  0.5960143E+03  0.7818608E-02  0.9913710E-01
         21   -1    0    0  501  502  0.00000000000E+00  0.00000000000E+00  0.93051412599E+03  0.93051412599E+03  0.00000000000E+00 0. -1.
         21   -1    0    0  502  503 -0.00000000000E+00 -0.00000000000E+00 -0.41596217731E+03  0.41596217731E+03  0.00000000000E+00 0. -1.
    9000007    1    1    2  501    0  0.19783485899E+03 -0.39508790820E+03  0.45032542931E+03  0.74701143158E+03  0.40000000000E+03 0. -1.
   -9000007    1    1    2    0  503 -0.19783485899E+03  0.39508790820E+03  0.64226519377E+02  0.59946487172E+03  0.40000000000E+03 0. -1.
<mgrwt>
<rscale>  2 0.59601433E+03</rscale>
<asrwt>0</asrwt>
<pdfrwt beam="1">  1       21 0.14315602E+00 0.59601433E+03</pdfrwt>
<pdfrwt beam="2">  1       21 0.63994181E-01 0.59601433E+03</pdfrwt>
<totfact> 0.60325632E+02</totfact>
</mgrwt>
</event>
<event>
 4    1  0.4821294E-002  0.5143963E+03  0.7818608E-02  0.1010088E+00
         21   -1    0    0  501  502  0.00000000000E+00  0.00000000000E+00  0.13164725268E+04  0.13164725268E+04  0.00000000000E+00 0. -1.
         21   -1    0    0  502  503 -0.00000000000E+00 -0.00000000000E+00 -0.42707586405E+03  0.42707586405E+03  0.00000000000E+00 0. -1.
    9000007    1    1    2  501    0  0.28660417399E+03 -0.14987182879E+03  0.10789827432E+04  0.11953272680E+04  0.40000000000E+03 0. -1.
   -9000007    1    1    2    0  503 -0.28660417399E+03  0.14987182879E+03 -0.18958608042E+03  0.54822112282E+03  0.40000000000E+03 0. -1.
<mgrwt>
<rscale>  2 0.51439627E+03</rscale>
<asrwt>0</asrwt>
<pdfrwt beam="1">  1       21 0.20253423E+00 0.51439627E+03</pdfrwt>
<pdfrwt beam="2">  1       21 0.65703979E-01 0.51439627E+03</pdfrwt>
<totfact> 0.21589808E+02</totfact>
</mgrwt>
</event>
<event>
 4    1  0.4821294E-002  0.6878533E+03  0.7818608E-02  0.9738233E-01
         21   -1    0    0  503  502  0.00000000000E+00  0.00000000000E+00  0.66473235630E+03  0.66473235630E+03  0.00000000000E+00 0. -1.
         21   -1    0    0  501  503 -0.00000000000E+00 -0.00000000000E+00 -0.10453882800E+04  0.10453882800E+04  0.00000000000E+00 0.  1.
    9000007    1    1    2  501    0 -0.54119594482E+03  0.14229935493E+03 -0.67336159028E+03  0.96257882190E+03  0.40000000000E+03 0.  1.
   -9000007    1    1    2    0  502  0.54119594482E+03 -0.14229935493E+03  0.29270566654E+03  0.74754181444E+03  0.40000000000E+03 0. -1.
<mgrwt>
<rscale>  2 0.68785330E+03</rscale>
<asrwt>0</asrwt>
<pdfrwt beam="1">  1       21 0.10226652E+00 0.68785330E+03</pdfrwt>
<pdfrwt beam="2">  1       21 0.16082897E+00 0.68785330E+03</pdfrwt>
<totfact> 0.14164394E+02</totfact>
</mgrwt>
</event>
<event>
 4    1  0.4821294E-002  0.4696976E+03  0.7818608E-02  0.1022006E+00
         21   -1    0    0  503  502  0.00000000000E+00  0.00000000000E+00  0.22353402816E+03  0.22353402816E+03  0.00000000000E+00 0.  1.
         21   -1    0    0  501  503 -0.00000000000E+00 -0.00000000000E+00 -0.18759425267E+04  0.18759425267E+04  0.00000000000E+00 0. -1.
    9000007    1    1    2  501    0  0.42222079315E+02 -0.24255542394E+03 -0.15488434135E+04  0.16184967585E+04  0.40000000000E+03 0.  1.
   -9000007    1    1    2    0  502 -0.42222079315E+02  0.24255542394E+03 -0.10356508502E+03  0.48097979635E+03  0.40000000000E+03 0.  1.
<mgrwt>
<rscale>  2 0.46969760E+03</rscale>
<asrwt>0</asrwt>
<pdfrwt beam="1">  1       21 0.34389850E-01 0.46969760E+03</pdfrwt>
<pdfrwt beam="2">  1       21 0.28860654E+00 0.46969760E+03</pdfrwt>
<totfact> 0.25266124E+02</totfact>
</mgrwt>
</event>
<event>
 4    1  0.4821294E-002  0.4177993E+03  0.7818608E-02  0.1037785E+00
         21   -1    0    0  501  502  0.00000000000E+00  0.00000000000E+00  0.11040170474E+04  0.11040170474E+04  0.00000000000E+00 0. -1.
         21   -1    0    0  502  503 -0.00000000000E+00 -0.00000000000E+00 -0.17662471992E+03  0.17662471992E+03  0.00000000000E+00 0. -1.
    9000007    1    1    2  501    0 -0.68284500757E+02  0.99465901600E+02  0.67101053063E+03  0.79045010648E+03  0.40000000000E+03 0. -1.
   -9000007    1    1    2    0  503  0.68284500757E+02 -0.99465901600E+02  0.25638179690E+03  0.49019166089E+03  0.40000000000E+03 0. -1.
<mgrwt>
<rscale>  2 0.41779928E+03</rscale>
<asrwt>0</asrwt>
<pdfrwt beam="1">  1       21 0.16984877E+00 0.41779928E+03</pdfrwt>
<pdfrwt beam="2">  1       21 0.27173034E-01 0.41779928E+03</pdfrwt>
<totfact> 0.23927822E+03</totfact>
</mgrwt>
</event>
<event>
 4    1  0.4821294E-002  0.4201123E+03  0.7818608E-02  0.1037030E+00
         21   -1    0    0  501  502  0.00000000000E+00  0.00000000000E+00  0.39580788532E+03  0.39580788532E+03  0.00000000000E+00 0.  1.
         21   -1    0    0  502  503 -0.00000000000E+00 -0.00000000000E+00 -0.52584888736E+03  0.52584888736E+03  0.00000000000E+00 0.  1.
    9000007    1    1    2  501    0 -0.48823810895E+02 -0.11878780435E+03  0.11465565601E+03  0.43547701022E+03  0.40000000000E+03 0.  1.
   -9000007    1    1    2    0  503  0.48823810895E+02  0.11878780435E+03 -0.24469665805E+03  0.48617976247E+03  0.40000000000E+03 0.  1.
<mgrwt>
<rscale>  2 0.42011226E+03</rscale>
<asrwt>0</asrwt>
<pdfrwt beam="1">  1       21 0.60893521E-01 0.42011226E+03</pdfrwt>
<pdfrwt beam="2">  1       21 0.80899829E-01 0.42011226E+03</pdfrwt>
<totfact> 0.29617562E+03</totfact>
</mgrwt>
</event>
<event>
 4    1  0.4821294E-002  0.5601743E+03  0.7818608E-02  0.9991660E-01
         21   -1    0    0  503  502  0.00000000000E+00  0.00000000000E+00  0.79718633628E+03  0.79718633628E+03  0.00000000000E+00 0. -1.
         21   -1    0    0  501  503 -0.00000000000E+00 -0.00000000000E+00 -0.40719101202E+03  0.40719101202E+03  0.00000000000E+00 0.  1.
    9000007    1    1    2  501    0 -0.23677531305E+03  0.31262230930E+03  0.85096153906E+02  0.56660092883E+03  0.40000000000E+03 0.  1.
   -9000007    1    1    2    0  502  0.23677531305E+03 -0.31262230930E+03  0.30489917036E+03  0.63777641947E+03  0.40000000000E+03 0. -1.
<mgrwt>
<rscale>  2 0.56017431E+03</rscale>
<asrwt>0</asrwt>
<pdfrwt beam="1">  1       21 0.12264405E+00 0.56017431E+03</pdfrwt>
<pdfrwt beam="2">  1       21 0.62644771E-01 0.56017431E+03</pdfrwt>
<totfact> 0.96197237E+02</totfact>
</mgrwt>
</event>
<event>
 4    1  0.4821294E-002  0.4199572E+03  0.7818608E-02  0.1037080E+00
         21   -1    0    0  503  502  0.00000000000E+00  0.00000000000E+00  0.12533419747E+04  0.12533419747E+04  0.00000000000E+00 0.  1.
         21   -1    0    0  501  503 -0.00000000000E+00 -0.00000000000E+00 -0.24100106352E+03  0.24100106352E+03  0.00000000000E+00 0.  1.
    9000007    1    1    2  501    0 -0.12790358371E+03  0.21770387579E+01  0.24188216531E+02  0.42065322540E+03  0.40000000000E+03 0.  1.
   -9000007    1    1    2    0  502  0.12790358371E+03 -0.21770387579E+01  0.98815269465E+03  0.10736898128E+04  0.40000000000E+03 0.  1.
<mgrwt>
<rscale>  2 0.41995722E+03</rscale>
<asrwt>0</asrwt>
<pdfrwt beam="1">  1       21 0.19282184E+00 0.41995722E+03</pdfrwt>
<pdfrwt beam="2">  1       21 0.37077088E-01 0.41995722E+03</pdfrwt>
<totfact> 0.88706326E+02</totfact>
</mgrwt>
</event>
<event>
 4    1  0.4821294E-002  0.4630569E+03  0.7818608E-02  0.1023898E+00
         21   -1    0    0  501  502  0.00000000000E+00  0.00000000000E+00  0.35772390666E+03  0.35772390666E+03  0.00000000000E+00 0. -1.
         21   -1    0    0  502  503 -0.00000000000E+00 -0.00000000000E+00 -0.85114851197E+03  0.85114851197E+03  0.00000000000E+00 0. -1.
    9000007    1    1    2  501    0  0.90096851177E+02  0.21518426384E+03  0.82007928688E+02  0.47026270357E+03  0.40000000000E+03 0. -1.
   -9000007    1    1    2    0  503 -0.90096851177E+02 -0.21518426384E+03 -0.57543253400E+03  0.73860971506E+03  0.40000000000E+03 0. -1.
<mgrwt>
<rscale>  2 0.46305692E+03</rscale>
<asrwt>0</asrwt>
<pdfrwt beam="1">  1       21 0.55034448E-01 0.46305692E+03</pdfrwt>
<pdfrwt beam="2">  1       21 0.13094592E+00 0.46305692E+03</pdfrwt>
<totfact> 0.11170048E+03</totfact>
</mgrwt>
</event>
<event>
 4    1  0.4821294E-002  0.4016005E+03  0.7818608E-02  0.1043227E+00
         21   -1    0    0  503  502  0.00000000000E+00  0.00000000000E+00  0.21271148691E+03  0.21271148691E+03  0.00000000000E+00 0. -1.
         21   -1    0    0  501  503 -0.00000000000E+00 -0.00000000000E+00 -0.88685115018E+03  0.88685115018E+03  0.00000000000E+00 0. -1.
    9000007    1    1    2  501    0 -0.34301753485E+02  0.10311991136E+02 -0.54644780465E+03  0.67815053688E+03  0.40000000000E+03 0. -1.
   -9000007    1    1    2    0  502  0.34301753485E+02 -0.10311991136E+02 -0.12769185861E+03  0.42141210022E+03  0.40000000000E+03 0. -1.
<mgrwt>
<rscale>  2 0.40160048E+03</rscale>
<asrwt>0</asrwt>
<pdfrwt beam="1">  1       21 0.32724844E-01 0.40160048E+03</pdfrwt>
<pdfrwt beam="2">  1       21 0.13643864E+00 0.40160048E+03</pdfrwt>
<totfact> 0.30295754E+03</totfact>
</mgrwt>
</event>
<event>
 4    1  0.4821294E-002  0.4115438E+03  0.7818608E-02  0.1039854E+00
         21   -1    0    0  501  502  0.00000000000E+00  0.00000000000E+00  0.10647091718E+04  0.10647091718E+04  0.00000000000E+00 0. -1.
         21   -1    0    0  502  503 -0.00000000000E+00 -0.00000000000E+00 -0.17264961520E+03  0.17264961520E+03  0.00000000000E+00 0. -1.
    9000007    1    1    2  501    0 -0.45978058964E+01  0.96680575292E+02  0.61951068621E+03  0.74374845464E+03  0.40000000000E+03 0. -1.
   -9000007    1    1    2    0  503  0.45978058964E+01 -0.96680575292E+02  0.27254887041E+03  0.49361033237E+03  0.40000000000E+03 0. -1.
<mgrwt>
<rscale>  2 0.41154377E+03</rscale>
<asrwt>0</asrwt>
<pdfrwt beam="1">  1       21 0.16380141E+00 0.41154377E+03</pdfrwt>
<pdfrwt beam="2">  1       21 0.26561480E-01 0.41154377E+03</pdfrwt>
<totfact> 0.27783652E+03</totfact>
</mgrwt>
</event>
<event>
 4    1  0.4821294E-002  0.4891837E+03  0.7818608E-02  0.1016641E+00
         21   -1    0    0  503  502  0.00000000000E+00  0.00000000000E+00  0.36188726229E+03  0.36188726229E+03  0.00000000000E+00 0. -1.
         21   -1    0    0  501  503 -0.00000000000E+00 -0.00000000000E+00 -0.66897251121E+03  0.66897251121E+03  0.00000000000E+00 0. -1.
    9000007    1    1    2  501    0 -0.27384178393E+03 -0.65661119207E+02 -0.20889429334E+03  0.53191872592E+03  0.40000000000E+03 0.  1.
   -9000007    1    1    2    0  502  0.27384178393E+03  0.65661119207E+02 -0.98190955574E+02  0.49894104758E+03  0.40000000000E+03 0.  1.
<mgrwt>
<rscale>  2 0.48918371E+03</rscale>
<asrwt>0</asrwt>
<pdfrwt beam="1">  1       21 0.55674964E-01 0.48918371E+03</pdfrwt>
<pdfrwt beam="2">  1       21 0.10291885E+00 0.48918371E+03</pdfrwt>
<totfact> 0.19807231E+03</totfact>
</mgrwt>
</event>
<event>
 4    1  0.4821294E-002  0.4182768E+03  0.7818608E-02  0.1037629E+00
         21   -1    0    0  501  502  0.00000000000E+00  0.00000000000E+00  0.38060979070E+03  0.38060979070E+03  0.00000000000E+00 0.  1.
         21   -1    0    0  502  503 -0.00000000000E+00 -0.00000000000E+00 -0.60703123694E+03  0.60703123694E+03  0.00000000000E+00 0.  1.
    9000007    1    1    2  501    0 -0.57072814217E+01 -0.12215933771E+03  0.13009538539E+03  0.43804142059E+03  0.40000000000E+03 0.  1.
   -9000007    1    1    2    0  503  0.57072814217E+01  0.12215933771E+03 -0.35651683163E+03  0.54959960706E+03  0.40000000000E+03 0.  1.
<mgrwt>
<rscale>  2 0.41827679E+03</rscale>
<asrwt>0</asrwt>
<pdfrwt beam="1">  1       21 0.58555353E-01 0.41827679E+03</pdfrwt>
<pdfrwt beam="2">  1       21 0.93389420E-01 0.41827679E+03</pdfrwt>
<totfact> 0.23051832E+03</totfact>
</mgrwt>
</event>
<event>
 4    1  0.4821294E-002  0.5125884E+03  0.7818608E-02  0.1010544E+00
         21   -1    0    0  501  502  0.00000000000E+00  0.00000000000E+00  0.15060279884E+04  0.15060279884E+04  0.00000000000E+00 0.  1.
         21   -1    0    0  502  503 -0.00000000000E+00 -0.00000000000E+00 -0.94075563889E+03  0.94075563889E+03  0.00000000000E+00 0. -1.
    9000007    1    1    2  501    0  0.20269418194E+03 -0.24831830263E+03  0.13867766763E+04  0.14784777511E+04  0.40000000000E+03 0.  1.
   -9000007    1    1    2    0  503 -0.20269418194E+03  0.24831830263E+03 -0.82150432677E+03  0.96830587611E+03  0.40000000000E+03 0. -1.
<mgrwt>
<rscale>  2 0.51258844E+03</rscale>
<asrwt>0</asrwt>
<pdfrwt beam="1">  1       21 0.23169661E+00 0.51258844E+03</pdfrwt>
<pdfrwt beam="2">  1       21 0.14473164E+00 0.51258844E+03</pdfrwt>
<totfact> 0.20458944E+01</totfact>
</mgrwt>
</event>
<event>
 4    1  0.4821294E-002  0.4317657E+03  0.7818608E-02  0.1033304E+00
         21   -1    0    0  501  502  0.00000000000E+00  0.00000000000E+00  0.27562591749E+03  0.27562591749E+03  0.00000000000E+00 0.  1.
         21   -1    0    0  502  503 -0.00000000000E+00 -0.00000000000E+00 -0.79587840223E+03  0.79587840223E+03  0.00000000000E+00 0.  1.
    9000007    1    1    2  501    0  0.13131433215E+03  0.95802672320E+02 -0.52509278339E+02  0.43494692798E+03  0.40000000000E+03 0.  1.
   -9000007    1    1    2    0  503 -0.13131433215E+03 -0.95802672320E+02 -0.46774320640E+03  0.63655739174E+03  0.40000000000E+03 0.  1.
<mgrwt>
<rscale>  2 0.43176568E+03</rscale>
<asrwt>0</asrwt>
<pdfrwt beam="1">  1       21 0.42403987E-01 0.43176568E+03</pdfrwt>
<pdfrwt beam="2">  1       21 0.12244283E+00 0.43176568E+03</pdfrwt>
<totfact> 0.23352485E+03</totfact>
</mgrwt>
</event>
<event>
 4    1  0.4821294E-002  0.4198465E+03  0.7818608E-02  0.1037116E+00
         21   -1    0    0  503  502  0.00000000000E+00  0.00000000000E+00  0.53717112888E+03  0.53717112888E+03  0.00000000000E+00 0. -1.
         21   -1    0    0  501  503 -0.00000000000E+00 -0.00000000000E+00 -0.66016826270E+03  0.66016826270E+03  0.00000000000E+00 0. -1.
    9000007    1    1    2  501    0 -0.12637201986E+03 -0.17353908533E+02 -0.48606236718E+03  0.64228316990E+03  0.40000000000E+03 0. -1.
   -9000007    1    1    2    0  502  0.12637201986E+03  0.17353908533E+02  0.36306523337E+03  0.55505622168E+03  0.40000000000E+03 0. -1.
<mgrwt>
<rscale>  2 0.41984645E+03</rscale>
<asrwt>0</asrwt>
<pdfrwt beam="1">  1       21 0.82641712E-01 0.41984645E+03</pdfrwt>
<pdfrwt beam="2">  1       21 0.10156435E+00 0.41984645E+03</pdfrwt>
<totfact> 0.86774686E+02</totfact>
</mgrwt>
</event>
<event>
 4    1  0.4821294E-002  0.5950724E+03  0.7818608E-02  0.9915682E-01
         21   -1    0    0  501  502  0.00000000000E+00  0.00000000000E+00  0.50389745749E+03  0.50389745749E+03  0.00000000000E+00 0.  1.
         21   -1    0    0  502  503 -0.00000000000E+00 -0.00000000000E+00 -0.72832764436E+03  0.72832764436E+03  0.00000000000E+00 0.  1.
    9000007    1    1    2  501    0  0.42034178957E+03  0.13199973638E+03  0.32561639622E+01  0.59508129954E+03  0.40000000000E+03 0.  1.
   -9000007    1    1    2    0  503 -0.42034178957E+03 -0.13199973638E+03 -0.22768635083E+03  0.63714380231E+03  0.40000000000E+03 0.  1.
<mgrwt>
<rscale>  2 0.59507239E+03</rscale>
<asrwt>0</asrwt>
<pdfrwt beam="1">  1       21 0.77522686E-01 0.59507239E+03</pdfrwt>
<pdfrwt beam="2">  1       21 0.11205041E+00 0.59507239E+03</pdfrwt>
<totfact> 0.73843008E+02</totfact>
</mgrwt>
</event>
<event>
 4    1  0.4821294E-002  0.4874047E+03  0.7818608E-02  0.1017120E+00
         21   -1    0    0  501  502  0.00000000000E+00  0.00000000000E+00  0.14635716049E+04  0.14635716049E+04  0.00000000000E+00 0. -1.
         21   -1    0    0  502  503 -0.00000000000E+00 -0.00000000000E+00 -0.48587065629E+03  0.48587065629E+03  0.00000000000E+00 0.  1.
    9000007    1    1    2  501    0 -0.11388647954E+03  0.25415201252E+03  0.12842637292E+04  0.13736435862E+04  0.40000000000E+03 0. -1.
   -9000007    1    1    2    0  503  0.11388647954E+03 -0.25415201252E+03 -0.30656278061E+03  0.57579867501E+03  0.40000000000E+03 0.  1.
<mgrwt>
<rscale>  2 0.48740473E+03</rscale>
<asrwt>0</asrwt>
<pdfrwt beam="1">  1       21 0.22516486E+00 0.48740473E+03</pdfrwt>
<pdfrwt beam="2">  1       21 0.74749332E-01 0.48740473E+03</pdfrwt>
<totfact> 0.11650608E+02</totfact>
</mgrwt>
</event>
<event>
 4    1  0.4821294E-002  0.4040093E+03  0.7818608E-02  0.1042400E+00
         21   -1    0    0  503  502  0.00000000000E+00  0.00000000000E+00  0.93335548919E+03  0.93335548919E+03  0.00000000000E+00 0.  1.
         21   -1    0    0  501  503 -0.00000000000E+00 -0.00000000000E+00 -0.17698241771E+03  0.17698241771E+03  0.00000000000E+00 0.  1.
    9000007    1    1    2  501    0 -0.51475610296E+02 -0.23953873566E+02  0.43872140374E+03  0.59640589921E+03  0.40000000000E+03 0.  1.
   -9000007    1    1    2    0  502  0.51475610296E+02  0.23953873566E+02  0.31765166774E+03  0.51393200769E+03  0.40000000000E+03 0.  1.
<mgrwt>
<rscale>  2 0.40400931E+03</rscale>
<asrwt>0</asrwt>
<pdfrwt beam="1">  1       21 0.14359315E+00 0.40400931E+03</pdfrwt>
<pdfrwt beam="2">  1       21 0.27228065E-01 0.40400931E+03</pdfrwt>
<totfact> 0.38046711E+03</totfact>
</mgrwt>
</event>
<event>
 4    1  0.4821294E-002  0.4292195E+03  0.7818608E-02  0.1034107E+00
         21   -1    0    0  503  502  0.00000000000E+00  0.00000000000E+00  0.15467892819E+03  0.15467892819E+03  0.00000000000E+00 0. -1.
         21   -1    0    0  501  503 -0.00000000000E+00 -0.00000000000E+00 -0.13322609328E+04  0.13322609328E+04  0.00000000000E+00 0. -1.
    9000007    1    1    2  501    0  0.68437670011E+01 -0.15550731365E+03 -0.83084520204E+03  0.93516475099E+03  0.40000000000E+03 0. -1.
   -9000007    1    1    2    0  502 -0.68437670011E+01  0.15550731365E+03 -0.34673680252E+03  0.55177510995E+03  0.40000000000E+03 0. -1.
<mgrwt>
<rscale>  2 0.42921948E+03</rscale>
<asrwt>0</asrwt>
<pdfrwt beam="1">  1       21 0.23796758E-01 0.42921948E+03</pdfrwt>
<pdfrwt beam="2">  1       21 0.20496322E+00 0.42921948E+03</pdfrwt>
<totfact> 0.17655340E+03</totfact>
</mgrwt>
</event>
<event>
 4    1  0.4821294E-002  0.4390195E+03  0.7818608E-02  0.1031048E+00
         21   -1    0    0  503  502  0.00000000000E+00  0.00000000000E+00  0.40268882118E+03  0.40268882118E+03  0.00000000000E+00 0.  1.
         21   -1    0    0  501  503 -0.00000000000E+00 -0.00000000000E+00 -0.68572012081E+03  0.68572012081E+03  0.00000000000E+00 0.  1.
    9000007    1    1    2  501    0 -0.12008567419E+03 -0.13534226753E+03 -0.44058407795E+03  0.62197462028E+03  0.40000000000E+03 0.  1.
   -9000007    1    1    2    0  502  0.12008567419E+03  0.13534226753E+03  0.15755277832E+03  0.46643432172E+03  0.40000000000E+03 0.  1.
<mgrwt>
<rscale>  2 0.43901947E+03</rscale>
<asrwt>0</asrwt>
<pdfrwt beam="1">  1       21 0.61952127E-01 0.43901947E+03</pdfrwt>
<pdfrwt beam="2">  1       21 0.10549540E+00 0.43901947E+03</pdfrwt>
<totfact> 0.15038972E+03</totfact>
</mgrwt>
</event>
<event>
 4    1  0.4821294E-002  0.4104498E+03  0.7818608E-02  0.1040220E+00
         21   -1    0    0  501  502  0.00000000000E+00  0.00000000000E+00  0.17385270378E+04  0.17385270378E+04  0.00000000000E+00 0. -1.
         21   -1    0    0  502  503 -0.00000000000E+00 -0.00000000000E+00 -0.15784851154E+03  0.15784851154E+03  0.00000000000E+00 0.  1.
    9000007    1    1    2  501    0 -0.72724203538E+01  0.91739447719E+02  0.13795136866E+04  0.14392800373E+04  0.40000000000E+03 0. -1.
   -9000007    1    1    2    0  503  0.72724203538E+01 -0.91739447719E+02  0.20116483964E+03  0.45709551198E+03  0.40000000000E+03 0.  1.
<mgrwt>
<rscale>  2 0.41044977E+03</rscale>
<asrwt>0</asrwt>
<pdfrwt beam="1">  1       21 0.26746568E+00 0.41044977E+03</pdfrwt>
<pdfrwt beam="2">  1       21 0.24284388E-01 0.41044977E+03</pdfrwt>
<totfact> 0.69744780E+02</totfact>
</mgrwt>
</event>
<event>
 4    1  0.4821294E-002  0.4861040E+03  0.7818608E-02  0.1017471E+00
         21   -1    0    0  503  502  0.00000000000E+00  0.00000000000E+00  0.89758542252E+03  0.89758542252E+03  0.00000000000E+00 0.  1.
         21   -1    0    0  501  503 -0.00000000000E+00 -0.00000000000E+00 -0.27499299781E+03  0.27499299781E+03  0.00000000000E+00 0.  1.
    9000007    1    1    2  501    0  0.98171025181E+02 -0.25818515378E+03  0.19018604074E+03  0.52198453417E+03  0.40000000000E+03 0.  1.
   -9000007    1    1    2    0  502 -0.98171025181E+02  0.25818515378E+03  0.43240638396E+03  0.65059388616E+03  0.40000000000E+03 0.  1.
<mgrwt>
<rscale>  2 0.48610403E+03</rscale>
<asrwt>0</asrwt>
<pdfrwt beam="1">  1       21 0.13809006E+00 0.48610403E+03</pdfrwt>
<pdfrwt beam="2">  1       21 0.42306616E-01 0.48610403E+03</pdfrwt>
<totfact> 0.16815405E+03</totfact>
</mgrwt>
</event>
<event>
 4    1  0.4821294E-002  0.7105448E+03  0.7818608E-02  0.9699367E-01
         21   -1    0    0  503  502  0.00000000000E+00  0.00000000000E+00  0.51918623394E+03  0.51918623394E+03  0.00000000000E+00 0. -1.
         21   -1    0    0  501  503 -0.00000000000E+00 -0.00000000000E+00 -0.11847241863E+04  0.11847241863E+04  0.00000000000E+00 0.  1.
    9000007    1    1    2  501    0 -0.57822255715E+03  0.10262824477E+03 -0.69340907146E+03  0.99281922957E+03  0.40000000000E+03 0.  1.
   -9000007    1    1    2    0  502  0.57822255715E+03 -0.10262824477E+03  0.27871119066E+02  0.71109119070E+03  0.40000000000E+03 0. -1.
<mgrwt>
<rscale>  2 0.71054478E+03</rscale>
<asrwt>0</asrwt>
<pdfrwt beam="1">  1       21 0.79874807E-01 0.71054478E+03</pdfrwt>
<pdfrwt beam="2">  1       21 0.18226526E+00 0.71054478E+03</pdfrwt>
<totfact> 0.17677897E+02</totfact>
</mgrwt>
</event>
<event>
 4    1  0.4821294E-002  0.4477002E+03  0.7818608E-02  0.1028410E+00
         21   -1    0    0  503  502  0.00000000000E+00  0.00000000000E+00  0.57986408643E+03  0.57986408643E+03  0.00000000000E+00 0.  1.
         21   -1    0    0  501  503 -0.00000000000E+00 -0.00000000000E+00 -0.36067672266E+03  0.36067672266E+03  0.00000000000E+00 0.  1.
    9000007    1    1    2  501    0 -0.71675797827E+02 -0.18787770217E+03  0.13634756375E+02  0.44790775562E+03  0.40000000000E+03 0.  1.
   -9000007    1    1    2    0  502  0.71675797827E+02  0.18787770217E+03  0.20555260739E+03  0.49263305347E+03  0.40000000000E+03 0.  1.
<mgrwt>
<rscale>  2 0.44770018E+03</rscale>
<asrwt>0</asrwt>
<pdfrwt beam="1">  1       21 0.89209859E-01 0.44770018E+03</pdfrwt>
<pdfrwt beam="2">  1       21 0.55488727E-01 0.44770018E+03</pdfrwt>
<totfact> 0.28561422E+03</totfact>
</mgrwt>
</event>
<event>
 4    1  0.4821294E-002  0.5668993E+03  0.7818608E-02  0.9976564E-01
         21   -1    0    0  501  502  0.00000000000E+00  0.00000000000E+00  0.15265546177E+04  0.15265546177E+04  0.00000000000E+00 0.  1.
         21   -1    0    0  502  503 -0.00000000000E+00 -0.00000000000E+00 -0.63310545058E+03  0.63310545058E+03  0.00000000000E+00 0.  1.
    9000007    1    1    2  501    0  0.34876572366E+03 -0.19934206074E+03  0.13289369248E+04  0.14448003797E+04  0.40000000000E+03 0.  1.
   -9000007    1    1    2    0  503 -0.34876572366E+03  0.19934206074E+03 -0.43548775770E+03  0.71485968853E+03  0.40000000000E+03 0.  1.
<mgrwt>
<rscale>  2 0.56689927E+03</rscale>
<asrwt>0</asrwt>
<pdfrwt beam="1">  1       21 0.23485456E+00 0.56689927E+03</pdfrwt>
<pdfrwt beam="2">  1       21 0.97400839E-01 0.56689927E+03</pdfrwt>
<totfact> 0.52123654E+01</totfact>
</mgrwt>
</event>
<event>
 4    1  0.4821294E-002  0.4351724E+03  0.7818608E-02  0.1032238E+00
         21   -1    0    0  503  502  0.00000000000E+00  0.00000000000E+00  0.47039165573E+03  0.47039165573E+03  0.00000000000E+00 0.  1.
         21   -1    0    0  501  503 -0.00000000000E+00 -0.00000000000E+00 -0.56309861690E+03  0.56309861690E+03  0.00000000000E+00 0.  1.
    9000007    1    1    2  501    0 -0.10303228783E+03 -0.13696471307E+03 -0.32224180389E+03  0.54149308872E+03  0.40000000000E+03 0.  1.
   -9000007    1    1    2    0  502  0.10303228783E+03  0.13696471307E+03  0.22953484271E+03  0.49199718391E+03  0.40000000000E+03 0.  1.
<mgrwt>
<rscale>  2 0.43517236E+03</rscale>
<asrwt>0</asrwt>
<pdfrwt beam="1">  1       21 0.72367947E-01 0.43517236E+03</pdfrwt>
<pdfrwt beam="2">  1       21 0.86630557E-01 0.43517236E+03</pdfrwt>
<totfact> 0.17088916E+03</totfact>
</mgrwt>
</event>
<event>
 4    1  0.4821294E-002  0.4414574E+03  0.7818608E-02  0.1030301E+00
         21   -1    0    0  501  502  0.00000000000E+00  0.00000000000E+00  0.17127334847E+03  0.17127334847E+03  0.00000000000E+00 0.  1.
         21   -1    0    0  502  503 -0.00000000000E+00 -0.00000000000E+00 -0.19195581658E+04  0.19195581658E+04  0.00000000000E+00 0.  1.
    9000007    1    1    2  501    0  0.75627313820E+02 -0.17077810484E+03 -0.20701518318E+03  0.48758582604E+03  0.40000000000E+03 0.  1.
   -9000007    1    1    2    0  503 -0.75627313820E+02  0.17077810484E+03 -0.15412696342E+04  0.16032456882E+04  0.40000000000E+03 0.  1.
<mgrwt>
<rscale>  2 0.44145742E+03</rscale>
<asrwt>0</asrwt>
<pdfrwt beam="1">  1       21 0.26349745E-01 0.44145742E+03</pdfrwt>
<pdfrwt beam="2">  1       21 0.29531665E+00 0.44145742E+03</pdfrwt>
<totfact> 0.39740003E+02</totfact>
</mgrwt>
</event>
<event>
 4    1  0.4821294E-002  0.5181680E+03  0.7818608E-02  0.1009143E+00
         21   -1    0    0  501  502  0.00000000000E+00  0.00000000000E+00  0.12311269950E+04  0.12311269950E+04  0.00000000000E+00 0. -1.
         21   -1    0    0  502  503 -0.00000000000E+00 -0.00000000000E+00 -0.52839162541E+03  0.52839162541E+03  0.00000000000E+00 0.  1.
    9000007    1    1    2  501    0 -0.29541373776E+03  0.14570108387E+03  0.10255494886E+04  0.11490212513E+04  0.40000000000E+03 0. -1.
   -9000007    1    1    2    0  503  0.29541373776E+03 -0.14570108387E+03 -0.32281411901E+03  0.61049736914E+03  0.40000000000E+03 0.  1.
<mgrwt>
<rscale>  2 0.51816801E+03</rscale>
<asrwt>0</asrwt>
<pdfrwt beam="1">  1       21 0.18940415E+00 0.51816801E+03</pdfrwt>
<pdfrwt beam="2">  1       21 0.81291020E-01 0.51816801E+03</pdfrwt>
<totfact> 0.16288853E+02</totfact>
</mgrwt>
</event>
<event>
 4    1  0.4821294E-002  0.4753381E+03  0.7818608E-02  0.1020424E+00
         21   -1    0    0  503  502  0.00000000000E+00  0.00000000000E+00  0.55778173897E+03  0.55778173897E+03  0.00000000000E+00 0. -1.
         21   -1    0    0  501  503 -0.00000000000E+00 -0.00000000000E+00 -0.71591047710E+03  0.71591047710E+03  0.00000000000E+00 0. -1.
    9000007    1    1    2  501    0  0.55549043178E+02  0.25072024028E+03 -0.49869463269E+03  0.68894315568E+03  0.40000000000E+03 0. -1.
   -9000007    1    1    2    0  502 -0.55549043178E+02 -0.25072024028E+03  0.34056589456E+03  0.58474906039E+03  0.40000000000E+03 0. -1.
<mgrwt>
<rscale>  2 0.47533813E+03</rscale>
<asrwt>0</asrwt>
<pdfrwt beam="1">  1       21 0.85812575E-01 0.47533813E+03</pdfrwt>
<pdfrwt beam="2">  1       21 0.11014007E+00 0.47533813E+03</pdfrwt>
<totfact> 0.63540353E+02</totfact>
</mgrwt>
</event>
<event>
 4    1  0.4821294E-002  0.4601816E+03  0.7818608E-02  0.1024729E+00
         21   -1    0    0  503  502  0.00000000000E+00  0.00000000000E+00  0.96862011569E+03  0.96862011569E+03  0.00000000000E+00 0.  1.
         21   -1    0    0  501  503 -0.00000000000E+00 -0.00000000000E+00 -0.23354140186E+03  0.23354140186E+03  0.00000000000E+00 0. -1.
    9000007    1    1    2  501    0 -0.22380836294E+03  0.40949892132E+02  0.21564372576E+03  0.50820202031E+03  0.40000000000E+03 0. -1.
   -9000007    1    1    2    0  502  0.22380836294E+03 -0.40949892132E+02  0.51943498807E+03  0.69395949725E+03  0.40000000000E+03 0.  1.
<mgrwt>
<rscale>  2 0.46018157E+03</rscale>
<asrwt>0</asrwt>
<pdfrwt beam="1">  1       21 0.14901848E+00 0.46018157E+03</pdfrwt>
<pdfrwt beam="2">  1       21 0.35929447E-01 0.46018157E+03</pdfrwt>
<totfact> 0.19364155E+03</totfact>
</mgrwt>
</event>
<event>
 4    1  0.4821294E-002  0.4076697E+03  0.7818608E-02  0.1041156E+00
         21   -1    0    0  501  502  0.00000000000E+00  0.00000000000E+00  0.97263608323E+03  0.97263608323E+03  0.00000000000E+00 0.  1.
         21   -1    0    0  502  503 -0.00000000000E+00 -0.00000000000E+00 -0.17464418148E+03  0.17464418148E+03  0.00000000000E+00 0.  1.
    9000007    1    1    2  501    0 -0.54912344705E+02 -0.56384207122E+02  0.31467004269E+03  0.51498716506E+03  0.40000000000E+03 0. -1.
   -9000007    1    1    2    0  503  0.54912344705E+02  0.56384207122E+02  0.48332185906E+03  0.63229309965E+03  0.40000000000E+03 0. -1.
<mgrwt>
<rscale>  2 0.40766965E+03</rscale>
<asrwt>0</asrwt>
<pdfrwt beam="1">  1       21 0.14963632E+00 0.40766965E+03</pdfrwt>
<pdfrwt beam="2">  1       21 0.26868336E-01 0.40766965E+03</pdfrwt>
<totfact> 0.34901608E+03</totfact>
</mgrwt>
</event>
<event>
 4    1  0.4821294E-002  0.4017551E+03  0.7818608E-02  0.1043174E+00
         21   -1    0    0  501  502  0.00000000000E+00  0.00000000000E+00  0.13086070997E+03  0.13086070997E+03  0.00000000000E+00 0. -1.
         21   -1    0    0  502  503 -0.00000000000E+00 -0.00000000000E+00 -0.12873609549E+04  0.12873609549E+04  0.00000000000E+00 0. -1.
    9000007    1    1    2  501    0 -0.10317459741E+02  0.36065775877E+02 -0.43310804810E+03  0.59075356241E+03  0.40000000000E+03 0. -1.
   -9000007    1    1    2    0  503  0.10317459741E+02 -0.36065775877E+02 -0.72339219685E+03  0.82746810248E+03  0.40000000000E+03 0. -1.
<mgrwt>
<rscale>  2 0.40175514E+03</rscale>
<asrwt>0</asrwt>
<pdfrwt beam="1">  1       21 0.20132417E-01 0.40175514E+03</pdfrwt>
<pdfrwt beam="2">  1       21 0.19805553E+00 0.40175514E+03</pdfrwt>
<totfact> 0.27373851E+03</totfact>
</mgrwt>
</event>
<event>
 4    1  0.4821294E-002  0.4482826E+03  0.7818608E-02  0.1028235E+00
         21   -1    0    0  501  502  0.00000000000E+00  0.00000000000E+00  0.96221432704E+03  0.96221432704E+03  0.00000000000E+00 0.  1.
         21   -1    0    0  502  503 -0.00000000000E+00 -0.00000000000E+00 -0.44575823643E+03  0.44575823643E+03  0.00000000000E+00 0.  1.
    9000007    1    1    2  501    0  0.10879956765E+03 -0.17064564329E+03  0.77145057463E+03  0.89224059008E+03  0.40000000000E+03 0.  1.
   -9000007    1    1    2    0  503 -0.10879956765E+03  0.17064564329E+03 -0.25499448403E+03  0.51573197339E+03  0.40000000000E+03 0.  1.
<mgrwt>
<rscale>  2 0.44828259E+03</rscale>
<asrwt>0</asrwt>
<pdfrwt beam="1">  1       21 0.14803297E+00 0.44828259E+03</pdfrwt>
<pdfrwt beam="2">  1       21 0.68578190E-01 0.44828259E+03</pdfrwt>
<totfact> 0.50021175E+02</totfact>
</mgrwt>
</event>
<event>
 4    1  0.4821294E-002  0.5329209E+03  0.7818608E-02  0.1005526E+00
         21   -1    0    0  503  502  0.00000000000E+00  0.00000000000E+00  0.17768141013E+04  0.17768141013E+04  0.00000000000E+00 0. -1.
         21   -1    0    0  501  503 -0.00000000000E+00 -0.00000000000E+00 -0.22441009449E+03  0.22441009449E+03  0.00000000000E+00 0.  1.
    9000007    1    1    2  501    0  0.15413940036E+03  0.31661608371E+03  0.23946360785E+03  0.58424953461E+03  0.40000000000E+03 0.  1.
   -9000007    1    1    2    0  502 -0.15413940036E+03 -0.31661608371E+03  0.13129403989E+04  0.14169746612E+04  0.40000000000E+03 0. -1.
<mgrwt>
<rscale>  2 0.53292091E+03</rscale>
<asrwt>0</asrwt>
<pdfrwt beam="1">  1       21 0.27335601E+00 0.53292091E+03</pdfrwt>
<pdfrwt beam="2">  1       21 0.34524631E-01 0.53292091E+03</pdfrwt>
<totfact> 0.30010576E+02</totfact>
</mgrwt>
</event>
<event>
 4    1  0.4821294E-002  0.4433360E+03  0.7818608E-02  0.1029728E+00
         21   -1    0    0  503  502  0.00000000000E+00  0.00000000000E+00  0.41256449708E+03  0.41256449708E+03  0.00000000000E+00 0. -1.
         21   -1    0    0  501  503 -0.00000000000E+00 -0.00000000000E+00 -0.56992274711E+03  0.56992274711E+03  0.00000000000E+00 0. -1.
    9000007    1    1    2  501    0  0.10905157564E+03  0.15701783575E+03 -0.27767370645E+03  0.52311522072E+03  0.40000000000E+03 0. -1.
   -9000007    1    1    2    0  502 -0.10905157564E+03 -0.15701783575E+03  0.12031545643E+03  0.45937202347E+03  0.40000000000E+03 0. -1.
<mgrwt>
<rscale>  2 0.44333604E+03</rscale>
<asrwt>0</asrwt>
<pdfrwt beam="1">  1       21 0.63471461E-01 0.44333604E+03</pdfrwt>
<pdfrwt beam="2">  1       21 0.87680422E-01 0.44333604E+03</pdfrwt>
<totfact> 0.22208951E+03</totfact>
</mgrwt>
</event>
<event>
 4    1  0.4821294E-002  0.5925130E+03  0.7818608E-02  0.9921062E-01
         21   -1    0    0  503  502  0.00000000000E+00  0.00000000000E+00  0.42357309471E+03  0.42357309471E+03  0.00000000000E+00 0. -1.
         21   -1    0    0  501  503 -0.00000000000E+00 -0.00000000000E+00 -0.10913605510E+04  0.10913605510E+04  0.00000000000E+00 0.  1.
    9000007    1    1    2  501    0 -0.43701176001E+03 -0.96092993454E+01 -0.70540023877E+03  0.92122804662E+03  0.40000000000E+03 0.  1.
   -9000007    1    1    2    0  502  0.43701176001E+03  0.96092993454E+01  0.37612782453E+02  0.59370559912E+03  0.40000000000E+03 0. -1.
<mgrwt>
<rscale>  2 0.59251297E+03</rscale>
<asrwt>0</asrwt>
<pdfrwt beam="1">  1       21 0.65165092E-01 0.59251297E+03</pdfrwt>
<pdfrwt beam="2">  1       21 0.16790162E+00 0.59251297E+03</pdfrwt>
<totfact> 0.37242297E+02</totfact>
</mgrwt>
</event>
<event>
 4    1  0.4821294E-002  0.4764713E+03  0.7818608E-02  0.1020109E+00
         21   -1    0    0  503  502  0.00000000000E+00  0.00000000000E+00  0.43495590549E+03  0.43495590549E+03  0.00000000000E+00 0. -1.
         21   -1    0    0  501  503 -0.00000000000E+00 -0.00000000000E+00 -0.60583956520E+03  0.60583956520E+03  0.00000000000E+00 0. -1.
    9000007    1    1    2  501    0  0.15233819325E+03  0.20932744810E+03 -0.27908960552E+03  0.55219191733E+03  0.40000000000E+03 0. -1.
   -9000007    1    1    2    0  502 -0.15233819325E+03 -0.20932744810E+03  0.10820594582E+03  0.48860355336E+03  0.40000000000E+03 0. -1.
<mgrwt>
<rscale>  2 0.47647131E+03</rscale>
<asrwt>0</asrwt>
<pdfrwt beam="1">  1       21 0.66916293E-01 0.47647131E+03</pdfrwt>
<pdfrwt beam="2">  1       21 0.93206087E-01 0.47647131E+03</pdfrwt>
<totfact> 0.16872657E+03</totfact>
</mgrwt>
</event>
<event>
 4    1  0.4821294E-002  0.4119545E+03  0.7818608E-02  0.1039717E+00
         21   -1    0    0  503  502  0.00000000000E+00  0.00000000000E+00  0.11500711509E+04  0.11500711509E+04  0.00000000000E+00 0. -1.
         21   -1    0    0  501  503 -0.00000000000E+00 -0.00000000000E+00 -0.25114082995E+03  0.25114082995E+03  0.00000000000E+00 0. -1.
    9000007    1    1    2  501    0  0.57411458593E+02  0.80064990731E+02 -0.47138448929E+00  0.41195473116E+03  0.40000000000E+03 0. -1.
   -9000007    1    1    2    0  502 -0.57411458593E+02 -0.80064990731E+02  0.89940170541E+03  0.98925724966E+03  0.40000000000E+03 0. -1.
<mgrwt>
<rscale>  2 0.41195446E+03</rscale>
<asrwt>0</asrwt>
<pdfrwt beam="1">  1       21 0.17693402E+00 0.41195446E+03</pdfrwt>
<pdfrwt beam="2">  1       21 0.38637052E-01 0.41195446E+03</pdfrwt>
<totfact> 0.10547269E+03</totfact>
</mgrwt>
</event>
<event>
 4    1  0.4821294E-002  0.4564137E+03  0.7818608E-02  0.1025827E+00
         21   -1    0    0  503  502  0.00000000000E+00  0.00000000000E+00  0.16771236860E+03  0.16771236860E+03  0.00000000000E+00 0.  1.
         21   -1    0    0  501  503 -0.00000000000E+00 -0.00000000000E+00 -0.13135567103E+04  0.13135567103E+04  0.00000000000E+00 0. -1.
    9000007    1    1    2  501    0 -0.12222831504E+03 -0.18268468724E+03 -0.74568037841E+03  0.87427265924E+03  0.40000000000E+03 0. -1.
   -9000007    1    1    2    0  502  0.12222831504E+03  0.18268468724E+03 -0.40016396325E+03  0.60699641962E+03  0.40000000000E+03 0.  1.
<mgrwt>
<rscale>  2 0.45641369E+03</rscale>
<asrwt>0</asrwt>
<pdfrwt beam="1">  1       21 0.25801903E-01 0.45641369E+03</pdfrwt>
<pdfrwt beam="2">  1       21 0.20208564E+00 0.45641369E+03</pdfrwt>
<totfact> 0.15572313E+03</totfact>
</mgrwt>
</event>
<event>
 4    1  0.4821294E-002  0.4153287E+03  0.7818608E-02  0.1038597E+00
         21   -1    0    0  501  502  0.00000000000E+00  0.00000000000E+00  0.50489919482E+03  0.50489919482E+03  0.00000000000E+00 0.  1.
         21   -1    0    0  502  503 -0.00000000000E+00 -0.00000000000E+00 -0.40734799363E+03  0.40734799363E+03  0.00000000000E+00 0.  1.
    9000007    1    1    2  501    0 -0.48636048932E+02 -0.10066023077E+03  0.23195703152E+03  0.47571211020E+03  0.40000000000E+03 0. -1.
   -9000007    1    1    2    0  503  0.48636048932E+02  0.10066023077E+03 -0.13440583034E+03  0.43653507825E+03  0.40000000000E+03 0. -1.
<mgrwt>
<rscale>  2 0.41532872E+03</rscale>
<asrwt>0</asrwt>
<pdfrwt beam="1">  1       21 0.77676799E-01 0.41532872E+03</pdfrwt>
<pdfrwt beam="2">  1       21 0.62668922E-01 0.41532872E+03</pdfrwt>
<totfact> 0.30586817E+03</totfact>
</mgrwt>
</event>
<event>
 4    1  0.4821294E-002  0.4916245E+03  0.7818608E-02  0.1015988E+00
         21   -1    0    0  503  502  0.00000000000E+00  0.00000000000E+00  0.36642933494E+03  0.36642933494E+03  0.00000000000E+00 0.  1.
         21   -1    0    0  501  503 -0.00000000000E+00 -0.00000000000E+00 -0.74941615100E+03  0.74941615100E+03  0.00000000000E+00 0. -1.
    9000007    1    1    2  501    0 -0.22758448892E+03 -0.17291590710E+03 -0.38464759912E+03  0.62421821989E+03  0.40000000000E+03 0. -1.
   -9000007    1    1    2    0  502  0.22758448892E+03  0.17291590710E+03  0.16607830630E+01  0.49162726605E+03  0.40000000000E+03 0.  1.
<mgrwt>
<rscale>  2 0.49162446E+03</rscale>
<asrwt>0</asrwt>
<pdfrwt beam="1">  1       21 0.56373744E-01 0.49162446E+03</pdfrwt>
<pdfrwt beam="2">  1       21 0.11529479E+00 0.49162446E+03</pdfrwt>
<totfact> 0.14529250E+03</totfact>
</mgrwt>
</event>
<event>
 4    1  0.4821294E-002  0.4432283E+03  0.7818608E-02  0.1029761E+00
         21   -1    0    0  503  502  0.00000000000E+00  0.00000000000E+00  0.42470454779E+03  0.42470454779E+03  0.00000000000E+00 0.  1.
         21   -1    0    0  501  503 -0.00000000000E+00 -0.00000000000E+00 -0.54504825075E+03  0.54504825075E+03  0.00000000000E+00 0.  1.
    9000007    1    1    2  501    0 -0.17107506485E+03 -0.84762310536E+02 -0.24880137629E+03  0.50828481380E+03  0.40000000000E+03 0.  1.
   -9000007    1    1    2    0  502  0.17107506485E+03  0.84762310536E+02  0.12845767333E+03  0.46146798474E+03  0.40000000000E+03 0.  1.
<mgrwt>
<rscale>  2 0.44322830E+03</rscale>
<asrwt>0</asrwt>
<pdfrwt beam="1">  1       21 0.65339162E-01 0.44322830E+03</pdfrwt>
<pdfrwt beam="2">  1       21 0.83853576E-01 0.44322830E+03</pdfrwt>
<totfact> 0.23122181E+03</totfact>
</mgrwt>
</event>
<event>
 4    1  0.4821294E-002  0.4220717E+03  0.7818608E-02  0.1036394E+00
         21   -1    0    0  503  502  0.00000000000E+00  0.00000000000E+00  0.23080369158E+03  0.23080369158E+03  0.00000000000E+00 0.  1.
         21   -1    0    0  501  503 -0.00000000000E+00 -0.00000000000E+00 -0.11858616710E+04  0.11858616710E+04  0.00000000000E+00 0.  1.
    9000007    1    1    2  501    0 -0.12000946522E+03 -0.61173846450E+02 -0.89606184016E+03  0.99049045054E+03  0.40000000000E+03 0.  1.
   -9000007    1    1    2    0  502  0.12000946522E+03  0.61173846450E+02 -0.58996139311E+02  0.42617491208E+03  0.40000000000E+03 0.  1.
<mgrwt>
<rscale>  2 0.42207169E+03</rscale>
<asrwt>0</asrwt>
<pdfrwt beam="1">  1       21 0.35508261E-01 0.42207169E+03</pdfrwt>
<pdfrwt beam="2">  1       21 0.18244026E+00 0.42207169E+03</pdfrwt>
<totfact> 0.11400807E+03</totfact>
</mgrwt>
</event>
<event>
 4    1  0.4821294E-002  0.5192489E+03  0.7818608E-02  0.1008873E+00
         21   -1    0    0  501  502  0.00000000000E+00  0.00000000000E+00  0.58305841728E+03  0.58305841728E+03  0.00000000000E+00 0.  1.
         21   -1    0    0  502  503 -0.00000000000E+00 -0.00000000000E+00 -0.46308265476E+03  0.46308265476E+03  0.00000000000E+00 0.  1.
    9000007    1    1    2  501    0 -0.26256584835E+03 -0.20168943067E+03  0.40241566448E+02  0.52080594739E+03  0.40000000000E+03 0.  1.
   -9000007    1    1    2    0  503  0.26256584835E+03  0.20168943067E+03  0.79734196071E+02  0.52533512465E+03  0.40000000000E+03 0.  1.
<mgrwt>
<rscale>  2 0.51924893E+03</rscale>
<asrwt>0</asrwt>
<pdfrwt beam="1">  1       21 0.89701295E-01 0.51924893E+03</pdfrwt>
<pdfrwt beam="2">  1       21 0.71243485E-01 0.51924893E+03</pdfrwt>
<totfact> 0.15817732E+03</totfact>
</mgrwt>
</event>
<event>
 4    1  0.4821294E-002  0.4950351E+03  0.7818608E-02  0.1015083E+00
         21   -1    0    0  501  502  0.00000000000E+00  0.00000000000E+00  0.17469105278E+04  0.17469105278E+04  0.00000000000E+00 0.  1.
         21   -1    0    0  502  503 -0.00000000000E+00 -0.00000000000E+00 -0.14323258314E+03  0.14323258314E+03  0.00000000000E+00 0.  1.
    9000007    1    1    2  501    0  0.12536400930E+03  0.26333167757E+03  0.66619066895E+03  0.82998175561E+03  0.40000000000E+03 0.  1.
   -9000007    1    1    2    0  503 -0.12536400930E+03 -0.26333167757E+03  0.93748727575E+03  0.10601613554E+04  0.40000000000E+03 0.  1.
<mgrwt>
<rscale>  2 0.49503506E+03</rscale>
<asrwt>0</asrwt>
<pdfrwt beam="1">  1       21 0.26875545E+00 0.49503506E+03</pdfrwt>
<pdfrwt beam="2">  1       21 0.22035783E-01 0.49503506E+03</pdfrwt>
<totfact> 0.79046344E+02</totfact>
</mgrwt>
</event>
<event>
 4    1  0.4821294E-002  0.4873709E+03  0.7818608E-02  0.1017129E+00
         21   -1    0    0  503  502  0.00000000000E+00  0.00000000000E+00  0.24150844460E+03  0.24150844460E+03  0.00000000000E+00 0. -1.
         21   -1    0    0  501  503 -0.00000000000E+00 -0.00000000000E+00 -0.11920337215E+04  0.11920337215E+04  0.00000000000E+00 0. -1.
    9000007    1    1    2  501    0  0.10753677372E+03 -0.25683892741E+03 -0.77503726537E+03  0.91553981620E+03  0.40000000000E+03 0. -1.
   -9000007    1    1    2    0  502 -0.10753677372E+03  0.25683892741E+03 -0.17548801157E+03  0.51800234993E+03  0.40000000000E+03 0. -1.
<mgrwt>
<rscale>  2 0.48737090E+03</rscale>
<asrwt>0</asrwt>
<pdfrwt beam="1">  1       21 0.37155145E-01 0.48737090E+03</pdfrwt>
<pdfrwt beam="2">  1       21 0.18338981E+00 0.48737090E+03</pdfrwt>
<totfact> 0.99478868E+02</totfact>
</mgrwt>
</event>
<event>
 4    1  0.4821294E-002  0.4956142E+03  0.7818608E-02  0.1014930E+00
         21   -1    0    0  503  502  0.00000000000E+00  0.00000000000E+00  0.31750995626E+03  0.31750995626E+03  0.00000000000E+00 0.  1.
         21   -1    0    0  501  503 -0.00000000000E+00 -0.00000000000E+00 -0.21263013663E+04  0.21263013663E+04  0.00000000000E+00 0.  1.
    9000007    1    1    2  501    0 -0.27840075109E+03  0.90147050793E+02 -0.18789865005E+04  0.19432508170E+04  0.40000000000E+03 0.  1.
   -9000007    1    1    2    0  502  0.27840075109E+03 -0.90147050793E+02  0.70195090417E+02  0.50056050553E+03  0.40000000000E+03 0.  1.
<mgrwt>
<rscale>  2 0.49561423E+03</rscale>
<asrwt>0</asrwt>
<pdfrwt beam="1">  1       21 0.48847685E-01 0.49561423E+03</pdfrwt>
<pdfrwt beam="2">  1       21 0.32712329E+00 0.49561423E+03</pdfrwt>
<totfact> 0.70371295E+01</totfact>
</mgrwt>
</event>
<event>
 4    1  0.4821294E-002  0.5215149E+03  0.7818608E-02  0.1008311E+00
         21   -1    0    0  501  502  0.00000000000E+00  0.00000000000E+00  0.17315529518E+04  0.17315529518E+04  0.00000000000E+00 0. -1.
         21   -1    0    0  502  503 -0.00000000000E+00 -0.00000000000E+00 -0.16507633093E+03  0.16507633093E+03  0.00000000000E+00 0.  1.
    9000007    1    1    2  501    0 -0.25834206957E+03  0.21269039511E+03  0.99206348360E+03  0.11207889117E+04  0.40000000000E+03 0.  1.
   -9000007    1    1    2    0  503  0.25834206957E+03 -0.21269039511E+03  0.57441313731E+03  0.77584037108E+03  0.40000000000E+03 0.  1.
<mgrwt>
<rscale>  2 0.52151494E+03</rscale>
<asrwt>0</asrwt>
<pdfrwt beam="1">  1       21 0.26639275E+00 0.52151494E+03</pdfrwt>
<pdfrwt beam="2">  1       21 0.25396360E-01 0.52151494E+03</pdfrwt>
<totfact> 0.61304532E+02</totfact>
</mgrwt>
</event>
<event>
 4    1  0.4821294E-002  0.6047346E+03  0.7818608E-02  0.9895632E-01
         21   -1    0    0  503  502  0.00000000000E+00  0.00000000000E+00  0.84084804120E+03  0.84084804120E+03  0.00000000000E+00 0.  1.
         21   -1    0    0  501  503 -0.00000000000E+00 -0.00000000000E+00 -0.86964900643E+03  0.86964900643E+03  0.00000000000E+00 0. -1.
    9000007    1    1    2  501    0 -0.95226220565E+02  0.44343647581E+03 -0.61908418998E+03  0.86543005231E+03  0.40000000000E+03 0. -1.
   -9000007    1    1    2    0  502  0.95226220565E+02 -0.44343647581E+03  0.59028322475E+03  0.84506699532E+03  0.40000000000E+03 0.  1.
<mgrwt>
<rscale>  2 0.60473460E+03</rscale>
<asrwt>0</asrwt>
<pdfrwt beam="1">  1       21 0.12936124E+00 0.60473460E+03</pdfrwt>
<pdfrwt beam="2">  1       21 0.13379216E+00 0.60473460E+03</pdfrwt>
<totfact> 0.13286449E+02</totfact>
</mgrwt>
</event>
<event>
 4    1  0.4821294E-002  0.4485913E+03  0.7818608E-02  0.1028143E+00
         21   -1    0    0  501  502  0.00000000000E+00  0.00000000000E+00  0.40857941381E+03  0.40857941381E+03  0.00000000000E+00 0. -1.
         21   -1    0    0  502  503 -0.00000000000E+00 -0.00000000000E+00 -0.50508702769E+03  0.50508702769E+03  0.00000000000E+00 0.  1.
    9000007    1    1    2  501    0 -0.88265639830E+02  0.18287527122E+03  0.23801031713E+02  0.44922230255E+03  0.40000000000E+03 0. -1.
   -9000007    1    1    2    0  503  0.88265639830E+02 -0.18287527122E+03 -0.12030864559E+03  0.46444413895E+03  0.40000000000E+03 0.  1.
<mgrwt>
<rscale>  2 0.44859134E+03</rscale>
<asrwt>0</asrwt>
<pdfrwt beam="1">  1       21 0.62858371E-01 0.44859134E+03</pdfrwt>
<pdfrwt beam="2">  1       21 0.77705697E-01 0.44859134E+03</pdfrwt>
<totfact> 0.29988910E+03</totfact>
</mgrwt>
</event>
<event>
 4    1  0.4821294E-002  0.5081099E+03  0.7818608E-02  0.1011684E+00
         21   -1    0    0  503  502  0.00000000000E+00  0.00000000000E+00  0.64713186315E+03  0.64713186315E+03  0.00000000000E+00 0.  1.
         21   -1    0    0  501  503 -0.00000000000E+00 -0.00000000000E+00 -0.73699635535E+03  0.73699635535E+03  0.00000000000E+00 0.  1.
    9000007    1    1    2  501    0 -0.29963406016E+03  0.91624686245E+02 -0.51363705278E+03  0.72249475786E+03  0.40000000000E+03 0.  1.
   -9000007    1    1    2    0  502  0.29963406016E+03 -0.91624686245E+02  0.42377256059E+03  0.66163346065E+03  0.40000000000E+03 0.  1.
<mgrwt>
<rscale>  2 0.50810988E+03</rscale>
<asrwt>0</asrwt>
<pdfrwt beam="1">  1       21 0.99558749E-01 0.50810988E+03</pdfrwt>
<pdfrwt beam="2">  1       21 0.11338405E+00 0.50810988E+03</pdfrwt>
<totfact> 0.40893068E+02</totfact>
</mgrwt>
</event>
<event>
 4    1  0.4821294E-002  0.4768871E+03  0.7818608E-02  0.1019994E+00
         21   -1    0    0  503  502  0.00000000000E+00  0.00000000000E+00  0.12541737652E+04  0.12541737652E+04  0.00000000000E+00 0. -1.
         21   -1    0    0  501  503 -0.00000000000E+00 -0.00000000000E+00 -0.18209426136E+03  0.18209426136E+03  0.00000000000E+00 0.  1.
    9000007    1    1    2  501    0  0.19150114953E+02 -0.25894889883E+03  0.48956248448E+03  0.68344179365E+03  0.40000000000E+03 0. -1.
   -9000007    1    1    2    0  502 -0.19150114953E+02  0.25894889883E+03  0.58251701937E+03  0.75282623291E+03  0.40000000000E+03 0.  1.
<mgrwt>
<rscale>  2 0.47688705E+03</rscale>
<asrwt>0</asrwt>
<pdfrwt beam="1">  1       21 0.19294980E+00 0.47688705E+03</pdfrwt>
<pdfrwt beam="2">  1       21 0.28014503E-01 0.47688705E+03</pdfrwt>
<totfact> 0.15131343E+03</totfact>
</mgrwt>
</event>
<event>
 4    1  0.4821294E-002  0.4840409E+03  0.7818608E-02  0.1018030E+00
         21   -1    0    0  503  502  0.00000000000E+00  0.00000000000E+00  0.24118587436E+03  0.24118587436E+03  0.00000000000E+00 0. -1.
         21   -1    0    0  501  503 -0.00000000000E+00 -0.00000000000E+00 -0.11061757036E+04  0.11061757036E+04  0.00000000000E+00 0.  1.
    9000007    1    1    2  501    0 -0.27181973956E+03  0.20238923622E+02 -0.66761891202E+03  0.82462755019E+03  0.40000000000E+03 0.  1.
   -9000007    1    1    2    0  502  0.27181973956E+03 -0.20238923622E+02 -0.19737091725E+03  0.52273402780E+03  0.40000000000E+03 0. -1.
<mgrwt>
<rscale>  2 0.48404089E+03</rscale>
<asrwt>0</asrwt>
<pdfrwt beam="1">  1       21 0.37105520E-01 0.48404089E+03</pdfrwt>
<pdfrwt beam="2">  1       21 0.17018087E+00 0.48404089E+03</pdfrwt>
<totfact> 0.12412799E+03</totfact>
</mgrwt>
</event>
<event>
 4    1  0.4821294E-002  0.4204724E+03  0.7818608E-02  0.1036913E+00
         21   -1    0    0  501  502  0.00000000000E+00  0.00000000000E+00  0.94732175085E+03  0.94732175085E+03  0.00000000000E+00 0.  1.
         21   -1    0    0  502  503 -0.00000000000E+00 -0.00000000000E+00 -0.28967322531E+03  0.28967322531E+03  0.00000000000E+00 0.  1.
    9000007    1    1    2  501    0 -0.12523669860E+03  0.33358985344E+02  0.69771441085E+03  0.81461797898E+03  0.40000000000E+03 0.  1.
   -9000007    1    1    2    0  503  0.12523669860E+03 -0.33358985344E+02 -0.40065885312E+02  0.42237699718E+03  0.40000000000E+03 0.  1.
<mgrwt>
<rscale>  2 0.42047242E+03</rscale>
<asrwt>0</asrwt>
<pdfrwt beam="1">  1       21 0.14574181E+00 0.42047242E+03</pdfrwt>
<pdfrwt beam="2">  1       21 0.44565112E-01 0.42047242E+03</pdfrwt>
<totfact> 0.13413664E+03</totfact>
</mgrwt>
</event>
<event>
 4    1  0.4821294E-002  0.4007958E+03  0.7818608E-02  0.1043504E+00
         21   -1    0    0  503  502  0.00000000000E+00  0.00000000000E+00  0.10348360069E+04  0.10348360069E+04  0.00000000000E+00 0.  1.
         21   -1    0    0  501  503 -0.00000000000E+00 -0.00000000000E+00 -0.41428395188E+03  0.41428395188E+03  0.00000000000E+00 0.  1.
    9000007    1    1    2  501    0  0.22526388823E+02  0.11394606356E+02 -0.26267915992E+03  0.47920519228E+03  0.40000000000E+03 0.  1.
   -9000007    1    1    2    0  502 -0.22526388823E+02 -0.11394606356E+02  0.88323121498E+03  0.96991476655E+03  0.40000000000E+03 0.  1.
<mgrwt>
<rscale>  2 0.40079580E+03</rscale>
<asrwt>0</asrwt>
<pdfrwt beam="1">  1       21 0.15920554E+00 0.40079580E+03</pdfrwt>
<pdfrwt beam="2">  1       21 0.63735993E-01 0.40079580E+03</pdfrwt>
<totfact> 0.49403446E+02</totfact>
</mgrwt>
</event>
<event>
 4    1  0.4821294E-002  0.4592163E+03  0.7818608E-02  0.1025009E+00
         21   -1    0    0  503  502  0.00000000000E+00  0.00000000000E+00  0.28348466066E+03  0.28348466066E+03  0.00000000000E+00 0.  1.
         21   -1    0    0  501  503 -0.00000000000E+00 -0.00000000000E+00 -0.14356038021E+04  0.14356038021E+04  0.00000000000E+00 0.  1.
    9000007    1    1    2  501    0  0.13944080657E+03 -0.17730172270E+03 -0.11727047076E+04  0.12594109618E+04  0.40000000000E+03 0.  1.
   -9000007    1    1    2    0  502 -0.13944080657E+03  0.17730172270E+03  0.20585566124E+02  0.45967750102E+03  0.40000000000E+03 0.  1.
<mgrwt>
<rscale>  2 0.45921633E+03</rscale>
<asrwt>0</asrwt>
<pdfrwt beam="1">  1       21 0.43613025E-01 0.45921633E+03</pdfrwt>
<pdfrwt beam="2">  1       21 0.22086212E+00 0.45921633E+03</pdfrwt>
<totfact> 0.40737336E+02</totfact>
</mgrwt>
</event>
<event>
 4    1  0.4821294E-002  0.4443313E+03  0.7818608E-02  0.1029426E+00
         21   -1    0    0  503  502  0.00000000000E+00  0.00000000000E+00  0.20368751747E+04  0.20368751747E+04  0.00000000000E+00 0. -1.
         21   -1    0    0  501  503 -0.00000000000E+00 -0.00000000000E+00 -0.24134721616E+03  0.24134721616E+03  0.00000000000E+00 0. -1.
    9000007    1    1    2  501    0  0.17906549363E+03  0.73252141949E+02  0.16598655060E+02  0.44464125164E+03  0.40000000000E+03 0. -1.
   -9000007    1    1    2    0  502 -0.17906549363E+03 -0.73252141949E+02  0.17789293035E+04  0.18335811393E+04  0.40000000000E+03 0. -1.
<mgrwt>
<rscale>  2 0.44433133E+03</rscale>
<asrwt>0</asrwt>
<pdfrwt beam="1">  1       21 0.31336540E+00 0.44433133E+03</pdfrwt>
<pdfrwt beam="2">  1       21 0.37130342E-01 0.44433133E+03</pdfrwt>
<totfact> 0.15580910E+02</totfact>
</mgrwt>
</event>
<event>
 4    1  0.4821294E-002  0.5873608E+03  0.7818608E-02  0.9931981E-01
         21   -1    0    0  501  502  0.00000000000E+00  0.00000000000E+00  0.33054904136E+04  0.33054904136E+04  0.00000000000E+00 0.  1.
         21   -1    0    0  502  503 -0.00000000000E+00 -0.00000000000E+00 -0.43042488037E+03  0.43042488037E+03  0.00000000000E+00 0.  1.
    9000007    1    1    2  501    0 -0.22839054267E+02  0.42950099220E+03 -0.18825539843E+03  0.61679236356E+03  0.40000000000E+03 0.  1.
   -9000007    1    1    2    0  503  0.22839054267E+02 -0.42950099220E+03  0.30633209317E+04  0.31191229304E+04  0.40000000000E+03 0.  1.
<mgrwt>
<rscale>  2 0.58736081E+03</rscale>
<asrwt>0</asrwt>
<pdfrwt beam="1">  1       21 0.50853697E+00 0.58736081E+03</pdfrwt>
<pdfrwt beam="2">  1       21 0.66219214E-01 0.58736081E+03</pdfrwt>
<totfact> 0.21738319E+00</totfact>
</mgrwt>
</event>
<event>
 4    1  0.4821294E-002  0.4809568E+03  0.7818608E-02  0.1018873E+00
         21   -1    0    0  501  502  0.00000000000E+00  0.00000000000E+00  0.98231485475E+03  0.98231485475E+03  0.00000000000E+00 0.  1.
         21   -1    0    0  502  503 -0.00000000000E+00 -0.00000000000E+00 -0.28785589797E+03  0.28785589797E+03  0.00000000000E+00 0. -1.
    9000007    1    1    2  501    0 -0.13615512879E+03  0.22974159820E+03  0.76338996227E+02  0.48697747729E+03  0.40000000000E+03 0.  1.
   -9000007    1    1    2    0  503  0.13615512879E+03 -0.22974159820E+03  0.61811996055E+03  0.78319327543E+03  0.40000000000E+03 0.  1.
<mgrwt>
<rscale>  2 0.48095678E+03</rscale>
<asrwt>0</asrwt>
<pdfrwt beam="1">  1       21 0.15112536E+00 0.48095678E+03</pdfrwt>
<pdfrwt beam="2">  1       21 0.44285523E-01 0.48095678E+03</pdfrwt>
<totfact> 0.12013236E+03</totfact>
</mgrwt>
</event>
<event>
 4    1  0.4821294E-002  0.1029273E+04  0.7818608E-02  0.9277009E-01
         21   -1    0    0  501  502  0.00000000000E+00  0.00000000000E+00  0.11326422955E+04  0.11326422955E+04  0.00000000000E+00 0. -1.
         21   -1    0    0  502  503 -0.00000000000E+00 -0.00000000000E+00 -0.95331491893E+03  0.95331491893E+03  0.00000000000E+00 0.  1.
    9000007    1    1    2  501    0 -0.21431855406E+03 -0.92383440215E+03  0.23289065614E+03  0.10552916672E+04  0.40000000000E+03 0.  1.
   -9000007    1    1    2    0  503  0.21431855406E+03  0.92383440215E+03 -0.53563279598E+02  0.10306655472E+04  0.40000000000E+03 0. -1.
<mgrwt>
<rscale>  2 0.10292728E+04</rscale>
<asrwt>0</asrwt>
<pdfrwt beam="1">  1       21 0.17425266E+00 0.10292728E+04</pdfrwt>
<pdfrwt beam="2">  1       21 0.14666383E+00 0.10292728E+04</pdfrwt>
<totfact> 0.39803157E+01</totfact>
</mgrwt>
</event>
<event>
 4    1  0.4821294E-002  0.4401019E+03  0.7818608E-02  0.1030716E+00
         21   -1    0    0  503  502  0.00000000000E+00  0.00000000000E+00  0.92144313521E+03  0.92144313521E+03  0.00000000000E+00 0.  1.
         21   -1    0    0  501  503 -0.00000000000E+00 -0.00000000000E+00 -0.28285644494E+03  0.28285644494E+03  0.00000000000E+00 0.  1.
    9000007    1    1    2  501    0 -0.18351785258E+03  0.32957598248E+01  0.14116867552E+02  0.44032823007E+03  0.40000000000E+03 0.  1.
   -9000007    1    1    2    0  502  0.18351785258E+03 -0.32957598248E+01  0.62446982273E+03  0.76397135008E+03  0.40000000000E+03 0.  1.
<mgrwt>
<rscale>  2 0.44010188E+03</rscale>
<asrwt>0</asrwt>
<pdfrwt beam="1">  1       21 0.14176048E+00 0.44010188E+03</pdfrwt>
<pdfrwt beam="2">  1       21 0.43516377E-01 0.44010188E+03</pdfrwt>
<totfact> 0.15055699E+03</totfact>
</mgrwt>
</event>
<event>
 4    1  0.4821294E-002  0.6133071E+03  0.7818608E-02  0.9878176E-01
         21   -1    0    0  501  502  0.00000000000E+00  0.00000000000E+00  0.24630375504E+04  0.24630375504E+04  0.00000000000E+00 0.  1.
         21   -1    0    0  502  503 -0.00000000000E+00 -0.00000000000E+00 -0.18067774395E+03  0.18067774395E+03  0.00000000000E+00 0.  1.
    9000007    1    1    2  501    0 -0.23555768504E+03 -0.40082186468E+03  0.16611919317E+04  0.17707919765E+04  0.40000000000E+03 0.  1.
   -9000007    1    1    2    0  503  0.23555768504E+03  0.40082186468E+03  0.62116787475E+03  0.87292331782E+03  0.40000000000E+03 0.  1.
<mgrwt>
<rscale>  2 0.61330709E+03</rscale>
<asrwt>0</asrwt>
<pdfrwt beam="1">  1       21 0.37892883E+00 0.61330709E+03</pdfrwt>
<pdfrwt beam="2">  1       21 0.27796578E-01 0.61330709E+03</pdfrwt>
<totfact> 0.99941221E+01</totfact>
</mgrwt>
</event>
<event>
 4    1  0.4821294E-002  0.4028011E+03  0.7818608E-02  0.1042814E+00
         21   -1    0    0  503  502  0.00000000000E+00  0.00000000000E+00  0.12934023488E+04  0.12934023488E+04  0.00000000000E+00 0.  1.
         21   -1    0    0  501  503 -0.00000000000E+00 -0.00000000000E+00 -0.13449758074E+03  0.13449758074E+03  0.00000000000E+00 0.  1.
    9000007    1    1    2  501    0 -0.40324102040E+02  0.24954298700E+02  0.39421193538E+03  0.56360606830E+03  0.40000000000E+03 0.  1.
   -9000007    1    1    2    0  502  0.40324102040E+02 -0.24954298700E+02  0.76469283264E+03  0.86429386121E+03  0.40000000000E+03 0.  1.
<mgrwt>
<rscale>  2 0.40280113E+03</rscale>
<asrwt>0</asrwt>
<pdfrwt beam="1">  1       21 0.19898497E+00 0.40280113E+03</pdfrwt>
<pdfrwt beam="2">  1       21 0.20691936E-01 0.40280113E+03</pdfrwt>
<totfact> 0.25601870E+03</totfact>
</mgrwt>
</event>
<event>
 4    1  0.4821294E-002  0.4905493E+03  0.7818608E-02  0.1016276E+00
         21   -1    0    0  501  502  0.00000000000E+00  0.00000000000E+00  0.12641733625E+03  0.12641733625E+03  0.00000000000E+00 0.  1.
         21   -1    0    0  502  503 -0.00000000000E+00 -0.00000000000E+00 -0.21766440098E+04  0.21766440098E+04  0.00000000000E+00 0. -1.
    9000007    1    1    2  501    0 -0.87674215919E+02 -0.27009596065E+03 -0.14330169433E+04  0.15146538072E+04  0.40000000000E+03 0. -1.
   -9000007    1    1    2    0  503  0.87674215919E+02  0.27009596065E+03 -0.61720973029E+03  0.78840753881E+03  0.40000000000E+03 0.  1.
<mgrwt>
<rscale>  2 0.49054928E+03</rscale>
<asrwt>0</asrwt>
<pdfrwt beam="1">  1       21 0.19448823E-01 0.49054928E+03</pdfrwt>
<pdfrwt beam="2">  1       21 0.33486827E+00 0.49054928E+03</pdfrwt>
<totfact> 0.40018897E+02</totfact>
</mgrwt>
</event>
<event>
 4    1  0.4821294E-002  0.4411223E+03  0.7818608E-02  0.1030403E+00
         21   -1    0    0  503  502  0.00000000000E+00  0.00000000000E+00  0.18816316425E+04  0.18816316425E+04  0.00000000000E+00 0. -1.
         21   -1    0    0  501  503 -0.00000000000E+00 -0.00000000000E+00 -0.27486717058E+03  0.27486717058E+03  0.00000000000E+00 0. -1.
    9000007    1    1    2  501    0  0.16776329770E+03  0.80276537080E+02 -0.48205397543E+02  0.44374835979E+03  0.40000000000E+03 0. -1.
   -9000007    1    1    2    0  502 -0.16776329770E+03 -0.80276537080E+02  0.16549698695E+04  0.17127504533E+04  0.40000000000E+03 0. -1.
<mgrwt>
<rscale>  2 0.44112226E+03</rscale>
<asrwt>0</asrwt>
<pdfrwt beam="1">  1       21 0.28948178E+00 0.44112226E+03</pdfrwt>
<pdfrwt beam="2">  1       21 0.42287258E-01 0.44112226E+03</pdfrwt>
<totfact> 0.16629129E+02</totfact>
</mgrwt>
</event>
<event>
 4    1  0.4821294E-002  0.4009922E+03  0.7818608E-02  0.1043437E+00
         21   -1    0    0  501  502  0.00000000000E+00  0.00000000000E+00  0.50574412699E+03  0.50574412699E+03  0.00000000000E+00 0. -1.
         21   -1    0    0  502  503 -0.00000000000E+00 -0.00000000000E+00 -0.62320174339E+03  0.62320174339E+03  0.00000000000E+00 0. -1.
    9000007    1    1    2  501    0 -0.21306003915E+02 -0.18461523005E+02  0.33633487972E+03  0.52336977841E+03  0.40000000000E+03 0. -1.
   -9000007    1    1    2    0  503  0.21306003915E+02  0.18461523005E+02 -0.45379249612E+03  0.60557609197E+03  0.40000000000E+03 0. -1.
<mgrwt>
<rscale>  2 0.40099224E+03</rscale>
<asrwt>0</asrwt>
<pdfrwt beam="1">  1       21 0.77806789E-01 0.40099224E+03</pdfrwt>
<pdfrwt beam="2">  1       21 0.95877192E-01 0.40099224E+03</pdfrwt>
<totfact> 0.11559754E+03</totfact>
</mgrwt>
</event>
<event>
 4    1  0.4821294E-002  0.4753605E+03  0.7818608E-02  0.1020418E+00
         21   -1    0    0  501  502  0.00000000000E+00  0.00000000000E+00  0.14093517799E+03  0.14093517799E+03  0.00000000000E+00 0. -1.
         21   -1    0    0  502  503 -0.00000000000E+00 -0.00000000000E+00 -0.22932263850E+04  0.22932263850E+04  0.00000000000E+00 0.  1.
    9000007    1    1    2  501    0  0.16438039713E+03  0.19734912536E+03 -0.40859618398E+03  0.62683206188E+03  0.40000000000E+03 0. -1.
   -9000007    1    1    2    0  503 -0.16438039713E+03 -0.19734912536E+03 -0.17436950230E+04  0.18073295011E+04  0.40000000000E+03 0.  1.
<mgrwt>
<rscale>  2 0.47536049E+03</rscale>
<asrwt>0</asrwt>
<pdfrwt beam="1">  1       21 0.21682337E-01 0.47536049E+03</pdfrwt>
<pdfrwt beam="2">  1       21 0.35280403E+00 0.47536049E+03</pdfrwt>
<totfact> 0.25467052E+02</totfact>
</mgrwt>
</event>
<event>
 4    1  0.4821294E-002  0.4029568E+03  0.7818608E-02  0.1042761E+00
         21   -1    0    0  503  502  0.00000000000E+00  0.00000000000E+00  0.66269495453E+03  0.66269495453E+03  0.00000000000E+00 0. -1.
         21   -1    0    0  501  503 -0.00000000000E+00 -0.00000000000E+00 -0.42282421118E+03  0.42282421118E+03  0.00000000000E+00 0. -1.
    9000007    1    1    2  501    0  0.35397205898E+02  0.33484138925E+02 -0.23202797051E+03  0.46498508454E+03  0.40000000000E+03 0. -1.
   -9000007    1    1    2    0  502 -0.35397205898E+02 -0.33484138925E+02  0.47189871386E+03  0.62053408117E+03  0.40000000000E+03 0. -1.
<mgrwt>
<rscale>  2 0.40295676E+03</rscale>
<asrwt>0</asrwt>
<pdfrwt beam="1">  1       21 0.10195307E+00 0.40295676E+03</pdfrwt>
<pdfrwt beam="2">  1       21 0.65049879E-01 0.40295676E+03</pdfrwt>
<totfact> 0.14905256E+03</totfact>
</mgrwt>
</event>
<event>
 4    1  0.4821294E-002  0.4505878E+03  0.7818608E-02  0.1027547E+00
         21   -1    0    0  501  502  0.00000000000E+00  0.00000000000E+00  0.66090138107E+03  0.66090138107E+03  0.00000000000E+00 0.  1.
         21   -1    0    0  502  503 -0.00000000000E+00 -0.00000000000E+00 -0.33700221685E+03  0.33700221685E+03  0.00000000000E+00 0.  1.
    9000007    1    1    2  501    0  0.18975554315E+03  0.83798560989E+02  0.31032481711E+03  0.54711137540E+03  0.40000000000E+03 0. -1.
   -9000007    1    1    2    0  503 -0.18975554315E+03 -0.83798560989E+02  0.13574347112E+02  0.45079222251E+03  0.40000000000E+03 0. -1.
<mgrwt>
<rscale>  2 0.45058780E+03</rscale>
<asrwt>0</asrwt>
<pdfrwt beam="1">  1       21 0.10167714E+00 0.45058780E+03</pdfrwt>
<pdfrwt beam="2">  1       21 0.51846495E-01 0.45058780E+03</pdfrwt>
<totfact> 0.24120160E+03</totfact>
</mgrwt>
</event>
<event>
 4    1  0.4821294E-002  0.4570008E+03  0.7818608E-02  0.1025655E+00
         21   -1    0    0  503  502  0.00000000000E+00  0.00000000000E+00  0.47308287691E+03  0.47308287691E+03  0.00000000000E+00 0.  1.
         21   -1    0    0  501  503 -0.00000000000E+00 -0.00000000000E+00 -0.57896754249E+03  0.57896754249E+03  0.00000000000E+00 0.  1.
    9000007    1    1    2  501    0 -0.35092487550E+02 -0.21821603503E+03 -0.30929284228E+03  0.55182586285E+03  0.40000000000E+03 0.  1.
   -9000007    1    1    2    0  502  0.35092487550E+02  0.21821603503E+03  0.20340817670E+03  0.50022455655E+03  0.40000000000E+03 0.  1.
<mgrwt>
<rscale>  2 0.45700079E+03</rscale>
<asrwt>0</asrwt>
<pdfrwt beam="1">  1       21 0.72781982E-01 0.45700079E+03</pdfrwt>
<pdfrwt beam="2">  1       21 0.89071929E-01 0.45700079E+03</pdfrwt>
<totfact> 0.15666662E+03</totfact>
</mgrwt>
</event>
<event>
 4    1  0.4821294E-002  0.4754018E+03  0.7818608E-02  0.1020407E+00
         21   -1    0    0  501  502  0.00000000000E+00  0.00000000000E+00  0.10276408465E+04  0.10276408465E+04  0.00000000000E+00 0.  1.
         21   -1    0    0  502  503 -0.00000000000E+00 -0.00000000000E+00 -0.24015113528E+03  0.24015113528E+03  0.00000000000E+00 0.  1.
    9000007    1    1    2  501    0  0.11093766715E+03 -0.23173187518E+03  0.20979405463E+03  0.51963484615E+03  0.40000000000E+03 0.  1.
   -9000007    1    1    2    0  503 -0.11093766715E+03  0.23173187518E+03  0.57769565662E+03  0.74815713566E+03  0.40000000000E+03 0.  1.
<mgrwt>
<rscale>  2 0.47540175E+03</rscale>
<asrwt>0</asrwt>
<pdfrwt beam="1">  1       21 0.15809859E+00 0.47540175E+03</pdfrwt>
<pdfrwt beam="2">  1       21 0.36946329E-01 0.47540175E+03</pdfrwt>
<totfact> 0.15462711E+03</totfact>
</mgrwt>
</event>
<event>
 4    1  0.4821294E-002  0.4735347E+03  0.7818608E-02  0.1020927E+00
         21   -1    0    0  501  502  0.00000000000E+00  0.00000000000E+00  0.38865569718E+03  0.38865569718E+03  0.00000000000E+00 0.  1.
         21   -1    0    0  502  503 -0.00000000000E+00 -0.00000000000E+00 -0.84343226788E+03  0.84343226788E+03  0.00000000000E+00 0.  1.
    9000007    1    1    2  501    0  0.16875368108E+03  0.18909607498E+03  0.11888604478E+03  0.48823050099E+03  0.40000000000E+03 0.  1.
   -9000007    1    1    2    0  503 -0.16875368108E+03 -0.18909607498E+03 -0.57366261549E+03  0.74385746407E+03  0.40000000000E+03 0.  1.
<mgrwt>
<rscale>  2 0.47353472E+03</rscale>
<asrwt>0</asrwt>
<pdfrwt beam="1">  1       21 0.59793185E-01 0.47353472E+03</pdfrwt>
<pdfrwt beam="2">  1       21 0.12975881E+00 0.47353472E+03</pdfrwt>
<totfact> 0.95082675E+02</totfact>
</mgrwt>
</event>
<event>
 4    1  0.4821294E-002  0.4019155E+03  0.7818608E-02  0.1043118E+00
         21   -1    0    0  503  502  0.00000000000E+00  0.00000000000E+00  0.10081010984E+04  0.10081010984E+04  0.00000000000E+00 0. -1.
         21   -1    0    0  501  503 -0.00000000000E+00 -0.00000000000E+00 -0.76495133104E+03  0.76495133104E+03  0.00000000000E+00 0. -1.
    9000007    1    1    2  501    0  0.37630976838E+02 -0.10952540825E+02 -0.66664878388E+03  0.77843217406E+03  0.40000000000E+03 0. -1.
   -9000007    1    1    2    0  502 -0.37630976838E+02  0.10952540825E+02  0.90979855119E+03  0.99462025533E+03  0.40000000000E+03 0. -1.
<mgrwt>
<rscale>  2 0.40191547E+03</rscale>
<asrwt>0</asrwt>
<pdfrwt beam="1">  1       21 0.15509248E+00 0.40191547E+03</pdfrwt>
<pdfrwt beam="2">  1       21 0.11768482E+00 0.40191547E+03</pdfrwt>
<totfact> 0.12564229E+02</totfact>
</mgrwt>
</event>
<event>
 4    1  0.4821294E-002  0.5687649E+03  0.7818608E-02  0.9972416E-01
         21   -1    0    0  503  502  0.00000000000E+00  0.00000000000E+00  0.12080798404E+04  0.12080798404E+04  0.00000000000E+00 0. -1.
         21   -1    0    0  501  503 -0.00000000000E+00 -0.00000000000E+00 -0.27420258383E+03  0.27420258383E+03  0.00000000000E+00 0.  1.
    9000007    1    1    2  501    0 -0.23971477119E+03 -0.32562292660E+03  0.58041157942E+03  0.81263218210E+03  0.40000000000E+03 0. -1.
   -9000007    1    1    2    0  502  0.23971477119E+03  0.32562292660E+03  0.35346567715E+03  0.66965024213E+03  0.40000000000E+03 0. -1.
<mgrwt>
<rscale>  2 0.56876486E+03</rscale>
<asrwt>0</asrwt>
<pdfrwt beam="1">  1       21 0.18585843E+00 0.56876486E+03</pdfrwt>
<pdfrwt beam="2">  1       21 0.42185013E-01 0.56876486E+03</pdfrwt>
<totfact> 0.71301631E+02</totfact>
</mgrwt>
</event>
<event>
 4    1  0.4821294E-002  0.4636769E+03  0.7818608E-02  0.1023720E+00
         21   -1    0    0  503  502  0.00000000000E+00  0.00000000000E+00  0.10799884985E+04  0.10799884985E+04  0.00000000000E+00 0. -1.
         21   -1    0    0  501  503 -0.00000000000E+00 -0.00000000000E+00 -0.19923985606E+03  0.19923985606E+03  0.00000000000E+00 0.  1.
    9000007    1    1    2  501    0 -0.22635177043E+03 -0.61328266128E+02  0.45889795859E+03  0.65236770046E+03  0.40000000000E+03 0.  1.
   -9000007    1    1    2    0  502  0.22635177043E+03  0.61328266128E+02  0.42185068385E+03  0.62686065411E+03  0.40000000000E+03 0. -1.
<mgrwt>
<rscale>  2 0.46367691E+03</rscale>
<asrwt>0</asrwt>
<pdfrwt beam="1">  1       21 0.16615207E+00 0.46367691E+03</pdfrwt>
<pdfrwt beam="2">  1       21 0.30652286E-01 0.46367691E+03</pdfrwt>
<totfact> 0.19693411E+03</totfact>
</mgrwt>
</event>
<event>
 4    1  0.4821294E-002  0.4230715E+03  0.7818608E-02  0.1036071E+00
         21   -1    0    0  501  502  0.00000000000E+00  0.00000000000E+00  0.34563717901E+03  0.34563717901E+03  0.00000000000E+00 0. -1.
         21   -1    0    0  502  503 -0.00000000000E+00 -0.00000000000E+00 -0.81542735609E+03  0.81542735609E+03  0.00000000000E+00 0. -1.
    9000007    1    1    2  501    0 -0.17317338128E+02  0.13670990860E+03  0.11580104001E+03  0.43863352605E+03  0.40000000000E+03 0. -1.
   -9000007    1    1    2    0  503  0.17317338128E+02 -0.13670990860E+03 -0.58559121709E+03  0.72243100905E+03  0.40000000000E+03 0. -1.
<mgrwt>
<rscale>  2 0.42307149E+03</rscale>
<asrwt>0</asrwt>
<pdfrwt beam="1">  1       21 0.53174950E-01 0.42307149E+03</pdfrwt>
<pdfrwt beam="2">  1       21 0.12545036E+00 0.42307149E+03</pdfrwt>
<totfact> 0.13662887E+03</totfact>
</mgrwt>
</event>
<event>
 4    1  0.4821294E-002  0.5241784E+03  0.7818608E-02  0.1007654E+00
         21   -1    0    0  501  502  0.00000000000E+00  0.00000000000E+00  0.59296731366E+03  0.59296731366E+03  0.00000000000E+00 0. -1.
         21   -1    0    0  502  503 -0.00000000000E+00 -0.00000000000E+00 -0.66728560426E+03  0.66728560426E+03  0.00000000000E+00 0.  1.
    9000007    1    1    2  501    0 -0.21522694088E+03 -0.26161105184E+03  0.31117622983E+03  0.60958479684E+03  0.40000000000E+03 0. -1.
   -9000007    1    1    2    0  503  0.21522694088E+03  0.26161105184E+03 -0.38549452042E+03  0.65066812108E+03  0.40000000000E+03 0.  1.
<mgrwt>
<rscale>  2 0.52417838E+03</rscale>
<asrwt>0</asrwt>
<pdfrwt beam="1">  1       21 0.91225740E-01 0.52417838E+03</pdfrwt>
<pdfrwt beam="2">  1       21 0.10265932E+00 0.52417838E+03</pdfrwt>
<totfact> 0.64189216E+02</totfact>
</mgrwt>
</event>
<event>
 4    1  0.4821294E-002  0.4180650E+03  0.7818608E-02  0.1037698E+00
         21   -1    0    0  501  502  0.00000000000E+00  0.00000000000E+00  0.51107005564E+03  0.51107005564E+03  0.00000000000E+00 0. -1.
         21   -1    0    0  502  503 -0.00000000000E+00 -0.00000000000E+00 -0.55555302407E+03  0.55555302407E+03  0.00000000000E+00 0.  1.
    9000007    1    1    2  501    0  0.10249296839E+03  0.65371967522E+02  0.30842206163E+03  0.51952138629E+03  0.40000000000E+03 0. -1.
   -9000007    1    1    2    0  503 -0.10249296839E+03 -0.65371967522E+02 -0.35290503007E+03  0.54710169343E+03  0.40000000000E+03 0.  1.
<mgrwt>
<rscale>  2 0.41806495E+03</rscale>
<asrwt>0</asrwt>
<pdfrwt beam="1">  1       21 0.78626163E-01 0.41806495E+03</pdfrwt>
<pdfrwt beam="2">  1       21 0.85469696E-01 0.41806495E+03</pdfrwt>
<totfact> 0.14699663E+03</totfact>
</mgrwt>
</event>
<event>
 4    1  0.4821294E-002  0.6265068E+03  0.7818608E-02  0.9851889E-01
         21   -1    0    0  501  502  0.00000000000E+00  0.00000000000E+00  0.12294358315E+04  0.12294358315E+04  0.00000000000E+00 0.  1.
         21   -1    0    0  502  503 -0.00000000000E+00 -0.00000000000E+00 -0.45684108516E+03  0.45684108516E+03  0.00000000000E+00 0.  1.
    9000007    1    1    2  501    0  0.39798990081E+03  0.27224025747E+03  0.84899189568E+03  0.10551293560E+04  0.40000000000E+03 0.  1.
   -9000007    1    1    2    0  503 -0.39798990081E+03 -0.27224025747E+03 -0.76397149335E+02  0.63114756068E+03  0.40000000000E+03 0.  1.
<mgrwt>
<rscale>  2 0.62650676E+03</rscale>
<asrwt>0</asrwt>
<pdfrwt beam="1">  1       21 0.18914397E+00 0.62650676E+03</pdfrwt>
<pdfrwt beam="2">  1       21 0.70283244E-01 0.62650676E+03</pdfrwt>
<totfact> 0.21853447E+02</totfact>
</mgrwt>
</event>
<event>
 4    1  0.4821294E-002  0.4265534E+03  0.7818608E-02  0.1034954E+00
         21   -1    0    0  503  502  0.00000000000E+00  0.00000000000E+00  0.17690057618E+03  0.17690057618E+03  0.00000000000E+00 0. -1.
         21   -1    0    0  501  503 -0.00000000000E+00 -0.00000000000E+00 -0.12132261781E+04  0.12132261781E+04  0.00000000000E+00 0. -1.
    9000007    1    1    2  501    0 -0.12314142013E+03  0.82364942487E+02 -0.78935728745E+03  0.89723615640E+03  0.40000000000E+03 0. -1.
   -9000007    1    1    2    0  502  0.12314142013E+03 -0.82364942487E+02 -0.24696831443E+03  0.49289059784E+03  0.40000000000E+03 0. -1.
<mgrwt>
<rscale>  2 0.42655339E+03</rscale>
<asrwt>0</asrwt>
<pdfrwt beam="1">  1       21 0.27215472E-01 0.42655339E+03</pdfrwt>
<pdfrwt beam="2">  1       21 0.18665019E+00 0.42655339E+03</pdfrwt>
<totfact> 0.18075361E+03</totfact>
</mgrwt>
</event>
<event>
 4    1  0.4821294E-002  0.5005966E+03  0.7818608E-02  0.1013623E+00
         21   -1    0    0  501  502  0.00000000000E+00  0.00000000000E+00  0.12257495355E+04  0.12257495355E+04  0.00000000000E+00 0. -1.
         21   -1    0    0  502  503 -0.00000000000E+00 -0.00000000000E+00 -0.29002147703E+03  0.29002147703E+03  0.00000000000E+00 0.  1.
    9000007    1    1    2  501    0  0.54262113316E+02  0.29606180340E+03  0.87955241220E+03  0.10120323187E+04  0.40000000000E+03 0. -1.
   -9000007    1    1    2    0  503 -0.54262113316E+02 -0.29606180340E+03  0.56175646265E+02  0.50373869378E+03  0.40000000000E+03 0. -1.
<mgrwt>
<rscale>  2 0.50059661E+03</rscale>
<asrwt>0</asrwt>
<pdfrwt beam="1">  1       21 0.18857685E+00 0.50059661E+03</pdfrwt>
<pdfrwt beam="2">  1       21 0.44618689E-01 0.50059661E+03</pdfrwt>
<totfact> 0.62343532E+02</totfact>
</mgrwt>
</event>
<event>
 4    1  0.4821294E-002  0.5392055E+03  0.7818608E-02  0.1004024E+00
         21   -1    0    0  503  502  0.00000000000E+00  0.00000000000E+00  0.10557653747E+04  0.10557653747E+04  0.00000000000E+00 0.  1.
         21   -1    0    0  501  503 -0.00000000000E+00 -0.00000000000E+00 -0.27626971132E+03  0.27626971132E+03  0.00000000000E+00 0.  1.
    9000007    1    1    2  501    0 -0.33415777932E+03  0.13813439420E+03  0.42742548697E+03  0.68806618813E+03  0.40000000000E+03 0. -1.
   -9000007    1    1    2    0  502  0.33415777932E+03 -0.13813439420E+03  0.35207017644E+03  0.64396889791E+03  0.40000000000E+03 0. -1.
<mgrwt>
<rscale>  2 0.53920546E+03</rscale>
<asrwt>0</asrwt>
<pdfrwt beam="1">  1       21 0.16242544E+00 0.53920546E+03</pdfrwt>
<pdfrwt beam="2">  1       21 0.42503033E-01 0.53920546E+03</pdfrwt>
<totfact> 0.10487113E+03</totfact>
</mgrwt>
</event>
<event>
 4    1  0.4821294E-002  0.4214271E+03  0.7818608E-02  0.1036603E+00
         21   -1    0    0  501  502  0.00000000000E+00  0.00000000000E+00  0.72637331927E+03  0.72637331927E+03  0.00000000000E+00 0. -1.
         21   -1    0    0  502  503 -0.00000000000E+00 -0.00000000000E+00 -0.24843345685E+03  0.24843345685E+03  0.00000000000E+00 0.  1.
    9000007    1    1    2  501    0 -0.95335919396E+02 -0.92259858827E+02  0.30027231708E+03  0.51745945105E+03  0.40000000000E+03 0. -1.
   -9000007    1    1    2    0  503  0.95335919396E+02  0.92259858827E+02  0.17766754534E+03  0.45734732507E+03  0.40000000000E+03 0. -1.
<mgrwt>
<rscale>  2 0.42142712E+03</rscale>
<asrwt>0</asrwt>
<pdfrwt beam="1">  1       21 0.11174974E+00 0.42142712E+03</pdfrwt>
<pdfrwt beam="2">  1       21 0.38220532E-01 0.42142712E+03</pdfrwt>
<totfact> 0.36541710E+03</totfact>
</mgrwt>
</event>
<event>
 4    1  0.4821294E-002  0.5725185E+03  0.7818608E-02  0.9964121E-01
         21   -1    0    0  503  502  0.00000000000E+00  0.00000000000E+00  0.84104766401E+03  0.84104766401E+03  0.00000000000E+00 0. -1.
         21   -1    0    0  501  503 -0.00000000000E+00 -0.00000000000E+00 -0.50487746256E+03  0.50487746256E+03  0.00000000000E+00 0.  1.
    9000007    1    1    2  501    0  0.27781286374E+03 -0.30099405941E+03 -0.15330632103E+03  0.59268899022E+03  0.40000000000E+03 0. -1.
   -9000007    1    1    2    0  502 -0.27781286374E+03  0.30099405941E+03  0.48947652248E+03  0.75323613636E+03  0.40000000000E+03 0. -1.
<mgrwt>
<rscale>  2 0.57251848E+03</rscale>
<asrwt>0</asrwt>
<pdfrwt beam="1">  1       21 0.12939195E+00 0.57251848E+03</pdfrwt>
<pdfrwt beam="2">  1       21 0.77673456E-01 0.57251848E+03</pdfrwt>
<totfact> 0.51245658E+02</totfact>
</mgrwt>
</event>
<event>
 4    1  0.4821294E-002  0.4951869E+03  0.7818608E-02  0.1015043E+00
         21   -1    0    0  503  502  0.00000000000E+00  0.00000000000E+00  0.20856389207E+04  0.20856389207E+04  0.00000000000E+00 0. -1.
         21   -1    0    0  501  503 -0.00000000000E+00 -0.00000000000E+00 -0.35551236042E+03  0.35551236042E+03  0.00000000000E+00 0. -1.
    9000007    1    1    2  501    0 -0.19253783328E+03  0.21940654760E+03 -0.13349307502E+03  0.51286494465E+03  0.40000000000E+03 0. -1.
   -9000007    1    1    2    0  502  0.19253783328E+03 -0.21940654760E+03  0.18636196353E+04  0.19282863365E+04  0.40000000000E+03 0. -1.
<mgrwt>
<rscale>  2 0.49518688E+03</rscale>
<asrwt>0</asrwt>
<pdfrwt beam="1">  1       21 0.32086752E+00 0.49518688E+03</pdfrwt>
<pdfrwt beam="2">  1       21 0.54694211E-01 0.49518688E+03</pdfrwt>
<totfact> 0.60298265E+01</totfact>
</mgrwt>
</event>
<event>
 4    1  0.4821294E-002  0.4430713E+03  0.7818608E-02  0.1029809E+00
         21   -1    0    0  503  502  0.00000000000E+00  0.00000000000E+00  0.74942403952E+03  0.74942403952E+03  0.00000000000E+00 0.  1.
         21   -1    0    0  501  503 -0.00000000000E+00 -0.00000000000E+00 -0.27236371972E+03  0.27236371972E+03  0.00000000000E+00 0. -1.
    9000007    1    1    2  501    0  0.15806273252E+03  0.10643464769E+03  0.13863507005E+03  0.46425407299E+03  0.40000000000E+03 0. -1.
   -9000007    1    1    2    0  502 -0.15806273252E+03 -0.10643464769E+03  0.33842524975E+03  0.55753368626E+03  0.40000000000E+03 0.  1.
<mgrwt>
<rscale>  2 0.44307128E+03</rscale>
<asrwt>0</asrwt>
<pdfrwt beam="1">  1       21 0.11529601E+00 0.44307128E+03</pdfrwt>
<pdfrwt beam="2">  1       21 0.41902111E-01 0.44307128E+03</pdfrwt>
<totfact> 0.27749322E+03</totfact>
</mgrwt>
</event>
<event>
 4    1  0.4821294E-002  0.5577923E+03  0.7818608E-02  0.9997062E-01
         21   -1    0    0  501  502  0.00000000000E+00  0.00000000000E+00  0.56225091018E+03  0.56225091018E+03  0.00000000000E+00 0.  1.
         21   -1    0    0  502  503 -0.00000000000E+00 -0.00000000000E+00 -0.69998357065E+03  0.69998357065E+03  0.00000000000E+00 0.  1.
    9000007    1    1    2  501    0 -0.31369282121E+03  0.22962805028E+03  0.21997190149E+03  0.59959975400E+03  0.40000000000E+03 0.  1.
   -9000007    1    1    2    0  503  0.31369282121E+03 -0.22962805028E+03 -0.35770456196E+03  0.66263472683E+03  0.40000000000E+03 0.  1.
<mgrwt>
<rscale>  2 0.55779228E+03</rscale>
<asrwt>0</asrwt>
<pdfrwt beam="1">  1       21 0.86500140E-01 0.55779228E+03</pdfrwt>
<pdfrwt beam="2">  1       21 0.10768978E+00 0.55779228E+03</pdfrwt>
<totfact> 0.63922226E+02</totfact>
</mgrwt>
</event>
<event>
 4    1  0.4821294E-002  0.4820166E+03  0.7818608E-02  0.1018582E+00
         21   -1    0    0  501  502  0.00000000000E+00  0.00000000000E+00  0.24002888744E+03  0.24002888744E+03  0.00000000000E+00 0.  1.
         21   -1    0    0  502  503 -0.00000000000E+00 -0.00000000000E+00 -0.96861775406E+03  0.96861775406E+03  0.00000000000E+00 0.  1.
    9000007    1    1    2  501    0  0.25684811894E+03 -0.79806423416E+02 -0.34862943656E+03  0.59488024464E+03  0.40000000000E+03 0.  1.
   -9000007    1    1    2    0  503 -0.25684811894E+03  0.79806423416E+02 -0.37995943006E+03  0.61376639686E+03  0.40000000000E+03 0.  1.
<mgrwt>
<rscale>  2 0.48201662E+03</rscale>
<asrwt>0</asrwt>
<pdfrwt beam="1">  1       21 0.36927521E-01 0.48201662E+03</pdfrwt>
<pdfrwt beam="2">  1       21 0.14901812E+00 0.48201662E+03</pdfrwt>
<totfact> 0.18161231E+03</totfact>
</mgrwt>
</event>
<event>
 4    1  0.4821294E-002  0.4989769E+03  0.7818608E-02  0.1014046E+00
         21   -1    0    0  503  502  0.00000000000E+00  0.00000000000E+00  0.39556271038E+03  0.39556271038E+03  0.00000000000E+00 0.  1.
         21   -1    0    0  501  503 -0.00000000000E+00 -0.00000000000E+00 -0.68228859161E+03  0.68228859161E+03  0.00000000000E+00 0.  1.
    9000007    1    1    2  501    0  0.26793277970E+03  0.13111058863E+03 -0.29337071490E+03  0.57883014542E+03  0.40000000000E+03 0.  1.
   -9000007    1    1    2    0  502 -0.26793277970E+03 -0.13111058863E+03  0.66448336659E+01  0.49902115657E+03  0.40000000000E+03 0.  1.
<mgrwt>
<rscale>  2 0.49897691E+03</rscale>
<asrwt>0</asrwt>
<pdfrwt beam="1">  1       21 0.60855802E-01 0.49897691E+03</pdfrwt>
<pdfrwt beam="2">  1       21 0.10496747E+00 0.49897691E+03</pdfrwt>
<totfact> 0.15482424E+03</totfact>
</mgrwt>
</event>
<event>
 4    1  0.4821294E-002  0.4199907E+03  0.7818608E-02  0.1037069E+00
         21   -1    0    0  503  502  0.00000000000E+00  0.00000000000E+00  0.77037579247E+03  0.77037579247E+03  0.00000000000E+00 0.  1.
         21   -1    0    0  501  503 -0.00000000000E+00 -0.00000000000E+00 -0.69840550472E+03  0.69840550472E+03  0.00000000000E+00 0.  1.
    9000007    1    1    2  501    0 -0.10976052796E+03 -0.65915177592E+02 -0.56610530084E+03  0.70488821509E+03  0.40000000000E+03 0.  1.
   -9000007    1    1    2    0  502  0.10976052796E+03  0.65915177592E+02  0.63807558858E+03  0.76389308210E+03  0.40000000000E+03 0.  1.
<mgrwt>
<rscale>  2 0.41999070E+03</rscale>
<asrwt>0</asrwt>
<pdfrwt beam="1">  1       21 0.11851935E+00 0.41999070E+03</pdfrwt>
<pdfrwt beam="2">  1       21 0.10744700E+00 0.41999070E+03</pdfrwt>
<totfact> 0.31599706E+02</totfact>
</mgrwt>
</event>
<event>
 4    1  0.4821294E-002  0.5475442E+03  0.7818608E-02  0.1002064E+00
         21   -1    0    0  501  502  0.00000000000E+00  0.00000000000E+00  0.25034802919E+03  0.25034802919E+03  0.00000000000E+00 0.  1.
         21   -1    0    0  502  503 -0.00000000000E+00 -0.00000000000E+00 -0.12350669123E+04  0.12350669123E+04  0.00000000000E+00 0. -1.
    9000007    1    1    2  501    0  0.37315020309E+03  0.23740921811E+02 -0.36291711466E+03  0.65689690024E+03  0.40000000000E+03 0.  1.
   -9000007    1    1    2    0  503 -0.37315020309E+03 -0.23740921811E+02 -0.62180176843E+03  0.82851804124E+03  0.40000000000E+03 0. -1.
<mgrwt>
<rscale>  2 0.54754425E+03</rscale>
<asrwt>0</asrwt>
<pdfrwt beam="1">  1       21 0.38515081E-01 0.54754425E+03</pdfrwt>
<pdfrwt beam="2">  1       21 0.19001030E+00 0.54754425E+03</pdfrwt>
<totfact> 0.81208816E+02</totfact>
</mgrwt>
</event>
<event>
 4    1  0.4821294E-002  0.5542995E+03  0.7818608E-02  0.1000504E+00
         21   -1    0    0  503  502  0.00000000000E+00  0.00000000000E+00  0.92900232055E+03  0.92900232055E+03  0.00000000000E+00 0. -1.
         21   -1    0    0  501  503 -0.00000000000E+00 -0.00000000000E+00 -0.39830447785E+03  0.39830447785E+03  0.00000000000E+00 0.  1.
    9000007    1    1    2  501    0 -0.27552398436E+03  0.26708521162E+03  0.53870479052E+03  0.77294943402E+03  0.40000000000E+03 0. -1.
   -9000007    1    1    2    0  502  0.27552398436E+03 -0.26708521162E+03 -0.80069478156E+01  0.55435736437E+03  0.40000000000E+03 0.  1.
<mgrwt>
<rscale>  2 0.55429954E+03</rscale>
<asrwt>0</asrwt>
<pdfrwt beam="1">  1       21 0.14292343E+00 0.55429954E+03</pdfrwt>
<pdfrwt beam="2">  1       21 0.61277612E-01 0.55429954E+03</pdfrwt>
<totfact> 0.67687479E+02</totfact>
</mgrwt>
</event>
<event>
 4    1  0.4821294E-002  0.4251955E+03  0.7818608E-02  0.1035389E+00
         21   -1    0    0  503  502  0.00000000000E+00  0.00000000000E+00  0.21797633460E+03  0.21797633460E+03  0.00000000000E+00 0. -1.
         21   -1    0    0  501  503 -0.00000000000E+00 -0.00000000000E+00 -0.83295379944E+03  0.83295379944E+03  0.00000000000E+00 0. -1.
    9000007    1    1    2  501    0 -0.89151792865E+02 -0.11332764804E+03 -0.27320220080E+03  0.50540146468E+03  0.40000000000E+03 0. -1.
   -9000007    1    1    2    0  502  0.89151792865E+02  0.11332764804E+03 -0.34177526403E+03  0.54552866935E+03  0.40000000000E+03 0. -1.
<mgrwt>
<rscale>  2 0.42519548E+03</rscale>
<asrwt>0</asrwt>
<pdfrwt beam="1">  1       21 0.33534820E-01 0.42519548E+03</pdfrwt>
<pdfrwt beam="2">  1       21 0.12814674E+00 0.42519548E+03</pdfrwt>
<totfact> 0.33629259E+03</totfact>
</mgrwt>
</event>
<event>
 4    1  0.4821294E-002  0.4436641E+03  0.7818608E-02  0.1029628E+00
         21   -1    0    0  501  502  0.00000000000E+00  0.00000000000E+00  0.18247946836E+04  0.18247946836E+04  0.00000000000E+00 0. -1.
         21   -1    0    0  502  503 -0.00000000000E+00 -0.00000000000E+00 -0.23852225391E+03  0.23852225391E+03  0.00000000000E+00 0. -1.
    9000007    1    1    2  501    0  0.15477387819E+03  0.11350273276E+03  0.15566774205E+04  0.16186668635E+04  0.40000000000E+03 0. -1.
   -9000007    1    1    2    0  503 -0.15477387819E+03 -0.11350273276E+03  0.29595009214E+02  0.44465007397E+03  0.40000000000E+03 0. -1.
<mgrwt>
<rscale>  2 0.44366409E+03</rscale>
<asrwt>0</asrwt>
<pdfrwt beam="1">  1       21 0.28073764E+00 0.44366409E+03</pdfrwt>
<pdfrwt beam="2">  1       21 0.36695732E-01 0.44366409E+03</pdfrwt>
<totfact> 0.25082996E+02</totfact>
</mgrwt>
</event>
<event>
 4    1  0.4821294E-002  0.4397255E+03  0.7818608E-02  0.1030831E+00
         21   -1    0    0  501  502  0.00000000000E+00  0.00000000000E+00  0.24709219920E+03  0.24709219920E+03  0.00000000000E+00 0. -1.
         21   -1    0    0  502  503 -0.00000000000E+00 -0.00000000000E+00 -0.15699601265E+04  0.15699601265E+04  0.00000000000E+00 0. -1.
    9000007    1    1    2  501    0  0.97361502780E+02  0.15452915325E+03 -0.18009591069E+02  0.44009415674E+03  0.40000000000E+03 0. -1.
   -9000007    1    1    2    0  503 -0.97361502780E+02 -0.15452915325E+03 -0.13048583362E+04  0.13769581689E+04  0.40000000000E+03 0. -1.
<mgrwt>
<rscale>  2 0.43972551E+03</rscale>
<asrwt>0</asrwt>
<pdfrwt beam="1">  1       21 0.38014184E-01 0.43972551E+03</pdfrwt>
<pdfrwt beam="2">  1       21 0.24153233E+00 0.43972551E+03</pdfrwt>
<totfact> 0.40532162E+02</totfact>
</mgrwt>
</event>
<event>
 4    1  0.4821294E-002  0.4212149E+03  0.7818608E-02  0.1036672E+00
         21   -1    0    0  503  502  0.00000000000E+00  0.00000000000E+00  0.50771993054E+03  0.50771993054E+03  0.00000000000E+00 0. -1.
         21   -1    0    0  501  503 -0.00000000000E+00 -0.00000000000E+00 -0.11562355455E+04  0.11562355455E+04  0.00000000000E+00 0. -1.
    9000007    1    1    2  501    0 -0.75891274553E+02  0.10799308789E+03 -0.10192309036E+04  0.11028388946E+04  0.40000000000E+03 0. -1.
   -9000007    1    1    2    0  502  0.75891274553E+02 -0.10799308789E+03  0.37071528872E+03  0.56111658136E+03  0.40000000000E+03 0. -1.
<mgrwt>
<rscale>  2 0.42121490E+03</rscale>
<asrwt>0</asrwt>
<pdfrwt beam="1">  1       21 0.78110759E-01 0.42121490E+03</pdfrwt>
<pdfrwt beam="2">  1       21 0.17788239E+00 0.42121490E+03</pdfrwt>
<totfact> 0.22581206E+02</totfact>
</mgrwt>
</event>
<event>
 4    1  0.4821294E-002  0.4126619E+03  0.7818608E-02  0.1039481E+00
         21   -1    0    0  501  502  0.00000000000E+00  0.00000000000E+00  0.58994748953E+03  0.58994748953E+03  0.00000000000E+00 0. -1.
         21   -1    0    0  502  503 -0.00000000000E+00 -0.00000000000E+00 -0.44798143145E+03  0.44798143145E+03  0.00000000000E+00 0. -1.
    9000007    1    1    2  501    0  0.10119730135E+03 -0.69942517002E+01  0.38047895956E+03  0.56129675932E+03  0.40000000000E+03 0. -1.
   -9000007    1    1    2    0  503 -0.10119730135E+03  0.69942517002E+01 -0.23851290148E+03  0.47663216166E+03  0.40000000000E+03 0. -1.
<mgrwt>
<rscale>  2 0.41266186E+03</rscale>
<asrwt>0</asrwt>
<pdfrwt beam="1">  1       21 0.90761152E-01 0.41266186E+03</pdfrwt>
<pdfrwt beam="2">  1       21 0.68920220E-01 0.41266186E+03</pdfrwt>
<totfact> 0.17248260E+03</totfact>
</mgrwt>
</event>
<event>
 4    1  0.4821294E-002  0.4105246E+03  0.7818608E-02  0.1040195E+00
         21   -1    0    0  503  502  0.00000000000E+00  0.00000000000E+00  0.50105112509E+03  0.50105112509E+03  0.00000000000E+00 0. -1.
         21   -1    0    0  501  503 -0.00000000000E+00 -0.00000000000E+00 -0.57134461663E+03  0.57134461663E+03  0.00000000000E+00 0. -1.
    9000007    1    1    2  501    0  0.65150863988E+02 -0.65466018392E+02  0.30872895524E+03  0.51365747580E+03  0.40000000000E+03 0. -1.
   -9000007    1    1    2    0  502 -0.65150863988E+02  0.65466018392E+02 -0.37902244678E+03  0.55873826592E+03  0.40000000000E+03 0. -1.
<mgrwt>
<rscale>  2 0.41052458E+03</rscale>
<asrwt>0</asrwt>
<pdfrwt beam="1">  1       21 0.77084789E-01 0.41052458E+03</pdfrwt>
<pdfrwt beam="2">  1       21 0.87899171E-01 0.41052458E+03</pdfrwt>
<totfact> 0.14450094E+03</totfact>
</mgrwt>
</event>
<event>
 4    1  0.4821294E-002  0.4373186E+03  0.7818608E-02  0.1031573E+00
         21   -1    0    0  501  502  0.00000000000E+00  0.00000000000E+00  0.14013561660E+04  0.14013561660E+04  0.00000000000E+00 0.  1.
         21   -1    0    0  502  503 -0.00000000000E+00 -0.00000000000E+00 -0.14022524857E+03  0.14022524857E+03  0.00000000000E+00 0.  1.
    9000007    1    1    2  501    0 -0.93771298967E+02 -0.14984837075E+03  0.75664839985E+03  0.87393614854E+03  0.40000000000E+03 0.  1.
   -9000007    1    1    2    0  503  0.93771298967E+02  0.14984837075E+03  0.50448251761E+03  0.66764526606E+03  0.40000000000E+03 0.  1.
<mgrwt>
<rscale>  2 0.43731864E+03</rscale>
<asrwt>0</asrwt>
<pdfrwt beam="1">  1       21 0.21559325E+00 0.43731864E+03</pdfrwt>
<pdfrwt beam="2">  1       21 0.21573116E-01 0.43731864E+03</pdfrwt>
<totfact> 0.18118690E+03</totfact>
</mgrwt>
</event>
<event>
 4    1  0.4821294E-002  0.5326857E+03  0.7818608E-02  0.1005583E+00
         21   -1    0    0  501  502  0.00000000000E+00  0.00000000000E+00  0.83179930387E+03  0.83179930387E+03  0.00000000000E+00 0. -1.
         21   -1    0    0  502  503 -0.00000000000E+00 -0.00000000000E+00 -0.75849575728E+03  0.75849575728E+03  0.00000000000E+00 0. -1.
    9000007    1    1    2  501    0  0.22382529553E+03 -0.27139701449E+03  0.62648337742E+03  0.82233540880E+03  0.40000000000E+03 0. -1.
   -9000007    1    1    2    0  503 -0.22382529553E+03  0.27139701449E+03 -0.55317983083E+03  0.76795965234E+03  0.40000000000E+03 0. -1.
<mgrwt>
<rscale>  2 0.53268574E+03</rscale>
<asrwt>0</asrwt>
<pdfrwt beam="1">  1       21 0.12796912E+00 0.53268574E+03</pdfrwt>
<pdfrwt beam="2">  1       21 0.11669166E+00 0.53268574E+03</pdfrwt>
<totfact> 0.20043738E+02</totfact>
</mgrwt>
</event>
<event>
 4    1  0.4821294E-002  0.4061602E+03  0.7818608E-02  0.1041667E+00
         21   -1    0    0  501  502  0.00000000000E+00  0.00000000000E+00  0.76211603769E+03  0.76211603769E+03  0.00000000000E+00 0. -1.
         21   -1    0    0  502  503 -0.00000000000E+00 -0.00000000000E+00 -0.26691775450E+03  0.26691775450E+03  0.00000000000E+00 0. -1.
    9000007    1    1    2  501    0  0.10347045436E+01 -0.70463067665E+02  0.47130814824E+03  0.62217158816E+03  0.40000000000E+03 0. -1.
   -9000007    1    1    2    0  503 -0.10347045436E+01  0.70463067665E+02  0.23890134948E+02  0.40686220403E+03  0.40000000000E+03 0. -1.
<mgrwt>
<rscale>  2 0.40616021E+03</rscale>
<asrwt>0</asrwt>
<pdfrwt beam="1">  1       21 0.11724862E+00 0.40616021E+03</pdfrwt>
<pdfrwt beam="2">  1       21 0.41064270E-01 0.40616021E+03</pdfrwt>
<totfact> 0.28142663E+03</totfact>
</mgrwt>
</event>
<event>
 4    1  0.4821294E-002  0.4588046E+03  0.7818608E-02  0.1025128E+00
         21   -1    0    0  503  502  0.00000000000E+00  0.00000000000E+00  0.54442721976E+03  0.54442721976E+03  0.00000000000E+00 0. -1.
         21   -1    0    0  501  503 -0.00000000000E+00 -0.00000000000E+00 -0.40476484059E+03  0.40476484059E+03  0.00000000000E+00 0. -1.
    9000007    1    1    2  501    0 -0.10668384557E+03 -0.19778837347E+03 -0.30575860550E+02  0.45982232094E+03  0.40000000000E+03 0. -1.
   -9000007    1    1    2    0  502  0.10668384557E+03  0.19778837347E+03  0.17023823972E+03  0.48936973941E+03  0.40000000000E+03 0. -1.
<mgrwt>
<rscale>  2 0.45880462E+03</rscale>
<asrwt>0</asrwt>
<pdfrwt beam="1">  1       21 0.83758033E-01 0.45880462E+03</pdfrwt>
<pdfrwt beam="2">  1       21 0.62271514E-01 0.45880462E+03</pdfrwt>
<totfact> 0.25643586E+03</totfact>
</mgrwt>
</event>
<event>
 4    1  0.4821294E-002  0.5105596E+03  0.7818608E-02  0.1011059E+00
         21   -1    0    0  503  502  0.00000000000E+00  0.00000000000E+00  0.10749164557E+04  0.10749164557E+04  0.00000000000E+00 0. -1.
         21   -1    0    0  501  503 -0.00000000000E+00 -0.00000000000E+00 -0.40349329843E+03  0.40349329843E+03  0.00000000000E+00 0. -1.
    9000007    1    1    2  501    0  0.23911001296E+03  0.20856065294E+03 -0.13121184505E+03  0.52715054067E+03  0.40000000000E+03 0. -1.
   -9000007    1    1    2    0  502 -0.23911001296E+03 -0.20856065294E+03  0.80263500236E+03  0.95125921350E+03  0.40000000000E+03 0. -1.
<mgrwt>
<rscale>  2 0.51055964E+03</rscale>
<asrwt>0</asrwt>
<pdfrwt beam="1">  1       21 0.16537176E+00 0.51055964E+03</pdfrwt>
<pdfrwt beam="2">  1       21 0.62075892E-01 0.51055964E+03</pdfrwt>
<totfact> 0.44720167E+02</totfact>
</mgrwt>
</event>
<event>
 4    1  0.4821294E-002  0.4240116E+03  0.7818608E-02  0.1035769E+00
         21   -1    0    0  503  502  0.00000000000E+00  0.00000000000E+00  0.62711977834E+03  0.62711977834E+03  0.00000000000E+00 0. -1.
         21   -1    0    0  501  503 -0.00000000000E+00 -0.00000000000E+00 -0.12576789502E+04  0.12576789502E+04  0.00000000000E+00 0. -1.
    9000007    1    1    2  501    0 -0.53714158453E+02  0.13000226763E+03 -0.11433330194E+04  0.12194245338E+04  0.40000000000E+03 0. -1.
   -9000007    1    1    2    0  502  0.53714158453E+02 -0.13000226763E+03  0.51277384749E+03  0.66537419478E+03  0.40000000000E+03 0. -1.
<mgrwt>
<rscale>  2 0.42401156E+03</rscale>
<asrwt>0</asrwt>
<pdfrwt beam="1">  1       21 0.96479966E-01 0.42401156E+03</pdfrwt>
<pdfrwt beam="2">  1       21 0.19348907E+00 0.42401156E+03</pdfrwt>
<totfact> 0.10711968E+02</totfact>
</mgrwt>
</event>
<event>
 4    1  0.4821294E-002  0.4364367E+03  0.7818608E-02  0.1031846E+00
         21   -1    0    0  503  502  0.00000000000E+00  0.00000000000E+00  0.13325297550E+04  0.13325297550E+04  0.00000000000E+00 0.  1.
         21   -1    0    0  501  503 -0.00000000000E+00 -0.00000000000E+00 -0.18872844399E+03  0.18872844399E+03  0.00000000000E+00 0.  1.
    9000007    1    1    2  501    0 -0.17036334606E+03  0.38122381843E+02  0.19726099238E+03  0.47894559690E+03  0.40000000000E+03 0.  1.
   -9000007    1    1    2    0  502  0.17036334606E+03 -0.38122381843E+02  0.94654031858E+03  0.10423126020E+04  0.40000000000E+03 0.  1.
<mgrwt>
<rscale>  2 0.43643669E+03</rscale>
<asrwt>0</asrwt>
<pdfrwt beam="1">  1       21 0.20500457E+00 0.43643669E+03</pdfrwt>
<pdfrwt beam="2">  1       21 0.29035146E-01 0.43643669E+03</pdfrwt>
<totfact> 0.11917931E+03</totfact>
</mgrwt>
</event>
<event>
 4    1  0.4821294E-002  0.4813227E+03  0.7818608E-02  0.1018772E+00
         21   -1    0    0  501  502  0.00000000000E+00  0.00000000000E+00  0.12628812804E+04  0.12628812804E+04  0.00000000000E+00 0.  1.
         21   -1    0    0  502  503 -0.00000000000E+00 -0.00000000000E+00 -0.23336545718E+03  0.23336545718E+03  0.00000000000E+00 0.  1.
    9000007    1    1    2  501    0 -0.13534142660E+03  0.23098528027E+03  0.86076618162E+03  0.98619973680E+03  0.40000000000E+03 0.  1.
   -9000007    1    1    2    0  503  0.13534142660E+03 -0.23098528027E+03  0.16874964161E+03  0.51004700078E+03  0.40000000000E+03 0.  1.
<mgrwt>
<rscale>  2 0.48132266E+03</rscale>
<asrwt>0</asrwt>
<pdfrwt beam="1">  1       21 0.19428942E+00 0.48132266E+03</pdfrwt>
<pdfrwt beam="2">  1       21 0.35902379E-01 0.48132266E+03</pdfrwt>
<totfact> 0.89983466E+02</totfact>
</mgrwt>
</event>
<event>
 4    1  0.4821294E-002  0.4218810E+03  0.7818608E-02  0.1036456E+00
         21   -1    0    0  501  502  0.00000000000E+00  0.00000000000E+00  0.16256725058E+04  0.16256725058E+04  0.00000000000E+00 0. -1.
         21   -1    0    0  502  503 -0.00000000000E+00 -0.00000000000E+00 -0.17106046116E+03  0.17106046116E+03  0.00000000000E+00 0. -1.
    9000007    1    1    2  501    0 -0.14603400551E+02  0.13330530933E+03  0.12663069055E+04  0.13347347091E+04  0.40000000000E+03 0. -1.
   -9000007    1    1    2    0  503  0.14603400551E+02 -0.13330530933E+03  0.18830513909E+03  0.46199825780E+03  0.40000000000E+03 0. -1.
<mgrwt>
<rscale>  2 0.42188098E+03</rscale>
<asrwt>0</asrwt>
<pdfrwt beam="1">  1       21 0.25010345E+00 0.42188098E+03</pdfrwt>
<pdfrwt beam="2">  1       21 0.26316995E-01 0.42188098E+03</pdfrwt>
<totfact> 0.75569195E+02</totfact>
</mgrwt>
</event>
<event>
 4    1  0.4821294E-002  0.4786696E+03  0.7818608E-02  0.1019501E+00
         21   -1    0    0  501  502  0.00000000000E+00  0.00000000000E+00  0.32158692475E+03  0.32158692475E+03  0.00000000000E+00 0.  1.
         21   -1    0    0  502  503 -0.00000000000E+00 -0.00000000000E+00 -0.17138570546E+04  0.17138570546E+04  0.00000000000E+00 0. -1.
    9000007    1    1    2  501    0  0.23286760187E+03  0.12205447632E+03  0.81794779755E+02  0.48560786772E+03  0.40000000000E+03 0.  1.
   -9000007    1    1    2    0  503 -0.23286760187E+03 -0.12205447632E+03 -0.14740649096E+04  0.15498361117E+04  0.40000000000E+03 0. -1.
<mgrwt>
<rscale>  2 0.47866963E+03</rscale>
<asrwt>0</asrwt>
<pdfrwt beam="1">  1       21 0.49474911E-01 0.47866963E+03</pdfrwt>
<pdfrwt beam="2">  1       21 0.26367032E+00 0.47866963E+03</pdfrwt>
<totfact> 0.16749675E+02</totfact>
</mgrwt>
</event>
<event>
 4    1  0.4821294E-002  0.5210130E+03  0.7818608E-02  0.1008435E+00
         21   -1    0    0  503  502  0.00000000000E+00  0.00000000000E+00  0.57058081473E+03  0.57058081473E+03  0.00000000000E+00 0.  1.
         21   -1    0    0  501  503 -0.00000000000E+00 -0.00000000000E+00 -0.75912851262E+03  0.75912851262E+03  0.00000000000E+00 0.  1.
    9000007    1    1    2  501    0 -0.28975268028E+03  0.16582513974E+03 -0.50048467305E+03  0.72245380521E+03  0.40000000000E+03 0.  1.
   -9000007    1    1    2    0  502  0.28975268028E+03 -0.16582513974E+03  0.31193697516E+03  0.60725552214E+03  0.40000000000E+03 0.  1.
<mgrwt>
<rscale>  2 0.52101304E+03</rscale>
<asrwt>0</asrwt>
<pdfrwt beam="1">  1       21 0.87781664E-01 0.52101304E+03</pdfrwt>
<pdfrwt beam="2">  1       21 0.11678900E+00 0.52101304E+03</pdfrwt>
<totfact> 0.51078847E+02</totfact>
</mgrwt>
</event>
<event>
 4    1  0.4821294E-002  0.7922669E+03  0.7818608E-02  0.9571278E-01
         21   -1    0    0  501  502  0.00000000000E+00  0.00000000000E+00  0.40075840626E+03  0.40075840626E+03  0.00000000000E+00 0. -1.
         21   -1    0    0  502  503 -0.00000000000E+00 -0.00000000000E+00 -0.16658024488E+04  0.16658024488E+04  0.00000000000E+00 0.  1.
    9000007    1    1    2  501    0  0.48222604104E+03  0.48491732511E+03 -0.88512492842E+03  0.11879111523E+04  0.40000000000E+03 0. -1.
   -9000007    1    1    2    0  503 -0.48222604104E+03 -0.48491732511E+03 -0.37991911409E+03  0.87864970273E+03  0.40000000000E+03 0.  1.
<mgrwt>
<rscale>  2 0.79226685E+03</rscale>
<asrwt>0</asrwt>
<pdfrwt beam="1">  1       21 0.61655139E-01 0.79226685E+03</pdfrwt>
<pdfrwt beam="2">  1       21 0.25627730E+00 0.79226685E+03</pdfrwt>
<totfact> 0.10103812E+02</totfact>
</mgrwt>
</event>
<event>
 4    1  0.4821294E-002  0.4116128E+03  0.7818608E-02  0.1039831E+00
         21   -1    0    0  503  502  0.00000000000E+00  0.00000000000E+00  0.19277592962E+03  0.19277592962E+03  0.00000000000E+00 0. -1.
         21   -1    0    0  501  503 -0.00000000000E+00 -0.00000000000E+00 -0.19111814585E+04  0.19111814585E+04  0.00000000000E+00 0. -1.
    9000007    1    1    2  501    0 -0.90927235273E+02 -0.34019661593E+02 -0.16323482553E+04  0.16834446608E+04  0.40000000000E+03 0. -1.
   -9000007    1    1    2    0  502  0.90927235273E+02  0.34019661593E+02 -0.86057273592E+02  0.42051272731E+03  0.40000000000E+03 0. -1.
<mgrwt>
<rscale>  2 0.41161280E+03</rscale>
<asrwt>0</asrwt>
<pdfrwt beam="1">  1       21 0.29657836E-01 0.41161280E+03</pdfrwt>
<pdfrwt beam="2">  1       21 0.29402791E+00 0.41161280E+03</pdfrwt>
<totfact> 0.32638056E+02</totfact>
</mgrwt>
</event>
<event>
 4    1  0.4821294E-002  0.4143377E+03  0.7818608E-02  0.1038925E+00
         21   -1    0    0  501  502  0.00000000000E+00  0.00000000000E+00  0.21907815754E+04  0.21907815754E+04  0.00000000000E+00 0. -1.
         21   -1    0    0  502  503 -0.00000000000E+00 -0.00000000000E+00 -0.97021303329E+02  0.97021303329E+02  0.00000000000E+00 0. -1.
    9000007    1    1    2  501    0  0.85451961321E+02  0.66133898389E+02  0.15485219304E+04  0.16029959136E+04  0.40000000000E+03 0. -1.
   -9000007    1    1    2    0  503 -0.85451961321E+02 -0.66133898389E+02  0.54523834167E+03  0.68480696509E+03  0.40000000000E+03 0. -1.
<mgrwt>
<rscale>  2 0.41433770E+03</rscale>
<asrwt>0</asrwt>
<pdfrwt beam="1">  1       21 0.33704328E+00 0.41433770E+03</pdfrwt>
<pdfrwt beam="2">  1       21 0.14926356E-01 0.41433770E+03</pdfrwt>
<totfact> 0.66719213E+02</totfact>
</mgrwt>
</event>
<event>
 4    1  0.4821294E-002  0.4824853E+03  0.7818608E-02  0.1018454E+00
         21   -1    0    0  501  502  0.00000000000E+00  0.00000000000E+00  0.96349030675E+03  0.96349030675E+03  0.00000000000E+00 0. -1.
         21   -1    0    0  502  503 -0.00000000000E+00 -0.00000000000E+00 -0.24524395085E+03  0.24524395085E+03  0.00000000000E+00 0.  1.
    9000007    1    1    2  501    0 -0.21814738483E+02 -0.26891663596E+03  0.43265849196E+03  0.64806281376E+03  0.40000000000E+03 0. -1.
   -9000007    1    1    2    0  503  0.21814738483E+02  0.26891663596E+03  0.28558786393E+03  0.56067144384E+03  0.40000000000E+03 0.  1.
<mgrwt>
<rscale>  2 0.48248527E+03</rscale>
<asrwt>0</asrwt>
<pdfrwt beam="1">  1       21 0.14822928E+00 0.48248527E+03</pdfrwt>
<pdfrwt beam="2">  1       21 0.37729839E-01 0.48248527E+03</pdfrwt>
<totfact> 0.17629988E+03</totfact>
</mgrwt>
</event>
<event>
 4    1  0.4821294E-002  0.4956513E+03  0.7818608E-02  0.1014920E+00
         21   -1    0    0  503  502  0.00000000000E+00  0.00000000000E+00  0.10037096524E+04  0.10037096524E+04  0.00000000000E+00 0.  1.
         21   -1    0    0  501  503 -0.00000000000E+00 -0.00000000000E+00 -0.25226320174E+03  0.25226320174E+03  0.00000000000E+00 0.  1.
    9000007    1    1    2  501    0 -0.23014527384E+03  0.18084064419E+03  0.26743459709E+03  0.56319752253E+03  0.40000000000E+03 0.  1.
   -9000007    1    1    2    0  502  0.23014527384E+03 -0.18084064419E+03  0.48401185353E+03  0.69277533156E+03  0.40000000000E+03 0.  1.
<mgrwt>
<rscale>  2 0.49565127E+03</rscale>
<asrwt>0</asrwt>
<pdfrwt beam="1">  1       21 0.15441687E+00 0.49565127E+03</pdfrwt>
<pdfrwt beam="2">  1       21 0.38809724E-01 0.49565127E+03</pdfrwt>
<totfact> 0.14807723E+03</totfact>
</mgrwt>
</event>
<event>
 4    1  0.4821294E-002  0.6633786E+03  0.7818608E-02  0.9781994E-01
         21   -1    0    0  503  502  0.00000000000E+00  0.00000000000E+00  0.32582272361E+03  0.32582272361E+03  0.00000000000E+00 0.  1.
         21   -1    0    0  501  503 -0.00000000000E+00 -0.00000000000E+00 -0.13752970835E+04  0.13752970835E+04  0.00000000000E+00 0.  1.
    9000007    1    1    2  501    0 -0.42397620577E+03  0.31672605286E+03 -0.63861079358E+03  0.92081212052E+03  0.40000000000E+03 0.  1.
   -9000007    1    1    2    0  502  0.42397620577E+03 -0.31672605286E+03 -0.41086356632E+03  0.78030768659E+03  0.40000000000E+03 0.  1.
<mgrwt>
<rscale>  2 0.66337864E+03</rscale>
<asrwt>0</asrwt>
<pdfrwt beam="1">  1       21 0.50126572E-01 0.66337864E+03</pdfrwt>
<pdfrwt beam="2">  1       21 0.21158417E+00 0.66337864E+03</pdfrwt>
<totfact> 0.32050015E+02</totfact>
</mgrwt>
</event>
<event>
 4    1  0.4821294E-002  0.6272195E+03  0.7818608E-02  0.9850490E-01
         21   -1    0    0  501  502  0.00000000000E+00  0.00000000000E+00  0.54306717950E+03  0.54306717950E+03  0.00000000000E+00 0. -1.
         21   -1    0    0  502  503 -0.00000000000E+00 -0.00000000000E+00 -0.12769112619E+04  0.12769112619E+04  0.00000000000E+00 0.  1.
    9000007    1    1    2  501    0 -0.48238828237E+03  0.26567640327E+02  0.23165740955E+03  0.66863252230E+03  0.40000000000E+03 0. -1.
   -9000007    1    1    2    0  503  0.48238828237E+03 -0.26567640327E+02 -0.96550149191E+03  0.11513459191E+04  0.40000000000E+03 0.  1.
<mgrwt>
<rscale>  2 0.62721949E+03</rscale>
<asrwt>0</asrwt>
<pdfrwt beam="1">  1       21 0.83548797E-01 0.62721949E+03</pdfrwt>
<pdfrwt beam="2">  1       21 0.19644788E+00 0.62721949E+03</pdfrwt>
<totfact> 0.13054601E+02</totfact>
</mgrwt>
</event>
<event>
 4    1  0.4821294E-002  0.4365314E+03  0.7818608E-02  0.1031816E+00
         21   -1    0    0  503  502  0.00000000000E+00  0.00000000000E+00  0.17775239094E+03  0.17775239094E+03  0.00000000000E+00 0.  1.
         21   -1    0    0  501  503 -0.00000000000E+00 -0.00000000000E+00 -0.10845067734E+04  0.10845067734E+04  0.00000000000E+00 0.  1.
    9000007    1    1    2  501    0 -0.12421676115E+03  0.12300349476E+03 -0.38574019418E+03  0.58254198208E+03  0.40000000000E+03 0.  1.
   -9000007    1    1    2    0  502  0.12421676115E+03 -0.12300349476E+03 -0.52101418826E+03  0.67971718225E+03  0.40000000000E+03 0.  1.
<mgrwt>
<rscale>  2 0.43653140E+03</rscale>
<asrwt>0</asrwt>
<pdfrwt beam="1">  1       21 0.27346522E-01 0.43653140E+03</pdfrwt>
<pdfrwt beam="2">  1       21 0.16684720E+00 0.43653140E+03</pdfrwt>
<totfact> 0.24660810E+03</totfact>
</mgrwt>
</event>
<event>
 4    1  0.4821294E-002  0.4533580E+03  0.7818608E-02  0.1026725E+00
         21   -1    0    0  503  502  0.00000000000E+00  0.00000000000E+00  0.74879481619E+03  0.74879481619E+03  0.00000000000E+00 0. -1.
         21   -1    0    0  501  503 -0.00000000000E+00 -0.00000000000E+00 -0.27448682019E+03  0.27448682019E+03  0.00000000000E+00 0. -1.
    9000007    1    1    2  501    0  0.21193585840E+03 -0.24832568280E+02  0.23611747695E+03  0.51116037351E+03  0.40000000000E+03 0. -1.
   -9000007    1    1    2    0  502 -0.21193585840E+03  0.24832568280E+02  0.23819051906E+03  0.51212126288E+03  0.40000000000E+03 0. -1.
<mgrwt>
<rscale>  2 0.45335799E+03</rscale>
<asrwt>0</asrwt>
<pdfrwt beam="1">  1       21 0.11519920E+00 0.45335799E+03</pdfrwt>
<pdfrwt beam="2">  1       21 0.42228742E-01 0.45335799E+03</pdfrwt>
<totfact> 0.27259865E+03</totfact>
</mgrwt>
</event>
<event>
 4    1  0.4821294E-002  0.4054710E+03  0.7818608E-02  0.1041902E+00
         21   -1    0    0  503  502  0.00000000000E+00  0.00000000000E+00  0.28587417522E+03  0.28587417522E+03  0.00000000000E+00 0. -1.
         21   -1    0    0  501  503 -0.00000000000E+00 -0.00000000000E+00 -0.59651272244E+03  0.59651272244E+03  0.00000000000E+00 0. -1.
    9000007    1    1    2  501    0 -0.55844294102E+02  0.35890472574E+02 -0.23890620127E+03  0.47061968107E+03  0.40000000000E+03 0. -1.
   -9000007    1    1    2    0  502  0.55844294102E+02 -0.35890472574E+02 -0.71732345947E+02  0.41176721659E+03  0.40000000000E+03 0. -1.
<mgrwt>
<rscale>  2 0.40547097E+03</rscale>
<asrwt>0</asrwt>
<pdfrwt beam="1">  1       21 0.43980643E-01 0.40547097E+03</pdfrwt>
<pdfrwt beam="2">  1       21 0.91771187E-01 0.40547097E+03</pdfrwt>
<totfact> 0.44415066E+03</totfact>
</mgrwt>
</event>
<event>
 4    1  0.4821294E-002  0.4309051E+03  0.7818608E-02  0.1033574E+00
         21   -1    0    0  501  502  0.00000000000E+00  0.00000000000E+00  0.86371518963E+03  0.86371518963E+03  0.00000000000E+00 0.  1.
         21   -1    0    0  502  503 -0.00000000000E+00 -0.00000000000E+00 -0.34752226495E+03  0.34752226495E+03  0.00000000000E+00 0.  1.
    9000007    1    1    2  501    0 -0.14738134773E+02  0.15956824626E+03  0.63211183068E+03  0.76501281317E+03  0.40000000000E+03 0.  1.
   -9000007    1    1    2    0  503  0.14738134773E+02 -0.15956824626E+03 -0.11591890600E+03  0.44622464141E+03  0.40000000000E+03 0.  1.
<mgrwt>
<rscale>  2 0.43090514E+03</rscale>
<asrwt>0</asrwt>
<pdfrwt beam="1">  1       21 0.13287926E+00 0.43090514E+03</pdfrwt>
<pdfrwt beam="2">  1       21 0.53464964E-01 0.43090514E+03</pdfrwt>
<totfact> 0.11598178E+03</totfact>
</mgrwt>
</event>
<event>
 4    1  0.4821294E-002  0.4288427E+03  0.7818608E-02  0.1034226E+00
         21   -1    0    0  501  502  0.00000000000E+00  0.00000000000E+00  0.11102886331E+04  0.11102886331E+04  0.00000000000E+00 0.  1.
         21   -1    0    0  502  503 -0.00000000000E+00 -0.00000000000E+00 -0.16955956038E+03  0.16955956038E+03  0.00000000000E+00 0.  1.
    9000007    1    1    2  501    0 -0.15398182763E+03 -0.13986663716E+02  0.37304619204E+03  0.56839202264E+03  0.40000000000E+03 0.  1.
   -9000007    1    1    2    0  503  0.15398182763E+03  0.13986663716E+02  0.56768288063E+03  0.71145617080E+03  0.40000000000E+03 0.  1.
<mgrwt>
<rscale>  2 0.42884266E+03</rscale>
<asrwt>0</asrwt>
<pdfrwt beam="1">  1       21 0.17081363E+00 0.42884266E+03</pdfrwt>
<pdfrwt beam="2">  1       21 0.26086087E-01 0.42884266E+03</pdfrwt>
<totfact> 0.25384973E+03</totfact>
</mgrwt>
</event>
<event>
 4    1  0.4821294E-002  0.4080180E+03  0.7818608E-02  0.1041038E+00
         21   -1    0    0  501  502  0.00000000000E+00  0.00000000000E+00  0.16230955706E+03  0.16230955706E+03  0.00000000000E+00 0. -1.
         21   -1    0    0  502  503 -0.00000000000E+00 -0.00000000000E+00 -0.10652410036E+04  0.10652410036E+04  0.00000000000E+00 0. -1.
    9000007    1    1    2  501    0  0.56941053949E+02 -0.56889351098E+02 -0.33319295428E+03  0.52677910615E+03  0.40000000000E+03 0. -1.
   -9000007    1    1    2    0  503 -0.56941053949E+02  0.56889351098E+02 -0.56973849227E+03  0.70077145452E+03  0.40000000000E+03 0. -1.
<mgrwt>
<rscale>  2 0.40801799E+03</rscale>
<asrwt>0</asrwt>
<pdfrwt beam="1">  1       21 0.24970701E-01 0.40801799E+03</pdfrwt>
<pdfrwt beam="2">  1       21 0.16388323E+00 0.40801799E+03</pdfrwt>
<totfact> 0.31339041E+03</totfact>
</mgrwt>
</event>
<event>
 4    1  0.4821294E-002  0.4491388E+03  0.7818608E-02  0.1027979E+00
         21   -1    0    0  503  502  0.00000000000E+00  0.00000000000E+00  0.18657437268E+04  0.18657437268E+04  0.00000000000E+00 0. -1.
         21   -1    0    0  501  503 -0.00000000000E+00 -0.00000000000E+00 -0.19996604538E+03  0.19996604538E+03  0.00000000000E+00 0. -1.
    9000007    1    1    2  501    0 -0.17802138346E+03  0.10017008151E+03  0.13290248092E+03  0.46838950419E+03  0.40000000000E+03 0. -1.
   -9000007    1    1    2    0  502  0.17802138346E+03 -0.10017008151E+03  0.15328752005E+04  0.15973202679E+04  0.40000000000E+03 0. -1.
<mgrwt>
<rscale>  2 0.44913880E+03</rscale>
<asrwt>0</asrwt>
<pdfrwt beam="1">  1       21 0.28703748E+00 0.44913880E+03</pdfrwt>
<pdfrwt beam="2">  1       21 0.30764008E-01 0.44913880E+03</pdfrwt>
<totfact> 0.32676931E+02</totfact>
</mgrwt>
</event>
<event>
 4    1  0.4821294E-002  0.4209858E+03  0.7818608E-02  0.1036746E+00
         21   -1    0    0  503  502  0.00000000000E+00  0.00000000000E+00  0.66851530399E+02  0.66851530399E+02  0.00000000000E+00 0. -1.
         21   -1    0    0  501  503 -0.00000000000E+00 -0.00000000000E+00 -0.26597169672E+04  0.26597169672E+04  0.00000000000E+00 0. -1.
    9000007    1    1    2  501    0 -0.80372121619E+02 -0.10377554864E+03 -0.13741005705E+04  0.14371434933E+04  0.40000000000E+03 0.  1.
   -9000007    1    1    2    0  502  0.80372121619E+02  0.10377554864E+03 -0.12187648663E+04  0.12894250043E+04  0.40000000000E+03 0.  1.
<mgrwt>
<rscale>  2 0.42098580E+03</rscale>
<asrwt>0</asrwt>
<pdfrwt beam="1">  1       21 0.10284851E-01 0.42098580E+03</pdfrwt>
<pdfrwt beam="2">  1       21 0.40918724E+00 0.42098580E+03</pdfrwt>
<totfact> 0.46452941E+02</totfact>
</mgrwt>
</event>
<event>
 4    1  0.4821294E-002  0.4615966E+03  0.7818608E-02  0.1024319E+00
         21   -1    0    0  501  502  0.00000000000E+00  0.00000000000E+00  0.39743592594E+03  0.39743592594E+03  0.00000000000E+00 0. -1.
         21   -1    0    0  502  503 -0.00000000000E+00 -0.00000000000E+00 -0.77969891935E+03  0.77969891935E+03  0.00000000000E+00 0. -1.
    9000007    1    1    2  501    0  0.22624925127E+03  0.43389642224E+02  0.13783904407E+03  0.48173746670E+03  0.40000000000E+03 0. -1.
   -9000007    1    1    2    0  503 -0.22624925127E+03 -0.43389642224E+02 -0.52010203749E+03  0.69539737859E+03  0.40000000000E+03 0. -1.
<mgrwt>
<rscale>  2 0.46159656E+03</rscale>
<asrwt>0</asrwt>
<pdfrwt beam="1">  1       21 0.61143990E-01 0.46159656E+03</pdfrwt>
<pdfrwt beam="2">  1       21 0.11995368E+00 0.46159656E+03</pdfrwt>
<totfact> 0.11135195E+03</totfact>
</mgrwt>
</event>
<event>
 4    1  0.4821294E-002  0.4023102E+03  0.7818608E-02  0.1042983E+00
         21   -1    0    0  501  502  0.00000000000E+00  0.00000000000E+00  0.52231750295E+03  0.52231750295E+03  0.00000000000E+00 0.  1.
         21   -1    0    0  502  503 -0.00000000000E+00 -0.00000000000E+00 -0.38103767899E+03  0.38103767899E+03  0.00000000000E+00 0.  1.
    9000007    1    1    2  501    0  0.27223062438E+02 -0.33352860808E+02  0.26583485090E+03  0.48220501491E+03  0.40000000000E+03 0.  1.
   -9000007    1    1    2    0  503 -0.27223062438E+02  0.33352860808E+02 -0.12455502693E+03  0.42115016703E+03  0.40000000000E+03 0.  1.
<mgrwt>
<rscale>  2 0.40231021E+03</rscale>
<asrwt>0</asrwt>
<pdfrwt beam="1">  1       21 0.80356539E-01 0.40231021E+03</pdfrwt>
<pdfrwt beam="2">  1       21 0.58621181E-01 0.40231021E+03</pdfrwt>
<totfact> 0.32915906E+03</totfact>
</mgrwt>
</event>
<event>
 4    1  0.4821294E-002  0.5351612E+03  0.7818608E-02  0.1004988E+00
         21   -1    0    0  501  502  0.00000000000E+00  0.00000000000E+00  0.45249672933E+03  0.45249672933E+03  0.00000000000E+00 0. -1.
         21   -1    0    0  502  503 -0.00000000000E+00 -0.00000000000E+00 -0.74285496756E+03  0.74285496756E+03  0.00000000000E+00 0. -1.
    9000007    1    1    2  501    0  0.35266025694E+03  0.45035844717E+02  0.84735936575E+02  0.54182807520E+03  0.40000000000E+03 0. -1.
   -9000007    1    1    2    0  503 -0.35266025694E+03 -0.45035844717E+02 -0.37509417480E+03  0.65352362168E+03  0.40000000000E+03 0. -1.
<mgrwt>
<rscale>  2 0.53516118E+03</rscale>
<asrwt>0</asrwt>
<pdfrwt beam="1">  1       21 0.69614882E-01 0.53516118E+03</pdfrwt>
<pdfrwt beam="2">  1       21 0.11428538E+00 0.53516118E+03</pdfrwt>
<totfact> 0.91670880E+02</totfact>
</mgrwt>
</event>
<event>
 4    1  0.4821294E-002  0.4189160E+03  0.7818608E-02  0.1037420E+00
         21   -1    0    0  503  502  0.00000000000E+00  0.00000000000E+00  0.38698915072E+03  0.38698915072E+03  0.00000000000E+00 0. -1.
         21   -1    0    0  501  503 -0.00000000000E+00 -0.00000000000E+00 -0.68859338772E+03  0.68859338772E+03  0.00000000000E+00 0. -1.
    9000007    1    1    2  501    0 -0.23387440690E+01  0.12443929134E+03 -0.46505114857E+03  0.62590987989E+03  0.40000000000E+03 0. -1.
   -9000007    1    1    2    0  502  0.23387440690E+01 -0.12443929134E+03  0.16344691156E+03  0.44967265856E+03  0.40000000000E+03 0. -1.
<mgrwt>
<rscale>  2 0.41891599E+03</rscale>
<asrwt>0</asrwt>
<pdfrwt beam="1">  1       21 0.59536793E-01 0.41891599E+03</pdfrwt>
<pdfrwt beam="2">  1       21 0.10593744E+00 0.41891599E+03</pdfrwt>
<totfact> 0.16376237E+03</totfact>
</mgrwt>
</event>
<event>
 4    1  0.4821294E-002  0.4240292E+03  0.7818608E-02  0.1035763E+00
         21   -1    0    0  501  502  0.00000000000E+00  0.00000000000E+00  0.17388301080E+04  0.17388301080E+04  0.00000000000E+00 0. -1.
         21   -1    0    0  502  503 -0.00000000000E+00 -0.00000000000E+00 -0.13601274051E+03  0.13601274051E+03  0.00000000000E+00 0.  1.
    9000007    1    1    2  501    0  0.14046519719E+03  0.83817466119E+01  0.12604131688E+04  0.13298278390E+04  0.40000000000E+03 0. -1.
   -9000007    1    1    2    0  503 -0.14046519719E+03 -0.83817466119E+01  0.34240419865E+03  0.54501500948E+03  0.40000000000E+03 0.  1.
<mgrwt>
<rscale>  2 0.42402916E+03</rscale>
<asrwt>0</asrwt>
<pdfrwt beam="1">  1       21 0.26751231E+00 0.42402916E+03</pdfrwt>
<pdfrwt beam="2">  1       21 0.20925038E-01 0.42402916E+03</pdfrwt>
<totfact> 0.92101799E+02</totfact>
</mgrwt>
</event>
<event>
 4    1  0.4821294E-002  0.4388615E+03  0.7818608E-02  0.1031097E+00
         21   -1    0    0  503  502  0.00000000000E+00  0.00000000000E+00  0.40528305719E+03  0.40528305719E+03  0.00000000000E+00 0. -1.
         21   -1    0    0  501  503 -0.00000000000E+00 -0.00000000000E+00 -0.47632699190E+03  0.47632699190E+03  0.00000000000E+00 0. -1.
    9000007    1    1    2  501    0 -0.15614614607E+03  0.90652154587E+02 -0.14290986164E+02  0.43909414064E+03  0.40000000000E+03 0. -1.
   -9000007    1    1    2    0  502  0.15614614607E+03 -0.90652154587E+02 -0.56752948544E+02  0.44251590845E+03  0.40000000000E+03 0. -1.
<mgrwt>
<rscale>  2 0.43886152E+03</rscale>
<asrwt>0</asrwt>
<pdfrwt beam="1">  1       21 0.62351240E-01 0.43886152E+03</pdfrwt>
<pdfrwt beam="2">  1       21 0.73281075E-01 0.43886152E+03</pdfrwt>
<totfact> 0.35023143E+03</totfact>
</mgrwt>
</event>
<event>
 4    1  0.4821294E-002  0.4419421E+03  0.7818608E-02  0.1030153E+00
         21   -1    0    0  503  502  0.00000000000E+00  0.00000000000E+00  0.45539574770E+03  0.45539574770E+03  0.00000000000E+00 0.  1.
         21   -1    0    0  501  503 -0.00000000000E+00 -0.00000000000E+00 -0.98728693276E+03  0.98728693276E+03  0.00000000000E+00 0.  1.
    9000007    1    1    2  501    0 -0.16509935604E+03 -0.89749653739E+02 -0.80843623234E+03  0.92134789275E+03  0.40000000000E+03 0.  1.
   -9000007    1    1    2    0  502  0.16509935604E+03  0.89749653739E+02  0.27654504728E+03  0.52133478772E+03  0.40000000000E+03 0.  1.
<mgrwt>
<rscale>  2 0.44194208E+03</rscale>
<asrwt>0</asrwt>
<pdfrwt beam="1">  1       21 0.70060885E-01 0.44194208E+03</pdfrwt>
<pdfrwt beam="2">  1       21 0.15189030E+00 0.44194208E+03</pdfrwt>
<totfact> 0.44592306E+02</totfact>
</mgrwt>
</event>
<event>
 4    1  0.4821294E-002  0.4891717E+03  0.7818608E-02  0.1016645E+00
         21   -1    0    0  503  502  0.00000000000E+00  0.00000000000E+00  0.23480194174E+03  0.23480194174E+03  0.00000000000E+00 0. -1.
         21   -1    0    0  501  503 -0.00000000000E+00 -0.00000000000E+00 -0.10334468464E+04  0.10334468464E+04  0.00000000000E+00 0. -1.
    9000007    1    1    2  501    0 -0.15652696364E+03 -0.23406894223E+03 -0.47401206750E+03  0.68115813156E+03  0.40000000000E+03 0. -1.
   -9000007    1    1    2    0  502  0.15652696364E+03  0.23406894223E+03 -0.32463283713E+03  0.58709065655E+03  0.40000000000E+03 0. -1.
<mgrwt>
<rscale>  2 0.48917171E+03</rscale>
<asrwt>0</asrwt>
<pdfrwt beam="1">  1       21 0.36123376E-01 0.48917171E+03</pdfrwt>
<pdfrwt beam="2">  1       21 0.15899182E+00 0.48917171E+03</pdfrwt>
<totfact> 0.15852130E+03</totfact>
</mgrwt>
</event>
<event>
 4    1  0.4821294E-002  0.4116839E+03  0.7818608E-02  0.1039807E+00
         21   -1    0    0  503  502  0.00000000000E+00  0.00000000000E+00  0.51773083014E+03  0.51773083014E+03  0.00000000000E+00 0.  1.
         21   -1    0    0  501  503 -0.00000000000E+00 -0.00000000000E+00 -0.47106556164E+03  0.47106556164E+03  0.00000000000E+00 0.  1.
    9000007    1    1    2  501    0 -0.42443477071E+02 -0.87647865150E+02 -0.24973814396E+03  0.48151089039E+03  0.40000000000E+03 0.  1.
   -9000007    1    1    2    0  502  0.42443477071E+02  0.87647865150E+02  0.29640341246E+03  0.50728550140E+03  0.40000000000E+03 0.  1.
<mgrwt>
<rscale>  2 0.41168386E+03</rscale>
<asrwt>0</asrwt>
<pdfrwt beam="1">  1       21 0.79650898E-01 0.41168386E+03</pdfrwt>
<pdfrwt beam="2">  1       21 0.72471624E-01 0.41168386E+03</pdfrwt>
<totfact> 0.20903050E+03</totfact>
</mgrwt>
</event>
<event>
 4    1  0.4821294E-002  0.5104998E+03  0.7818608E-02  0.1011074E+00
         21   -1    0    0  501  502  0.00000000000E+00  0.00000000000E+00  0.17443828895E+04  0.17443828895E+04  0.00000000000E+00 0.  1.
         21   -1    0    0  502  503 -0.00000000000E+00 -0.00000000000E+00 -0.15222059871E+03  0.15222059871E+03  0.00000000000E+00 0. -1.
    9000007    1    1    2  501    0 -0.14587512946E+03 -0.28165673405E+03  0.92517717946E+03  0.10566753913E+04  0.40000000000E+03 0.  1.
   -9000007    1    1    2    0  503  0.14587512946E+03  0.28165673405E+03  0.66698511136E+03  0.83992809693E+03  0.40000000000E+03 0. -1.
<mgrwt>
<rscale>  2 0.51049982E+03</rscale>
<asrwt>0</asrwt>
<pdfrwt beam="1">  1       21 0.26836658E+00 0.51049982E+03</pdfrwt>
<pdfrwt beam="2">  1       21 0.23418555E-01 0.51049982E+03</pdfrwt>
<totfact> 0.70167237E+02</totfact>
</mgrwt>
</event>
<event>
 4    1  0.4821294E-002  0.4274113E+03  0.7818608E-02  0.1034681E+00
         21   -1    0    0  503  502  0.00000000000E+00  0.00000000000E+00  0.27540622500E+03  0.27540622500E+03  0.00000000000E+00 0.  1.
         21   -1    0    0  501  503 -0.00000000000E+00 -0.00000000000E+00 -0.82746430305E+03  0.82746430305E+03  0.00000000000E+00 0.  1.
    9000007    1    1    2  501    0 -0.15992814992E+02  0.14974855176E+03 -0.52163714483E+03  0.67437801696E+03  0.40000000000E+03 0.  1.
   -9000007    1    1    2    0  502  0.15992814992E+02 -0.14974855176E+03 -0.30420933227E+02  0.42849251109E+03  0.40000000000E+03 0.  1.
<mgrwt>
<rscale>  2 0.42741128E+03</rscale>
<asrwt>0</asrwt>
<pdfrwt beam="1">  1       21 0.42370188E-01 0.42741128E+03</pdfrwt>
<pdfrwt beam="2">  1       21 0.12730220E+00 0.42741128E+03</pdfrwt>
<totfact> 0.21203369E+03</totfact>
</mgrwt>
</event>
<event>
 4    1  0.4821294E-002  0.6441831E+03  0.7818608E-02  0.9817756E-01
         21   -1    0    0  501  502  0.00000000000E+00  0.00000000000E+00  0.63645286066E+03  0.63645286066E+03  0.00000000000E+00 0.  1.
         21   -1    0    0  502  503 -0.00000000000E+00 -0.00000000000E+00 -0.69564129644E+03  0.69564129644E+03  0.00000000000E+00 0. -1.
    9000007    1    1    2  501    0 -0.50493606018E+03 -0.33885861553E+01 -0.19640525249E+03  0.67345893015E+03  0.40000000000E+03 0. -1.
   -9000007    1    1    2    0  503  0.50493606018E+03  0.33885861553E+01  0.13721681671E+03  0.65863522695E+03  0.40000000000E+03 0.  1.
<mgrwt>
<rscale>  2 0.64418313E+03</rscale>
<asrwt>0</asrwt>
<pdfrwt beam="1">  1       21 0.97915824E-01 0.64418313E+03</pdfrwt>
<pdfrwt beam="2">  1       21 0.10702174E+00 0.64418313E+03</pdfrwt>
<totfact> 0.46888582E+02</totfact>
</mgrwt>
</event>
<event>
 4    1  0.4821294E-002  0.5156173E+03  0.7818608E-02  0.1009781E+00
         21   -1    0    0  503  502  0.00000000000E+00  0.00000000000E+00  0.45640946434E+03  0.45640946434E+03  0.00000000000E+00 0.  1.
         21   -1    0    0  501  503 -0.00000000000E+00 -0.00000000000E+00 -0.65158934246E+03  0.65158934246E+03  0.00000000000E+00 0.  1.
    9000007    1    1    2  501    0  0.17450413155E+03  0.27460797002E+03 -0.27797855877E+03  0.58577581741E+03  0.40000000000E+03 0.  1.
   -9000007    1    1    2    0  502 -0.17450413155E+03 -0.27460797002E+03  0.82798680653E+02  0.52222298939E+03  0.40000000000E+03 0.  1.
<mgrwt>
<rscale>  2 0.51561733E+03</rscale>
<asrwt>0</asrwt>
<pdfrwt beam="1">  1       21 0.70216841E-01 0.51561733E+03</pdfrwt>
<pdfrwt beam="2">  1       21 0.10024451E+00 0.51561733E+03</pdfrwt>
<totfact> 0.12527703E+03</totfact>
</mgrwt>
</event>
<event>
 4    1  0.4821294E-002  0.5228679E+03  0.7818608E-02  0.1007977E+00
         21   -1    0    0  503  502  0.00000000000E+00  0.00000000000E+00  0.88148744181E+03  0.88148744181E+03  0.00000000000E+00 0. -1.
         21   -1    0    0  501  503 -0.00000000000E+00 -0.00000000000E+00 -0.37422883864E+03  0.37422883864E+03  0.00000000000E+00 0.  1.
    9000007    1    1    2  501    0 -0.33647215770E+03 -0.13315619938E+02  0.51344170118E+03  0.73281184430E+03  0.40000000000E+03 0. -1.
   -9000007    1    1    2    0  502  0.33647215770E+03  0.13315619938E+02 -0.61830980060E+01  0.52290443615E+03  0.40000000000E+03 0.  1.
<mgrwt>
<rscale>  2 0.52286788E+03</rscale>
<asrwt>0</asrwt>
<pdfrwt beam="1">  1       21 0.13561345E+00 0.52286788E+03</pdfrwt>
<pdfrwt beam="2">  1       21 0.57573668E-01 0.52286788E+03</pdfrwt>
<totfact> 0.90318518E+02</totfact>
</mgrwt>
</event>
<event>
 4    1  0.4821294E-002  0.4398151E+03  0.7818608E-02  0.1030804E+00
         21   -1    0    0  501  502  0.00000000000E+00  0.00000000000E+00  0.69530521251E+03  0.69530521251E+03  0.00000000000E+00 0.  1.
         21   -1    0    0  502  503 -0.00000000000E+00 -0.00000000000E+00 -0.27896380952E+03  0.27896380952E+03  0.00000000000E+00 0.  1.
    9000007    1    1    2  501    0 -0.18282646638E+03 -0.34296795953E+01  0.18276182616E+03  0.47627635319E+03  0.40000000000E+03 0.  1.
   -9000007    1    1    2    0  503  0.18282646638E+03  0.34296795953E+01  0.23357957683E+03  0.49799266884E+03  0.40000000000E+03 0.  1.
<mgrwt>
<rscale>  2 0.43981505E+03</rscale>
<asrwt>0</asrwt>
<pdfrwt beam="1">  1       21 0.10697003E+00 0.43981505E+03</pdfrwt>
<pdfrwt beam="2">  1       21 0.42917509E-01 0.43981505E+03</pdfrwt>
<totfact> 0.31845513E+03</totfact>
</mgrwt>
</event>
<event>
 4    1  0.4821294E-002  0.4169302E+03  0.7818608E-02  0.1038070E+00
         21   -1    0    0  501  502  0.00000000000E+00  0.00000000000E+00  0.11291910350E+04  0.11291910350E+04  0.00000000000E+00 0.  1.
         21   -1    0    0  502  503 -0.00000000000E+00 -0.00000000000E+00 -0.16093006239E+03  0.16093006239E+03  0.00000000000E+00 0. -1.
    9000007    1    1    2  501    0  0.54432322754E+02  0.10424934506E+03  0.61854189499E+03  0.74593892482E+03  0.40000000000E+03 0.  1.
   -9000007    1    1    2    0  503 -0.54432322754E+02 -0.10424934506E+03  0.34971907767E+03  0.54418217261E+03  0.40000000000E+03 0.  1.
<mgrwt>
<rscale>  2 0.41693021E+03</rscale>
<asrwt>0</asrwt>
<pdfrwt beam="1">  1       21 0.17372169E+00 0.41693021E+03</pdfrwt>
<pdfrwt beam="2">  1       21 0.24758472E-01 0.41693021E+03</pdfrwt>
<totfact> 0.26913782E+03</totfact>
</mgrwt>
</event>
<event>
 4    1  0.4821294E-002  0.5547553E+03  0.7818608E-02  0.1000399E+00
         21   -1    0    0  501  502  0.00000000000E+00  0.00000000000E+00  0.16425342041E+03  0.16425342041E+03  0.00000000000E+00 0.  1.
         21   -1    0    0  502  503 -0.00000000000E+00 -0.00000000000E+00 -0.23268404097E+04  0.23268404097E+04  0.00000000000E+00 0. -1.
    9000007    1    1    2  501    0  0.22077821267E+03  0.31465928035E+03 -0.53160459127E+03  0.76834687698E+03  0.40000000000E+03 0.  1.
   -9000007    1    1    2    0  503 -0.22077821267E+03 -0.31465928035E+03 -0.16309823980E+04  0.17227469531E+04  0.40000000000E+03 0. -1.
<mgrwt>
<rscale>  2 0.55475534E+03</rscale>
<asrwt>0</asrwt>
<pdfrwt beam="1">  1       21 0.25269759E-01 0.55475534E+03</pdfrwt>
<pdfrwt beam="2">  1       21 0.35797542E+00 0.55475534E+03</pdfrwt>
<totfact> 0.16821825E+02</totfact>
</mgrwt>
</event>
<event>
 4    1  0.4821294E-002  0.4238022E+03  0.7818608E-02  0.1035836E+00
         21   -1    0    0  501  502  0.00000000000E+00  0.00000000000E+00  0.15474146369E+03  0.15474146369E+03  0.00000000000E+00 0.  1.
         21   -1    0    0  502  503 -0.00000000000E+00 -0.00000000000E+00 -0.11892839849E+04  0.11892839849E+04  0.00000000000E+00 0.  1.
    9000007    1    1    2  501    0  0.85371502177E+02  0.11099553154E+03 -0.41308708301E+03  0.59181858670E+03  0.40000000000E+03 0.  1.
   -9000007    1    1    2    0  503 -0.85371502177E+02 -0.11099553154E+03 -0.62145543818E+03  0.75220686188E+03  0.40000000000E+03 0.  1.
<mgrwt>
<rscale>  2 0.42380220E+03</rscale>
<asrwt>0</asrwt>
<pdfrwt beam="1">  1       21 0.23806379E-01 0.42380220E+03</pdfrwt>
<pdfrwt beam="2">  1       21 0.18296676E+00 0.42380220E+03</pdfrwt>
<totfact> 0.24906212E+03</totfact>
</mgrwt>
</event>
<event>
 4    1  0.4821294E-002  0.4651570E+03  0.7818608E-02  0.1023296E+00
         21   -1    0    0  503  502  0.00000000000E+00  0.00000000000E+00  0.19491575293E+03  0.19491575293E+03  0.00000000000E+00 0. -1.
         21   -1    0    0  501  503 -0.00000000000E+00 -0.00000000000E+00 -0.12234163417E+04  0.12234163417E+04  0.00000000000E+00 0. -1.
    9000007    1    1    2  501    0  0.12016860503E+03  0.20476939714E+03 -0.29839833220E+03  0.55264144280E+03  0.40000000000E+03 0. -1.
   -9000007    1    1    2    0  502 -0.12016860503E+03 -0.20476939714E+03 -0.73010225659E+03  0.86569065186E+03  0.40000000000E+03 0. -1.
<mgrwt>
<rscale>  2 0.46515696E+03</rscale>
<asrwt>0</asrwt>
<pdfrwt beam="1">  1       21 0.29987039E-01 0.46515696E+03</pdfrwt>
<pdfrwt beam="2">  1       21 0.18821790E+00 0.46515696E+03</pdfrwt>
<totfact> 0.14316396E+03</totfact>
</mgrwt>
</event>
<event>
 4    1  0.4821294E-002  0.4451462E+03  0.7818608E-02  0.1029179E+00
         21   -1    0    0  501  502  0.00000000000E+00  0.00000000000E+00  0.22222881866E+03  0.22222881866E+03  0.00000000000E+00 0.  1.
         21   -1    0    0  502  503 -0.00000000000E+00 -0.00000000000E+00 -0.10744693169E+04  0.10744693169E+04  0.00000000000E+00 0. -1.
    9000007    1    1    2  501    0  0.57318611159E+02 -0.18673428985E+03 -0.15869814068E+03  0.47258884672E+03  0.40000000000E+03 0.  1.
   -9000007    1    1    2    0  503 -0.57318611159E+02  0.18673428985E+03 -0.69354235753E+03  0.82410928880E+03  0.40000000000E+03 0. -1.
<mgrwt>
<rscale>  2 0.44514618E+03</rscale>
<asrwt>0</asrwt>
<pdfrwt beam="1">  1       21 0.34189049E-01 0.44514618E+03</pdfrwt>
<pdfrwt beam="2">  1       21 0.16530297E+00 0.44514618E+03</pdfrwt>
<totfact> 0.16172678E+03</totfact>
</mgrwt>
</event>
<event>
 4    1  0.4821294E-002  0.5035223E+03  0.7818608E-02  0.1012864E+00
         21   -1    0    0  503  502  0.00000000000E+00  0.00000000000E+00  0.14828272023E+03  0.14828272023E+03  0.00000000000E+00 0. -1.
         21   -1    0    0  501  503 -0.00000000000E+00 -0.00000000000E+00 -0.17454493286E+04  0.17454493286E+04  0.00000000000E+00 0. -1.
    9000007    1    1    2  501    0 -0.25114883787E+03  0.17452503134E+03 -0.66327564830E+03  0.83274804770E+03  0.40000000000E+03 0. -1.
   -9000007    1    1    2    0  502  0.25114883787E+03 -0.17452503134E+03 -0.93389096009E+03  0.10609840011E+04  0.40000000000E+03 0. -1.
<mgrwt>
<rscale>  2 0.50352232E+03</rscale>
<asrwt>0</asrwt>
<pdfrwt beam="1">  1       21 0.22812728E-01 0.50352232E+03</pdfrwt>
<pdfrwt beam="2">  1       21 0.26853065E+00 0.50352232E+03</pdfrwt>
<totfact> 0.73881929E+02</totfact>
</mgrwt>
</event>
<event>
 4    1  0.4821294E-002  0.4835721E+03  0.7818608E-02  0.1018158E+00
         21   -1    0    0  501  502  0.00000000000E+00  0.00000000000E+00  0.67745859306E+03  0.67745859306E+03  0.00000000000E+00 0.  1.
         21   -1    0    0  502  503 -0.00000000000E+00 -0.00000000000E+00 -0.74076820763E+03  0.74076820763E+03  0.00000000000E+00 0. -1.
    9000007    1    1    2  501    0  0.17613699287E+03 -0.20692446223E+03  0.48654682085E+03  0.68598089055E+03  0.40000000000E+03 0.  1.
   -9000007    1    1    2    0  503 -0.17613699287E+03  0.20692446223E+03 -0.54985643542E+03  0.73224591013E+03  0.40000000000E+03 0. -1.
<mgrwt>
<rscale>  2 0.48357210E+03</rscale>
<asrwt>0</asrwt>
<pdfrwt beam="1">  1       21 0.10422440E+00 0.48357210E+03</pdfrwt>
<pdfrwt beam="2">  1       21 0.11396434E+00 0.48357210E+03</pdfrwt>
<totfact> 0.36460382E+02</totfact>
</mgrwt>
</event>
<event>
 4    1  0.4821294E-002  0.4440375E+03  0.7818608E-02  0.1029515E+00
         21   -1    0    0  501  502  0.00000000000E+00  0.00000000000E+00  0.35434753434E+03  0.35434753434E+03  0.00000000000E+00 0.  1.
         21   -1    0    0  502  503 -0.00000000000E+00 -0.00000000000E+00 -0.55656831541E+03  0.55656831541E+03  0.00000000000E+00 0.  1.
    9000007    1    1    2  501    0  0.67692234082E+02  0.18051880065E+03 -0.93906802369E+02  0.45385874837E+03  0.40000000000E+03 0.  1.
   -9000007    1    1    2    0  503 -0.67692234082E+02 -0.18051880065E+03 -0.10831397871E+03  0.45705710138E+03  0.40000000000E+03 0.  1.
<mgrwt>
<rscale>  2 0.44403747E+03</rscale>
<asrwt>0</asrwt>
<pdfrwt beam="1">  1       21 0.54515005E-01 0.44403747E+03</pdfrwt>
<pdfrwt beam="2">  1       21 0.85625895E-01 0.44403747E+03</pdfrwt>
<totfact> 0.32722540E+03</totfact>
</mgrwt>
</event>
<event>
 4    1  0.4821294E-002  0.5456856E+03  0.7818608E-02  0.1002498E+00
         21   -1    0    0  503  502  0.00000000000E+00  0.00000000000E+00  0.14413253237E+04  0.14413253237E+04  0.00000000000E+00 0.  1.
         21   -1    0    0  501  503 -0.00000000000E+00 -0.00000000000E+00 -0.22787320146E+03  0.22787320146E+03  0.00000000000E+00 0.  1.
    9000007    1    1    2  501    0 -0.29535833734E+03 -0.22480254579E+03  0.35170046643E+03  0.64920408973E+03  0.40000000000E+03 0.  1.
   -9000007    1    1    2    0  502  0.29535833734E+03  0.22480254579E+03  0.86175165579E+03  0.10199944354E+04  0.40000000000E+03 0.  1.
<mgrwt>
<rscale>  2 0.54568556E+03</rscale>
<asrwt>0</asrwt>
<pdfrwt beam="1">  1       21 0.22174235E+00 0.54568556E+03</pdfrwt>
<pdfrwt beam="2">  1       21 0.35057416E-01 0.54568556E+03</pdfrwt>
<totfact> 0.60621871E+02</totfact>
</mgrwt>
</event>
<event>
 4    1  0.4821294E-002  0.4819534E+03  0.7818608E-02  0.1018600E+00
         21   -1    0    0  501  502  0.00000000000E+00  0.00000000000E+00  0.26997186279E+03  0.26997186279E+03  0.00000000000E+00 0.  1.
         21   -1    0    0  502  503 -0.00000000000E+00 -0.00000000000E+00 -0.10360722869E+04  0.10360722869E+04  0.00000000000E+00 0.  1.
    9000007    1    1    2  501    0 -0.18847573555E+03 -0.19171839924E+03 -0.65195973217E+03  0.81075923669E+03  0.40000000000E+03 0.  1.
   -9000007    1    1    2    0  503  0.18847573555E+03  0.19171839924E+03 -0.11414069194E+03  0.49528491301E+03  0.40000000000E+03 0.  1.
<mgrwt>
<rscale>  2 0.48195337E+03</rscale>
<asrwt>0</asrwt>
<pdfrwt beam="1">  1       21 0.41534133E-01 0.48195337E+03</pdfrwt>
<pdfrwt beam="2">  1       21 0.15939573E+00 0.48195337E+03</pdfrwt>
<totfact> 0.11849953E+03</totfact>
</mgrwt>
</event>
<event>
 4    1  0.4821294E-002  0.4350832E+03  0.7818608E-02  0.1032266E+00
         21   -1    0    0  503  502  0.00000000000E+00  0.00000000000E+00  0.69611576456E+03  0.69611576456E+03  0.00000000000E+00 0. -1.
         21   -1    0    0  501  503 -0.00000000000E+00 -0.00000000000E+00 -0.31367722880E+03  0.31367722880E+03  0.00000000000E+00 0. -1.
    9000007    1    1    2  501    0 -0.90632033474E+02 -0.14520071418E+03  0.70340117590E+01  0.43514008114E+03  0.40000000000E+03 0. -1.
   -9000007    1    1    2    0  502  0.90632033474E+02  0.14520071418E+03  0.37540452399E+03  0.57465291222E+03  0.40000000000E+03 0. -1.
<mgrwt>
<rscale>  2 0.43508323E+03</rscale>
<asrwt>0</asrwt>
<pdfrwt beam="1">  1       21 0.10709473E+00 0.43508323E+03</pdfrwt>
<pdfrwt beam="2">  1       21 0.48258036E-01 0.43508323E+03</pdfrwt>
<totfact> 0.24874610E+03</totfact>
</mgrwt>
</event>
<event>
 4    1  0.4821294E-002  0.4121344E+03  0.7818608E-02  0.1039657E+00
         21   -1    0    0  501  502  0.00000000000E+00  0.00000000000E+00  0.11105883322E+04  0.11105883322E+04  0.00000000000E+00 0. -1.
         21   -1    0    0  502  503 -0.00000000000E+00 -0.00000000000E+00 -0.17581922125E+03  0.17581922125E+03  0.00000000000E+00 0. -1.
    9000007    1    1    2  501    0  0.11651507452E+02 -0.98585066843E+02  0.69940385947E+03  0.81180079556E+03  0.40000000000E+03 0. -1.
   -9000007    1    1    2    0  503 -0.11651507452E+02  0.98585066843E+02  0.23536525149E+03  0.47460675790E+03  0.40000000000E+03 0. -1.
<mgrwt>
<rscale>  2 0.41213441E+03</rscale>
<asrwt>0</asrwt>
<pdfrwt beam="1">  1       21 0.17085974E+00 0.41213441E+03</pdfrwt>
<pdfrwt beam="2">  1       21 0.27049111E-01 0.41213441E+03</pdfrwt>
<totfact> 0.23797444E+03</totfact>
</mgrwt>
</event>
<event>
 4    1  0.4821294E-002  0.4596650E+03  0.7818608E-02  0.1024878E+00
         21   -1    0    0  503  502  0.00000000000E+00  0.00000000000E+00  0.51789728518E+03  0.51789728518E+03  0.00000000000E+00 0.  1.
         21   -1    0    0  501  503 -0.00000000000E+00 -0.00000000000E+00 -0.49172949899E+03  0.49172949899E+03  0.00000000000E+00 0. -1.
    9000007    1    1    2  501    0  0.21762117933E+03  0.62713095397E+02 -0.19524905811E+03  0.49941376105E+03  0.40000000000E+03 0. -1.
   -9000007    1    1    2    0  502 -0.21762117933E+03 -0.62713095397E+02  0.22141684430E+03  0.51021302312E+03  0.40000000000E+03 0.  1.
<mgrwt>
<rscale>  2 0.45966500E+03</rscale>
<asrwt>0</asrwt>
<pdfrwt beam="1">  1       21 0.79676506E-01 0.45966500E+03</pdfrwt>
<pdfrwt beam="2">  1       21 0.75650692E-01 0.45966500E+03</pdfrwt>
<totfact> 0.18595817E+03</totfact>
</mgrwt>
</event>
<event>
 4    1  0.4821294E-002  0.4184252E+03  0.7818608E-02  0.1037580E+00
         21   -1    0    0  501  502  0.00000000000E+00  0.00000000000E+00  0.10576463607E+04  0.10576463607E+04  0.00000000000E+00 0.  1.
         21   -1    0    0  502  503 -0.00000000000E+00 -0.00000000000E+00 -0.20113219895E+03  0.20113219895E+03  0.00000000000E+00 0.  1.
    9000007    1    1    2  501    0 -0.10297964278E+03  0.66894563366E+02  0.69303012556E+03  0.80954953176E+03  0.40000000000E+03 0.  1.
   -9000007    1    1    2    0  503  0.10297964278E+03 -0.66894563366E+02  0.16348403625E+03  0.44922902794E+03  0.40000000000E+03 0.  1.
<mgrwt>
<rscale>  2 0.41842525E+03</rscale>
<asrwt>0</asrwt>
<pdfrwt beam="1">  1       21 0.16271482E+00 0.41842525E+03</pdfrwt>
<pdfrwt beam="2">  1       21 0.30943416E-01 0.41842525E+03</pdfrwt>
<totfact> 0.20880997E+03</totfact>
</mgrwt>
</event>
<event>
 4    1  0.4821294E-002  0.4440188E+03  0.7818608E-02  0.1029521E+00
         21   -1    0    0  501  502  0.00000000000E+00  0.00000000000E+00  0.26541739804E+03  0.26541739804E+03  0.00000000000E+00 0.  1.
         21   -1    0    0  502  503 -0.00000000000E+00 -0.00000000000E+00 -0.74854887819E+03  0.74854887819E+03  0.00000000000E+00 0. -1.
    9000007    1    1    2  501    0  0.18468448093E+03 -0.55175580660E+02 -0.19714547026E+03  0.48581790688E+03  0.40000000000E+03 0.  1.
   -9000007    1    1    2    0  503 -0.18468448093E+03  0.55175580660E+02 -0.28598600988E+03  0.52814836935E+03  0.40000000000E+03 0.  1.
<mgrwt>
<rscale>  2 0.44401881E+03</rscale>
<asrwt>0</asrwt>
<pdfrwt beam="1">  1       21 0.40833446E-01 0.44401881E+03</pdfrwt>
<pdfrwt beam="2">  1       21 0.11516136E+00 0.44401881E+03</pdfrwt>
<totfact> 0.29348804E+03</totfact>
</mgrwt>
</event>
<event>
 4    1  0.4821294E-002  0.4941160E+03  0.7818608E-02  0.1015326E+00
         21   -1    0    0  501  502  0.00000000000E+00  0.00000000000E+00  0.64555571544E+03  0.64555571544E+03  0.00000000000E+00 0.  1.
         21   -1    0    0  502  503 -0.00000000000E+00 -0.00000000000E+00 -0.37920190930E+03  0.37920190930E+03  0.00000000000E+00 0.  1.
    9000007    1    1    2  501    0 -0.27710806519E+03  0.85800637102E+02  0.15948444159E+03  0.51921663709E+03  0.40000000000E+03 0.  1.
   -9000007    1    1    2    0  503  0.27710806519E+03 -0.85800637102E+02  0.10686936455E+03  0.50554098766E+03  0.40000000000E+03 0.  1.
<mgrwt>
<rscale>  2 0.49411601E+03</rscale>
<asrwt>0</asrwt>
<pdfrwt beam="1">  1       21 0.99316264E-01 0.49411601E+03</pdfrwt>
<pdfrwt beam="2">  1       21 0.58338755E-01 0.49411601E+03</pdfrwt>
<totfact> 0.19487507E+03</totfact>
</mgrwt>
</event>
<event>
 4    1  0.4821294E-002  0.4206106E+03  0.7818608E-02  0.1036868E+00
         21   -1    0    0  503  502  0.00000000000E+00  0.00000000000E+00  0.16192916160E+03  0.16192916160E+03  0.00000000000E+00 0.  1.
         21   -1    0    0  501  503 -0.00000000000E+00 -0.00000000000E+00 -0.12179720803E+04  0.12179720803E+04  0.00000000000E+00 0.  1.
    9000007    1    1    2  501    0 -0.29589334194E+02  0.12664038435E+03 -0.74943893442E+03  0.85940213641E+03  0.40000000000E+03 0.  1.
   -9000007    1    1    2    0  502  0.29589334194E+02 -0.12664038435E+03 -0.30660398432E+03  0.52049910552E+03  0.40000000000E+03 0.  1.
<mgrwt>
<rscale>  2 0.42061065E+03</rscale>
<asrwt>0</asrwt>
<pdfrwt beam="1">  1       21 0.24912179E-01 0.42061065E+03</pdfrwt>
<pdfrwt beam="2">  1       21 0.18738032E+00 0.42061065E+03</pdfrwt>
<totfact> 0.21289334E+03</totfact>
</mgrwt>
</event>
<event>
 4    1  0.4821294E-002  0.4165392E+03  0.7818608E-02  0.1038199E+00
         21   -1    0    0  503  502  0.00000000000E+00  0.00000000000E+00  0.42131290648E+03  0.42131290648E+03  0.00000000000E+00 0. -1.
         21   -1    0    0  501  503 -0.00000000000E+00 -0.00000000000E+00 -0.82639529707E+03  0.82639529707E+03  0.00000000000E+00 0. -1.
    9000007    1    1    2  501    0  0.87336075784E+01  0.11588183844E+03 -0.64440769973E+03  0.76731099292E+03  0.40000000000E+03 0. -1.
   -9000007    1    1    2    0  502 -0.87336075784E+01 -0.11588183844E+03  0.23932530914E+03  0.48039721063E+03  0.40000000000E+03 0. -1.
<mgrwt>
<rscale>  2 0.41653917E+03</rscale>
<asrwt>0</asrwt>
<pdfrwt beam="1">  1       21 0.64817370E-01 0.41653917E+03</pdfrwt>
<pdfrwt beam="2">  1       21 0.12713774E+00 0.41653917E+03</pdfrwt>
<totfact> 0.85983396E+02</totfact>
</mgrwt>
</event>
<event>
 4    1  0.4821294E-002  0.4469661E+03  0.7818608E-02  0.1028631E+00
         21   -1    0    0  503  502  0.00000000000E+00  0.00000000000E+00  0.19090093181E+04  0.19090093181E+04  0.00000000000E+00 0. -1.
         21   -1    0    0  501  503 -0.00000000000E+00 -0.00000000000E+00 -0.14436136607E+03  0.14436136607E+03  0.00000000000E+00 0. -1.
    9000007    1    1    2  501    0 -0.14578597941E+03 -0.13610708159E+03  0.34384741003E+03  0.56392351506E+03  0.40000000000E+03 0. -1.
   -9000007    1    1    2    0  502  0.14578597941E+03  0.13610708159E+03  0.14208005420E+04  0.14894471691E+04  0.40000000000E+03 0. -1.
<mgrwt>
<rscale>  2 0.44696609E+03</rscale>
<asrwt>0</asrwt>
<pdfrwt beam="1">  1       21 0.29369372E+00 0.44696609E+03</pdfrwt>
<pdfrwt beam="2">  1       21 0.22209442E-01 0.44696609E+03</pdfrwt>
<totfact> 0.56434448E+02</totfact>
</mgrwt>
</event>
<event>
 4    1  0.4821294E-002  0.4526822E+03  0.7818608E-02  0.1026925E+00
         21   -1    0    0  503  502  0.00000000000E+00  0.00000000000E+00  0.45517884603E+03  0.45517884603E+03  0.00000000000E+00 0.  1.
         21   -1    0    0  501  503 -0.00000000000E+00 -0.00000000000E+00 -0.55650254958E+03  0.55650254958E+03  0.00000000000E+00 0. -1.
    9000007    1    1    2  501    0  0.18056583447E+03  0.11098250338E+03 -0.27174402948E+03  0.52798291089E+03  0.40000000000E+03 0. -1.
   -9000007    1    1    2    0  502 -0.18056583447E+03 -0.11098250338E+03  0.17042032593E+03  0.48369848472E+03  0.40000000000E+03 0.  1.
<mgrwt>
<rscale>  2 0.45268216E+03</rscale>
<asrwt>0</asrwt>
<pdfrwt beam="1">  1       21 0.70027515E-01 0.45268216E+03</pdfrwt>
<pdfrwt beam="2">  1       21 0.85615776E-01 0.45268216E+03</pdfrwt>
<totfact> 0.18794199E+03</totfact>
</mgrwt>
</event>
<event>
 4    1  0.4821294E-002  0.4114375E+03  0.7818608E-02  0.1039890E+00
         21   -1    0    0  503  502  0.00000000000E+00  0.00000000000E+00  0.56025559808E+03  0.56025559808E+03  0.00000000000E+00 0.  1.
         21   -1    0    0  501  503 -0.00000000000E+00 -0.00000000000E+00 -0.36946578513E+03  0.36946578513E+03  0.00000000000E+00 0.  1.
    9000007    1    1    2  501    0  0.20131552834E+02  0.94209880419E+02  0.29382007049E+03  0.50557987975E+03  0.40000000000E+03 0.  1.
   -9000007    1    1    2    0  502 -0.20131552834E+02 -0.94209880419E+02 -0.10303025753E+03  0.42414150346E+03  0.40000000000E+03 0.  1.
<mgrwt>
<rscale>  2 0.41143746E+03</rscale>
<asrwt>0</asrwt>
<pdfrwt beam="1">  1       21 0.86193169E-01 0.41143746E+03</pdfrwt>
<pdfrwt beam="2">  1       21 0.56840890E-01 0.41143746E+03</pdfrwt>
<totfact> 0.29797174E+03</totfact>
</mgrwt>
</event>
<event>
 4    1  0.4821294E-002  0.5923838E+03  0.7818608E-02  0.9921335E-01
         21   -1    0    0  501  502  0.00000000000E+00  0.00000000000E+00  0.59195767872E+03  0.59195767872E+03  0.00000000000E+00 0. -1.
         21   -1    0    0  502  503 -0.00000000000E+00 -0.00000000000E+00 -0.76977482324E+03  0.76977482324E+03  0.00000000000E+00 0.  1.
    9000007    1    1    2  501    0  0.21440294610E+03 -0.38072286933E+03  0.23754635864E+03  0.63823725920E+03  0.40000000000E+03 0. -1.
   -9000007    1    1    2    0  503 -0.21440294610E+03  0.38072286933E+03 -0.41536350317E+03  0.72349524276E+03  0.40000000000E+03 0.  1.
<mgrwt>
<rscale>  2 0.59238377E+03</rscale>
<asrwt>0</asrwt>
<pdfrwt beam="1">  1       21 0.91070413E-01 0.59238377E+03</pdfrwt>
<pdfrwt beam="2">  1       21 0.11842689E+00 0.59238377E+03</pdfrwt>
<totfact> 0.44025802E+02</totfact>
</mgrwt>
</event>
<event>
 4    1  0.4821294E-002  0.4905804E+03  0.7818608E-02  0.1016267E+00
         21   -1    0    0  503  502  0.00000000000E+00  0.00000000000E+00  0.97660436874E+03  0.97660436874E+03  0.00000000000E+00 0.  1.
         21   -1    0    0  501  503 -0.00000000000E+00 -0.00000000000E+00 -0.46250152438E+03  0.46250152438E+03  0.00000000000E+00 0.  1.
    9000007    1    1    2  501    0  0.18369301108E+03  0.21662413731E+03 -0.23476189419E+03  0.54385870054E+03  0.40000000000E+03 0.  1.
   -9000007    1    1    2    0  502 -0.18369301108E+03 -0.21662413731E+03  0.74886473855E+03  0.89524719258E+03  0.40000000000E+03 0.  1.
<mgrwt>
<rscale>  2 0.49058041E+03</rscale>
<asrwt>0</asrwt>
<pdfrwt beam="1">  1       21 0.15024683E+00 0.49058041E+03</pdfrwt>
<pdfrwt beam="2">  1       21 0.71154081E-01 0.49058041E+03</pdfrwt>
<totfact> 0.43381566E+02</totfact>
</mgrwt>
</event>
<event>
 4    1  0.4821294E-002  0.4347515E+03  0.7818608E-02  0.1032369E+00
         21   -1    0    0  501  502  0.00000000000E+00  0.00000000000E+00  0.30084277388E+03  0.30084277388E+03  0.00000000000E+00 0.  1.
         21   -1    0    0  502  503 -0.00000000000E+00 -0.00000000000E+00 -0.84287827545E+03  0.84287827545E+03  0.00000000000E+00 0. -1.
    9000007    1    1    2  501    0  0.16723198381E+03  0.32284946356E+02  0.17542442871E+02  0.43510526482E+03  0.40000000000E+03 0.  1.
   -9000007    1    1    2    0  503 -0.16723198381E+03 -0.32284946356E+02 -0.55957794444E+03  0.70861578452E+03  0.40000000000E+03 0. -1.
<mgrwt>
<rscale>  2 0.43475149E+03</rscale>
<asrwt>0</asrwt>
<pdfrwt beam="1">  1       21 0.46283504E-01 0.43475149E+03</pdfrwt>
<pdfrwt beam="2">  1       21 0.12967358E+00 0.43475149E+03</pdfrwt>
<totfact> 0.16760420E+03</totfact>
</mgrwt>
</event>
<event>
 4    1  0.4821294E-002  0.4006285E+03  0.7818608E-02  0.1043562E+00
         21   -1    0    0  503  502  0.00000000000E+00  0.00000000000E+00  0.87466478128E+02  0.87466478128E+02  0.00000000000E+00 0. -1.
         21   -1    0    0  501  503 -0.00000000000E+00 -0.00000000000E+00 -0.18496856636E+04  0.18496856636E+04  0.00000000000E+00 0. -1.
    9000007    1    1    2  501    0  0.22084644822E+02  0.39359199594E+01 -0.79488060431E+03  0.89013392145E+03  0.40000000000E+03 0.  1.
   -9000007    1    1    2    0  502 -0.22084644822E+02 -0.39359199594E+01 -0.96733858121E+03  0.10470182203E+04  0.40000000000E+03 0.  1.
<mgrwt>
<rscale>  2 0.40062853E+03</rscale>
<asrwt>0</asrwt>
<pdfrwt beam="1">  1       21 0.13456380E-01 0.40062853E+03</pdfrwt>
<pdfrwt beam="2">  1       21 0.28456704E+00 0.40062853E+03</pdfrwt>
<totfact> 0.16826519E+03</totfact>
</mgrwt>
</event>
<event>
 4    1  0.4821294E-002  0.4784841E+03  0.7818608E-02  0.1019553E+00
         21   -1    0    0  501  502  0.00000000000E+00  0.00000000000E+00  0.20886494553E+03  0.20886494553E+03  0.00000000000E+00 0. -1.
         21   -1    0    0  502  503 -0.00000000000E+00 -0.00000000000E+00 -0.10967552480E+04  0.10967552480E+04  0.00000000000E+00 0. -1.
    9000007    1    1    2  501    0 -0.12306511449E+03  0.23195252803E+03 -0.45929961286E+03  0.66325193708E+03  0.40000000000E+03 0. -1.
   -9000007    1    1    2    0  503  0.12306511449E+03 -0.23195252803E+03 -0.42859068957E+03  0.64236825641E+03  0.40000000000E+03 0. -1.
<mgrwt>
<rscale>  2 0.47848406E+03</rscale>
<asrwt>0</asrwt>
<pdfrwt beam="1">  1       21 0.32133068E-01 0.47848406E+03</pdfrwt>
<pdfrwt beam="2">  1       21 0.16873158E+00 0.47848406E+03</pdfrwt>
<totfact> 0.17054951E+03</totfact>
</mgrwt>
</event>
<event>
 4    1  0.4821294E-002  0.4800341E+03  0.7818608E-02  0.1019126E+00
         21   -1    0    0  503  502  0.00000000000E+00  0.00000000000E+00  0.92646546895E+03  0.92646546895E+03  0.00000000000E+00 0. -1.
         21   -1    0    0  501  503 -0.00000000000E+00 -0.00000000000E+00 -0.30355188918E+03  0.30355188918E+03  0.00000000000E+00 0.  1.
    9000007    1    1    2  501    0 -0.11346879792E+03 -0.23991157267E+03  0.57283646074E+03  0.74737831221E+03  0.40000000000E+03 0.  1.
   -9000007    1    1    2    0  502  0.11346879792E+03  0.23991157267E+03  0.50077119028E+02  0.48263904593E+03  0.40000000000E+03 0.  1.
<mgrwt>
<rscale>  2 0.48003409E+03</rscale>
<asrwt>0</asrwt>
<pdfrwt beam="1">  1       21 0.14253315E+00 0.48003409E+03</pdfrwt>
<pdfrwt beam="2">  1       21 0.46700291E-01 0.48003409E+03</pdfrwt>
<totfact> 0.12592617E+03</totfact>
</mgrwt>
</event>
<event>
 4    1  0.4821294E-002  0.4492385E+03  0.7818608E-02  0.1027949E+00
         21   -1    0    0  503  502  0.00000000000E+00  0.00000000000E+00  0.19497958156E+03  0.19497958156E+03  0.00000000000E+00 0.  1.
         21   -1    0    0  501  503 -0.00000000000E+00 -0.00000000000E+00 -0.12915705934E+04  0.12915705934E+04  0.00000000000E+00 0.  1.
    9000007    1    1    2  501    0  0.84357522337E+02 -0.18627669873E+03 -0.87953700589E+03  0.98762368582E+03  0.40000000000E+03 0.  1.
   -9000007    1    1    2    0  502 -0.84357522337E+02  0.18627669873E+03 -0.21705400594E+03  0.49892648914E+03  0.40000000000E+03 0.  1.
<mgrwt>
<rscale>  2 0.44923847E+03</rscale>
<asrwt>0</asrwt>
<pdfrwt beam="1">  1       21 0.29996859E-01 0.44923847E+03</pdfrwt>
<pdfrwt beam="2">  1       21 0.19870316E+00 0.44923847E+03</pdfrwt>
<totfact> 0.12229405E+03</totfact>
</mgrwt>
</event>
<event>
 4    1  0.4821294E-002  0.4280711E+03  0.7818608E-02  0.1034471E+00
         21   -1    0    0  501  502  0.00000000000E+00  0.00000000000E+00  0.50782477125E+03  0.50782477125E+03  0.00000000000E+00 0. -1.
         21   -1    0    0  502  503 -0.00000000000E+00 -0.00000000000E+00 -0.67551720318E+03  0.67551720318E+03  0.00000000000E+00 0.  1.
    9000007    1    1    2  501    0  0.15058843724E+03  0.23831946447E+02  0.31997848058E+03  0.53444463431E+03  0.40000000000E+03 0. -1.
   -9000007    1    1    2    0  503 -0.15058843724E+03 -0.23831946447E+02 -0.48767091252E+03  0.64889734012E+03  0.40000000000E+03 0.  1.
<mgrwt>
<rscale>  2 0.42807107E+03</rscale>
<asrwt>0</asrwt>
<pdfrwt beam="1">  1       21 0.78126888E-01 0.42807107E+03</pdfrwt>
<pdfrwt beam="2">  1       21 0.10392572E+00 0.42807107E+03</pdfrwt>
<totfact> 0.93051217E+02</totfact>
</mgrwt>
</event>
<event>
 4    1  0.4821294E-002  0.4117424E+03  0.7818608E-02  0.1039788E+00
         21   -1    0    0  503  502  0.00000000000E+00  0.00000000000E+00  0.17758972613E+03  0.17758972613E+03  0.00000000000E+00 0.  1.
         21   -1    0    0  501  503 -0.00000000000E+00 -0.00000000000E+00 -0.97356875906E+03  0.97356875906E+03  0.00000000000E+00 0.  1.
    9000007    1    1    2  501    0  0.67222363744E+02  0.70802301169E+02 -0.47827568002E+03  0.63109384258E+03  0.40000000000E+03 0.  1.
   -9000007    1    1    2    0  502 -0.67222363744E+02 -0.70802301169E+02 -0.31770335291E+03  0.52006464260E+03  0.40000000000E+03 0.  1.
<mgrwt>
<rscale>  2 0.41174241E+03</rscale>
<asrwt>0</asrwt>
<pdfrwt beam="1">  1       21 0.27321496E-01 0.41174241E+03</pdfrwt>
<pdfrwt beam="2">  1       21 0.14977981E+00 0.41174241E+03</pdfrwt>
<totfact> 0.33632775E+03</totfact>
</mgrwt>
</event>
<event>
 4    1  0.4821294E-002  0.4347625E+03  0.7818608E-02  0.1032366E+00
         21   -1    0    0  503  502  0.00000000000E+00  0.00000000000E+00  0.26006018873E+03  0.26006018873E+03  0.00000000000E+00 0. -1.
         21   -1    0    0  501  503 -0.00000000000E+00 -0.00000000000E+00 -0.12553390916E+04  0.12553390916E+04  0.00000000000E+00 0. -1.
    9000007    1    1    2  501    0  0.87756422418E+02 -0.14600425650E+03 -0.98927643614E+03  0.10805953450E+04  0.40000000000E+03 0. -1.
   -9000007    1    1    2    0  502 -0.87756422418E+02  0.14600425650E+03 -0.60024667762E+01  0.43480393535E+03  0.40000000000E+03 0. -1.
<mgrwt>
<rscale>  2 0.43476250E+03</rscale>
<asrwt>0</asrwt>
<pdfrwt beam="1">  1       21 0.40009260E-01 0.43476250E+03</pdfrwt>
<pdfrwt beam="2">  1       21 0.19312909E+00 0.43476250E+03</pdfrwt>
<totfact> 0.75005163E+02</totfact>
</mgrwt>
</event>
<event>
 4    1  0.4821294E-002  0.5973780E+03  0.7818608E-02  0.9910861E-01
         21   -1    0    0  501  502  0.00000000000E+00  0.00000000000E+00  0.58763941655E+03  0.58763941655E+03  0.00000000000E+00 0. -1.
         21   -1    0    0  502  503 -0.00000000000E+00 -0.00000000000E+00 -0.65779520021E+03  0.65779520021E+03  0.00000000000E+00 0. -1.
    9000007    1    1    2  501    0  0.42897435164E+03 -0.11332024455E+03 -0.20764791236E+03  0.63243824023E+03  0.40000000000E+03 0. -1.
   -9000007    1    1    2    0  503 -0.42897435164E+03  0.11332024455E+03  0.13749212870E+03  0.61299637654E+03  0.40000000000E+03 0. -1.
<mgrwt>
<rscale>  2 0.59737800E+03</rscale>
<asrwt>0</asrwt>
<pdfrwt beam="1">  1       21 0.90406065E-01 0.59737800E+03</pdfrwt>
<pdfrwt beam="2">  1       21 0.10119926E+00 0.59737800E+03</pdfrwt>
<totfact> 0.66243434E+02</totfact>
</mgrwt>
</event>
<event>
 4    1  0.4821294E-002  0.4631088E+03  0.7818608E-02  0.1023883E+00
         21   -1    0    0  501  502  0.00000000000E+00  0.00000000000E+00  0.13396661520E+04  0.13396661520E+04  0.00000000000E+00 0. -1.
         21   -1    0    0  502  503 -0.00000000000E+00 -0.00000000000E+00 -0.25696928287E+03  0.25696928287E+03  0.00000000000E+00 0. -1.
    9000007    1    1    2  501    0  0.18249649536E+03 -0.14548116170E+03  0.10315179457E+04  0.11307073058E+04  0.40000000000E+03 0. -1.
   -9000007    1    1    2    0  503 -0.18249649536E+03  0.14548116170E+03  0.51178923483E+02  0.46592812905E+03  0.40000000000E+03 0. -1.
<mgrwt>
<rscale>  2 0.46310878E+03</rscale>
<asrwt>0</asrwt>
<pdfrwt beam="1">  1       21 0.20610248E+00 0.46310878E+03</pdfrwt>
<pdfrwt beam="2">  1       21 0.39533737E-01 0.46310878E+03</pdfrwt>
<totfact> 0.62122724E+02</totfact>
</mgrwt>
</event>
<event>
 4    1  0.4821294E-002  0.4091532E+03  0.7818608E-02  0.1040656E+00
         21   -1    0    0  503  502  0.00000000000E+00  0.00000000000E+00  0.42989999824E+03  0.42989999824E+03  0.00000000000E+00 0. -1.
         21   -1    0    0  501  503 -0.00000000000E+00 -0.00000000000E+00 -0.42828865901E+03  0.42828865901E+03  0.00000000000E+00 0. -1.
    9000007    1    1    2  501    0 -0.40033048688E+02  0.76181955976E+02 -0.12848090077E+03  0.42885157953E+03  0.40000000000E+03 0. -1.
   -9000007    1    1    2    0  502  0.40033048688E+02 -0.76181955976E+02  0.13009223999E+03  0.42933707773E+03  0.40000000000E+03 0. -1.
<mgrwt>
<rscale>  2 0.40915319E+03</rscale>
<asrwt>0</asrwt>
<pdfrwt beam="1">  1       21 0.66138461E-01 0.40915319E+03</pdfrwt>
<pdfrwt beam="2">  1       21 0.65890563E-01 0.40915319E+03</pdfrwt>
<totfact> 0.39447299E+03</totfact>
</mgrwt>
</event>
<event>
 4    1  0.4821294E-002  0.6227384E+03  0.7818608E-02  0.9859323E-01
         21   -1    0    0  501  502  0.00000000000E+00  0.00000000000E+00  0.91225117332E+03  0.91225117332E+03  0.00000000000E+00 0. -1.
         21   -1    0    0  502  503 -0.00000000000E+00 -0.00000000000E+00 -0.57260529390E+03  0.57260529390E+03  0.00000000000E+00 0.  1.
    9000007    1    1    2  501    0  0.29762404175E+03 -0.37312601903E+03  0.54663286768E+03  0.82861968860E+03  0.40000000000E+03 0. -1.
   -9000007    1    1    2    0  503 -0.29762404175E+03  0.37312601903E+03 -0.20698698826E+03  0.65623677862E+03  0.40000000000E+03 0.  1.
<mgrwt>
<rscale>  2 0.62273839E+03</rscale>
<asrwt>0</asrwt>
<pdfrwt beam="1">  1       21 0.14034633E+00 0.62273839E+03</pdfrwt>
<pdfrwt beam="2">  1       21 0.88093122E-01 0.62273839E+03</pdfrwt>
<totfact> 0.30247030E+02</totfact>
</mgrwt>
</event>
<event>
 4    1  0.4821294E-002  0.4365504E+03  0.7818608E-02  0.1031810E+00
         21   -1    0    0  503  502  0.00000000000E+00  0.00000000000E+00  0.48804772797E+03  0.48804772797E+03  0.00000000000E+00 0.  1.
         21   -1    0    0  501  503 -0.00000000000E+00 -0.00000000000E+00 -0.39239161135E+03  0.39239161135E+03  0.00000000000E+00 0.  1.
    9000007    1    1    2  501    0  0.13243975036E+03 -0.11417533399E+03  0.17158149409E+02  0.43688751007E+03  0.40000000000E+03 0.  1.
   -9000007    1    1    2    0  502 -0.13243975036E+03  0.11417533399E+03  0.78497967214E+02  0.44355182924E+03  0.40000000000E+03 0.  1.
<mgrwt>
<rscale>  2 0.43655045E+03</rscale>
<asrwt>0</asrwt>
<pdfrwt beam="1">  1       21 0.75084266E-01 0.43655045E+03</pdfrwt>
<pdfrwt beam="2">  1       21 0.60367940E-01 0.43655045E+03</pdfrwt>
<totfact> 0.35609244E+03</totfact>
</mgrwt>
</event>
<event>
 4    1  0.4821294E-002  0.4451210E+03  0.7818608E-02  0.1029187E+00
         21   -1    0    0  501  502  0.00000000000E+00  0.00000000000E+00  0.17251576223E+03  0.17251576223E+03  0.00000000000E+00 0.  1.
         21   -1    0    0  502  503 -0.00000000000E+00 -0.00000000000E+00 -0.16767951469E+04  0.16767951469E+04  0.00000000000E+00 0. -1.
    9000007    1    1    2  501    0  0.17080425749E+03 -0.94650131708E+02 -0.23312209738E+03  0.50247254064E+03  0.40000000000E+03 0.  1.
   -9000007    1    1    2    0  503 -0.17080425749E+03  0.94650131708E+02 -0.12711572873E+04  0.13468383685E+04  0.40000000000E+03 0. -1.
<mgrwt>
<rscale>  2 0.44512104E+03</rscale>
<asrwt>0</asrwt>
<pdfrwt beam="1">  1       21 0.26540885E-01 0.44512104E+03</pdfrwt>
<pdfrwt beam="2">  1       21 0.25796850E+00 0.44512104E+03</pdfrwt>
<totfact> 0.65719847E+02</totfact>
</mgrwt>
</event>
<event>
 4    1  0.4821294E-002  0.4308803E+03  0.7818608E-02  0.1033582E+00
         21   -1    0    0  501  502  0.00000000000E+00  0.00000000000E+00  0.30746903332E+03  0.30746903332E+03  0.00000000000E+00 0.  1.
         21   -1    0    0  502  503 -0.00000000000E+00 -0.00000000000E+00 -0.94658309414E+03  0.94658309414E+03  0.00000000000E+00 0.  1.
    9000007    1    1    2  501    0 -0.36664820913E+02 -0.15592800274E+03  0.57753855487E+02  0.43473366439E+03  0.40000000000E+03 0.  1.
   -9000007    1    1    2    0  503  0.36664820913E+02  0.15592800274E+03 -0.69686791631E+03  0.81931846307E+03  0.40000000000E+03 0.  1.
<mgrwt>
<rscale>  2 0.43088032E+03</rscale>
<asrwt>0</asrwt>
<pdfrwt beam="1">  1       21 0.47302929E-01 0.43088032E+03</pdfrwt>
<pdfrwt beam="2">  1       21 0.14562817E+00 0.43088032E+03</pdfrwt>
<totfact> 0.11807150E+03</totfact>
</mgrwt>
</event>
<event>
 4    1  0.4821294E-002  0.5020406E+03  0.7818608E-02  0.1013248E+00
         21   -1    0    0  501  502  0.00000000000E+00  0.00000000000E+00  0.19636306761E+04  0.19636306761E+04  0.00000000000E+00 0.  1.
         21   -1    0    0  502  503 -0.00000000000E+00 -0.00000000000E+00 -0.30568142648E+03  0.30568142648E+03  0.00000000000E+00 0. -1.
    9000007    1    1    2  501    0  0.12838764845E+03  0.27488423348E+03  0.16931753400E+04  0.17660372199E+04  0.40000000000E+03 0.  1.
   -9000007    1    1    2    0  503 -0.12838764845E+03 -0.27488423348E+03 -0.35226090381E+02  0.50327488268E+03  0.40000000000E+03 0. -1.
<mgrwt>
<rscale>  2 0.50204057E+03</rscale>
<asrwt>0</asrwt>
<pdfrwt beam="1">  1       21 0.30209702E+00 0.50204057E+03</pdfrwt>
<pdfrwt beam="2">  1       21 0.47027913E-01 0.50204057E+03</pdfrwt>
<totfact> 0.10772515E+02</totfact>
</mgrwt>
</event>
<event>
 4    1  0.4821294E-002  0.4195777E+03  0.7818608E-02  0.1037204E+00
         21   -1    0    0  503  502  0.00000000000E+00  0.00000000000E+00  0.13331924993E+03  0.13331924993E+03  0.00000000000E+00 0. -1.
         21   -1    0    0  501  503 -0.00000000000E+00 -0.00000000000E+00 -0.17840915944E+04  0.17840915944E+04  0.00000000000E+00 0.  1.
    9000007    1    1    2  501    0 -0.63704248024E+02  0.10948614231E+03 -0.13140988462E+04  0.13794568584E+04  0.40000000000E+03 0.  1.
   -9000007    1    1    2    0  502  0.63704248024E+02 -0.10948614231E+03 -0.33667349830E+03  0.53795398598E+03  0.40000000000E+03 0. -1.
<mgrwt>
<rscale>  2 0.41957770E+03</rscale>
<asrwt>0</asrwt>
<pdfrwt beam="1">  1       21 0.20510653E-01 0.41957770E+03</pdfrwt>
<pdfrwt beam="2">  1       21 0.27447564E+00 0.41957770E+03</pdfrwt>
<totfact> 0.87073174E+02</totfact>
</mgrwt>
</event>
<event>
 4    1  0.4821294E-002  0.4585876E+03  0.7818608E-02  0.1025192E+00
         21   -1    0    0  501  502  0.00000000000E+00  0.00000000000E+00  0.12310358221E+04  0.12310358221E+04  0.00000000000E+00 0. -1.
         21   -1    0    0  502  503 -0.00000000000E+00 -0.00000000000E+00 -0.17145444888E+03  0.17145444888E+03  0.00000000000E+00 0. -1.
    9000007    1    1    2  501    0 -0.25436212089E+02  0.22283530699E+03  0.48760112902E+03  0.66937092553E+03  0.40000000000E+03 0. -1.
   -9000007    1    1    2    0  503  0.25436212089E+02 -0.22283530699E+03  0.57198024421E+03  0.73311934547E+03  0.40000000000E+03 0. -1.
<mgrwt>
<rscale>  2 0.45858759E+03</rscale>
<asrwt>0</asrwt>
<pdfrwt beam="1">  1       21 0.18939012E+00 0.45858759E+03</pdfrwt>
<pdfrwt beam="2">  1       21 0.26377608E-01 0.45858759E+03</pdfrwt>
<totfact> 0.18150428E+03</totfact>
</mgrwt>
</event>
<event>
 4    1  0.4821294E-002  0.5098236E+03  0.7818608E-02  0.1011246E+00
         21   -1    0    0  503  502  0.00000000000E+00  0.00000000000E+00  0.60526692183E+03  0.60526692183E+03  0.00000000000E+00 0.  1.
         21   -1    0    0  501  503 -0.00000000000E+00 -0.00000000000E+00 -0.46935413285E+03  0.46935413285E+03  0.00000000000E+00 0. -1.
    9000007    1    1    2  501    0 -0.23609989747E+03 -0.21018310059E+03 -0.88751136774E+02  0.51749092904E+03  0.40000000000E+03 0. -1.
   -9000007    1    1    2    0  502  0.23609989747E+03  0.21018310059E+03  0.22466392576E+03  0.55713012564E+03  0.40000000000E+03 0.  1.
<mgrwt>
<rscale>  2 0.50982359E+03</rscale>
<asrwt>0</asrwt>
<pdfrwt beam="1">  1       21 0.93117988E-01 0.50982359E+03</pdfrwt>
<pdfrwt beam="2">  1       21 0.72208328E-01 0.50982359E+03</pdfrwt>
<totfact> 0.14078209E+03</totfact>
</mgrwt>
</event>
<event>
 4    1  0.4821294E-002  0.4000867E+03  0.7818608E-02  0.1043750E+00
         21   -1    0    0  501  502  0.00000000000E+00  0.00000000000E+00  0.38055809612E+03  0.38055809612E+03  0.00000000000E+00 0. -1.
         21   -1    0    0  502  503 -0.00000000000E+00 -0.00000000000E+00 -0.55360596770E+03  0.55360596770E+03  0.00000000000E+00 0. -1.
    9000007    1    1    2  501    0 -0.62311815753E+01  0.55282099529E+01  0.14240452971E+03  0.42467450925E+03  0.40000000000E+03 0. -1.
   -9000007    1    1    2    0  503  0.62311815753E+01 -0.55282099529E+01 -0.31545240130E+03  0.50948955457E+03  0.40000000000E+03 0. -1.
<mgrwt>
<rscale>  2 0.40008673E+03</rscale>
<asrwt>0</asrwt>
<pdfrwt beam="1">  1       21 0.58547399E-01 0.40008673E+03</pdfrwt>
<pdfrwt beam="2">  1       21 0.85170149E-01 0.40008673E+03</pdfrwt>
<totfact> 0.28865071E+03</totfact>
</mgrwt>
</event>
<event>
 4    1  0.4821294E-002  0.4058044E+03  0.7818608E-02  0.1041788E+00
         21   -1    0    0  501  502  0.00000000000E+00  0.00000000000E+00  0.10534943632E+04  0.10534943632E+04  0.00000000000E+00 0. -1.
         21   -1    0    0  502  503 -0.00000000000E+00 -0.00000000000E+00 -0.19109865553E+03  0.19109865553E+03  0.00000000000E+00 0.  1.
    9000007    1    1    2  501    0 -0.56883442630E+02  0.37966842449E+02  0.69669188562E+03  0.80626099413E+03  0.40000000000E+03 0. -1.
   -9000007    1    1    2    0  503  0.56883442630E+02 -0.37966842449E+02  0.16570382209E+03  0.43833202464E+03  0.40000000000E+03 0.  1.
<mgrwt>
<rscale>  2 0.40580440E+03</rscale>
<asrwt>0</asrwt>
<pdfrwt beam="1">  1       21 0.16207605E+00 0.40580440E+03</pdfrwt>
<pdfrwt beam="2">  1       21 0.29399794E-01 0.40580440E+03</pdfrwt>
<totfact> 0.23497148E+03</totfact>
</mgrwt>
</event>
<event>
 4    1  0.4821294E-002  0.4150013E+03  0.7818608E-02  0.1038706E+00
         21   -1    0    0  501  502  0.00000000000E+00  0.00000000000E+00  0.46980460213E+03  0.46980460213E+03  0.00000000000E+00 0. -1.
         21   -1    0    0  502  503 -0.00000000000E+00 -0.00000000000E+00 -0.51723471420E+03  0.51723471420E+03  0.00000000000E+00 0. -1.
    9000007    1    1    2  501    0  0.10631033154E+03  0.30400106673E+02  0.24262494357E+03  0.48072124596E+03  0.40000000000E+03 0. -1.
   -9000007    1    1    2    0  503 -0.10631033154E+03 -0.30400106673E+02 -0.29005505564E+03  0.50631807037E+03  0.40000000000E+03 0. -1.
<mgrwt>
<rscale>  2 0.41500127E+03</rscale>
<asrwt>0</asrwt>
<pdfrwt beam="1">  1       21 0.72277631E-01 0.41500127E+03</pdfrwt>
<pdfrwt beam="2">  1       21 0.79574571E-01 0.41500127E+03</pdfrwt>
<totfact> 0.21048441E+03</totfact>
</mgrwt>
</event>
<event>
 4    1  0.4821294E-002  0.4582661E+03  0.7818608E-02  0.1025285E+00
         21   -1    0    0  503  502  0.00000000000E+00  0.00000000000E+00  0.49602201425E+03  0.49602201425E+03  0.00000000000E+00 0. -1.
         21   -1    0    0  501  503 -0.00000000000E+00 -0.00000000000E+00 -0.61549299676E+03  0.61549299676E+03  0.00000000000E+00 0. -1.
    9000007    1    1    2  501    0 -0.53445313636E+02 -0.21714379535E+03 -0.37022542759E+03  0.58913045808E+03  0.40000000000E+03 0. -1.
   -9000007    1    1    2    0  502  0.53445313636E+02  0.21714379535E+03  0.25075444508E+03  0.52238455293E+03  0.40000000000E+03 0. -1.
<mgrwt>
<rscale>  2 0.45826611E+03</rscale>
<asrwt>0</asrwt>
<pdfrwt beam="1">  1       21 0.76311080E-01 0.45826611E+03</pdfrwt>
<pdfrwt beam="2">  1       21 0.94691229E-01 0.45826611E+03</pdfrwt>
<totfact> 0.12152217E+03</totfact>
</mgrwt>
</event>
<event>
 4    1  0.4821294E-002  0.4017140E+03  0.7818608E-02  0.1043188E+00
         21   -1    0    0  503  502  0.00000000000E+00  0.00000000000E+00  0.10530249477E+04  0.10530249477E+04  0.00000000000E+00 0.  1.
         21   -1    0    0  501  503 -0.00000000000E+00 -0.00000000000E+00 -0.17095143257E+03  0.17095143257E+03  0.00000000000E+00 0.  1.
    9000007    1    1    2  501    0 -0.93683974182E+01 -0.35865871580E+02  0.24409693562E+03  0.47006110411E+03  0.40000000000E+03 0.  1.
   -9000007    1    1    2    0  502  0.93683974182E+01  0.35865871580E+02  0.63797657949E+03  0.75391527614E+03  0.40000000000E+03 0.  1.
<mgrwt>
<rscale>  2 0.40171399E+03</rscale>
<asrwt>0</asrwt>
<pdfrwt beam="1">  1       21 0.16200383E+00 0.40171399E+03</pdfrwt>
<pdfrwt beam="2">  1       21 0.26300221E-01 0.40171399E+03</pdfrwt>
<totfact> 0.29337504E+03</totfact>
</mgrwt>
</event>
<event>
 4    1  0.4821294E-002  0.5841038E+03  0.7818608E-02  0.9938946E-01
         21   -1    0    0  503  502  0.00000000000E+00  0.00000000000E+00  0.21089769112E+04  0.21089769112E+04  0.00000000000E+00 0.  1.
         21   -1    0    0  501  503 -0.00000000000E+00 -0.00000000000E+00 -0.18242498649E+03  0.18242498649E+03  0.00000000000E+00 0.  1.
    9000007    1    1    2  501    0 -0.21535883686E+03  0.36714814952E+03  0.57779609662E+03  0.82159936805E+03  0.40000000000E+03 0.  1.
   -9000007    1    1    2    0  502  0.21535883686E+03 -0.36714814952E+03  0.13487558280E+04  0.14698025296E+04  0.40000000000E+03 0.  1.
<mgrwt>
<rscale>  2 0.58410375E+03</rscale>
<asrwt>0</asrwt>
<pdfrwt beam="1">  1       21 0.32445797E+00 0.58410375E+03</pdfrwt>
<pdfrwt beam="2">  1       21 0.28065384E-01 0.58410375E+03</pdfrwt>
<totfact> 0.21691519E+02</totfact>
</mgrwt>
</event>
<event>
 4    1  0.4821294E-002  0.6054256E+03  0.7818608E-02  0.9894213E-01
         21   -1    0    0  501  502  0.00000000000E+00  0.00000000000E+00  0.73600344594E+03  0.73600344594E+03  0.00000000000E+00 0. -1.
         21   -1    0    0  502  503 -0.00000000000E+00 -0.00000000000E+00 -0.51026639711E+03  0.51026639711E+03  0.00000000000E+00 0.  1.
    9000007    1    1    2  501    0 -0.13128284536E+03 -0.43509185024E+03  0.20942738388E+03  0.64062464263E+03  0.40000000000E+03 0. -1.
   -9000007    1    1    2    0  503  0.13128284536E+03  0.43509185024E+03  0.16309664955E+02  0.60564520043E+03  0.40000000000E+03 0.  1.
<mgrwt>
<rscale>  2 0.60542556E+03</rscale>
<asrwt>0</asrwt>
<pdfrwt beam="1">  1       21 0.11323130E+00 0.60542556E+03</pdfrwt>
<pdfrwt beam="2">  1       21 0.78502523E-01 0.60542556E+03</pdfrwt>
<totfact> 0.69638006E+02</totfact>
</mgrwt>
</event>
<event>
 4    1  0.4821294E-002  0.4106227E+03  0.7818608E-02  0.1040162E+00
         21   -1    0    0  501  502  0.00000000000E+00  0.00000000000E+00  0.21609388622E+03  0.21609388622E+03  0.00000000000E+00 0. -1.
         21   -1    0    0  502  503 -0.00000000000E+00 -0.00000000000E+00 -0.84666158574E+03  0.84666158574E+03  0.00000000000E+00 0. -1.
    9000007    1    1    2  501    0 -0.53847176692E+02 -0.75574098723E+02 -0.16647997619E+03  0.44308751428E+03  0.40000000000E+03 0. -1.
   -9000007    1    1    2    0  503  0.53847176692E+02  0.75574098723E+02 -0.46408772332E+03  0.61966795768E+03  0.40000000000E+03 0. -1.
<mgrwt>
<rscale>  2 0.41062265E+03</rscale>
<asrwt>0</asrwt>
<pdfrwt beam="1">  1       21 0.33245213E-01 0.41062265E+03</pdfrwt>
<pdfrwt beam="2">  1       21 0.13025563E+00 0.41062265E+03</pdfrwt>
<totfact> 0.32992806E+03</totfact>
</mgrwt>
</event>
<event>
 4    1  0.4821294E-002  0.4060221E+03  0.7818608E-02  0.1041714E+00
         21   -1    0    0  503  502  0.00000000000E+00  0.00000000000E+00  0.55508751258E+03  0.55508751258E+03  0.00000000000E+00 0.  1.
         21   -1    0    0  501  503 -0.00000000000E+00 -0.00000000000E+00 -0.32489850494E+03  0.32489850494E+03  0.00000000000E+00 0.  1.
    9000007    1    1    2  501    0  0.25382795839E+02 -0.64881577507E+02  0.24405649190E+03  0.47372721756E+03  0.40000000000E+03 0.  1.
   -9000007    1    1    2    0  502 -0.25382795839E+02  0.64881577507E+02 -0.13867484252E+02  0.40625879996E+03  0.40000000000E+03 0.  1.
<mgrwt>
<rscale>  2 0.40602205E+03</rscale>
<asrwt>0</asrwt>
<pdfrwt beam="1">  1       21 0.85398079E-01 0.40602205E+03</pdfrwt>
<pdfrwt beam="2">  1       21 0.49984385E-01 0.40602205E+03</pdfrwt>
<totfact> 0.40195449E+03</totfact>
</mgrwt>
</event>
<event>
 4    1  0.4821294E-002  0.4014631E+03  0.7818608E-02  0.1043274E+00
         21   -1    0    0  501  502  0.00000000000E+00  0.00000000000E+00  0.46223370295E+03  0.46223370295E+03  0.00000000000E+00 0. -1.
         21   -1    0    0  502  503 -0.00000000000E+00 -0.00000000000E+00 -0.41753130539E+03  0.41753130539E+03  0.00000000000E+00 0. -1.
    9000007    1    1    2  501    0  0.21644992339E+02  0.26535616041E+02  0.20097587445E+03  0.44895873610E+03  0.40000000000E+03 0. -1.
   -9000007    1    1    2    0  503 -0.21644992339E+02 -0.26535616041E+02 -0.15627347690E+03  0.43080627223E+03  0.40000000000E+03 0. -1.
<mgrwt>
<rscale>  2 0.40146313E+03</rscale>
<asrwt>0</asrwt>
<pdfrwt beam="1">  1       21 0.71112878E-01 0.40146313E+03</pdfrwt>
<pdfrwt beam="2">  1       21 0.64235585E-01 0.40146313E+03</pdfrwt>
<totfact> 0.35589076E+03</totfact>
</mgrwt>
</event>
<event>
 4    1  0.4821294E-002  0.6135408E+03  0.7818608E-02  0.9877705E-01
         21   -1    0    0  501  502  0.00000000000E+00  0.00000000000E+00  0.10633607172E+04  0.10633607172E+04  0.00000000000E+00 0.  1.
         21   -1    0    0  502  503 -0.00000000000E+00 -0.00000000000E+00 -0.48905696509E+03  0.48905696509E+03  0.00000000000E+00 0.  1.
    9000007    1    1    2  501    0  0.32064095373E+03 -0.33707809735E+03  0.69505165186E+03  0.92710790293E+03  0.40000000000E+03 0.  1.
   -9000007    1    1    2    0  503 -0.32064095373E+03  0.33707809735E+03 -0.12074789971E+03  0.62530977939E+03  0.40000000000E+03 0.  1.
<mgrwt>
<rscale>  2 0.61354076E+03</rscale>
<asrwt>0</asrwt>
<pdfrwt beam="1">  1       21 0.16359396E+00 0.61354076E+03</pdfrwt>
<pdfrwt beam="2">  1       21 0.75239534E-01 0.61354076E+03</pdfrwt>
<totfact> 0.28735752E+02</totfact>
</mgrwt>
</event>
<event>
 4    1  0.4821294E-002  0.4090144E+03  0.7818608E-02  0.1040702E+00
         21   -1    0    0  501  502  0.00000000000E+00  0.00000000000E+00  0.71563900462E+03  0.71563900462E+03  0.00000000000E+00 0.  1.
         21   -1    0    0  502  503 -0.00000000000E+00 -0.00000000000E+00 -0.23552238609E+03  0.23552238609E+03  0.00000000000E+00 0.  1.
    9000007    1    1    2  501    0 -0.85316415402E+02 -0.37230293437E+01  0.28111650815E+03  0.49630559420E+03  0.40000000000E+03 0.  1.
   -9000007    1    1    2    0  503  0.85316415402E+02  0.37230293437E+01  0.19900011038E+03  0.45485579651E+03  0.40000000000E+03 0.  1.
<mgrwt>
<rscale>  2 0.40901437E+03</rscale>
<asrwt>0</asrwt>
<pdfrwt beam="1">  1       21 0.11009831E+00 0.40901437E+03</pdfrwt>
<pdfrwt beam="2">  1       21 0.36234214E-01 0.40901437E+03</pdfrwt>
<totfact> 0.42465441E+03</totfact>
</mgrwt>
</event>
<event>
 4    1  0.4821294E-002  0.4191058E+03  0.7818608E-02  0.1037358E+00
         21   -1    0    0  503  502  0.00000000000E+00  0.00000000000E+00  0.55487720465E+03  0.55487720465E+03  0.00000000000E+00 0. -1.
         21   -1    0    0  501  503 -0.00000000000E+00 -0.00000000000E+00 -0.35398791977E+03  0.35398791977E+03  0.00000000000E+00 0. -1.
    9000007    1    1    2  501    0  0.87430775763E+02  0.89473445525E+02 -0.47329010414E+02  0.42176969217E+03  0.40000000000E+03 0. -1.
   -9000007    1    1    2    0  502 -0.87430775763E+02 -0.89473445525E+02  0.24821829529E+03  0.48709543226E+03  0.40000000000E+03 0. -1.
<mgrwt>
<rscale>  2 0.41910576E+03</rscale>
<asrwt>0</asrwt>
<pdfrwt beam="1">  1       21 0.85365723E-01 0.41910576E+03</pdfrwt>
<pdfrwt beam="2">  1       21 0.54459680E-01 0.41910576E+03</pdfrwt>
<totfact> 0.33329945E+03</totfact>
</mgrwt>
</event>
<event>
 4    1  0.4821294E-002  0.5147506E+03  0.7818608E-02  0.1009999E+00
         21   -1    0    0  503  502  0.00000000000E+00  0.00000000000E+00  0.19864374065E+04  0.19864374065E+04  0.00000000000E+00 0. -1.
         21   -1    0    0  501  503 -0.00000000000E+00 -0.00000000000E+00 -0.23727305568E+03  0.23727305568E+03  0.00000000000E+00 0. -1.
    9000007    1    1    2  501    0 -0.21615937855E+02  0.32326610263E+03  0.13888482326E+03  0.53315777778E+03  0.40000000000E+03 0. -1.
   -9000007    1    1    2    0  502  0.21615937855E+02 -0.32326610263E+03  0.16102795276E+04  0.16905526844E+04  0.40000000000E+03 0. -1.
<mgrwt>
<rscale>  2 0.51475064E+03</rscale>
<asrwt>0</asrwt>
<pdfrwt beam="1">  1       21 0.30560574E+00 0.51475064E+03</pdfrwt>
<pdfrwt beam="2">  1       21 0.36503548E-01 0.51475064E+03</pdfrwt>
<totfact> 0.17238652E+02</totfact>
</mgrwt>
</event>
<event>
 4    1  0.4821294E-002  0.4812643E+03  0.7818608E-02  0.1018788E+00
         21   -1    0    0  501  502  0.00000000000E+00  0.00000000000E+00  0.12983050836E+04  0.12983050836E+04  0.00000000000E+00 0. -1.
         21   -1    0    0  502  503 -0.00000000000E+00 -0.00000000000E+00 -0.20537022479E+03  0.20537022479E+03  0.00000000000E+00 0.  1.
    9000007    1    1    2  501    0 -0.12276779858E+03 -0.23778848972E+03  0.81893326710E+03  0.94987735744E+03  0.40000000000E+03 0. -1.
   -9000007    1    1    2    0  503  0.12276779858E+03  0.23778848972E+03  0.27400159169E+03  0.55379795094E+03  0.40000000000E+03 0.  1.
<mgrwt>
<rscale>  2 0.48126427E+03</rscale>
<asrwt>0</asrwt>
<pdfrwt beam="1">  1       21 0.19973924E+00 0.48126427E+03</pdfrwt>
<pdfrwt beam="2">  1       21 0.31595420E-01 0.48126427E+03</pdfrwt>
<totfact> 0.10699988E+03</totfact>
</mgrwt>
</event>
<event>
 4    1  0.4821294E-002  0.4000360E+03  0.7818608E-02  0.1043767E+00
         21   -1    0    0  503  502  0.00000000000E+00  0.00000000000E+00  0.29383181269E+03  0.29383181269E+03  0.00000000000E+00 0.  1.
         21   -1    0    0  501  503 -0.00000000000E+00 -0.00000000000E+00 -0.57535559692E+03  0.57535559692E+03  0.00000000000E+00 0.  1.
    9000007    1    1    2  501    0 -0.49909381715E+01  0.19794221470E+01 -0.24119675403E+03  0.46712386123E+03  0.40000000000E+03 0.  1.
   -9000007    1    1    2    0  502  0.49909381715E+01 -0.19794221470E+01 -0.40327030199E+02  0.40206354839E+03  0.40000000000E+03 0.  1.
<mgrwt>
<rscale>  2 0.40003603E+03</rscale>
<asrwt>0</asrwt>
<pdfrwt beam="1">  1       21 0.45204895E-01 0.40003603E+03</pdfrwt>
<pdfrwt beam="2">  1       21 0.88516244E-01 0.40003603E+03</pdfrwt>
<totfact> 0.45772103E+03</totfact>
</mgrwt>
</event>
<event>
 4    1  0.4821294E-002  0.4364727E+03  0.7818608E-02  0.1031835E+00
         21   -1    0    0  503  502  0.00000000000E+00  0.00000000000E+00  0.27513300517E+03  0.27513300517E+03  0.00000000000E+00 0.  1.
         21   -1    0    0  501  503 -0.00000000000E+00 -0.00000000000E+00 -0.71673596542E+03  0.71673596542E+03  0.00000000000E+00 0.  1.
    9000007    1    1    2  501    0  0.16586929854E+03  0.54734080593E+02 -0.12946107548E+03  0.45526762881E+03  0.40000000000E+03 0.  1.
   -9000007    1    1    2    0  502 -0.16586929854E+03 -0.54734080593E+02 -0.31214188477E+03  0.53660134179E+03  0.40000000000E+03 0.  1.
<mgrwt>
<rscale>  2 0.43647273E+03</rscale>
<asrwt>0</asrwt>
<pdfrwt beam="1">  1       21 0.42328155E-01 0.43647273E+03</pdfrwt>
<pdfrwt beam="2">  1       21 0.11026707E+00 0.43647273E+03</pdfrwt>
<totfact> 0.30439652E+03</totfact>
</mgrwt>
</event>
<event>
 4    1  0.4821294E-002  0.4430543E+03  0.7818608E-02  0.1029814E+00
         21   -1    0    0  501  502  0.00000000000E+00  0.00000000000E+00  0.30943445875E+03  0.30943445875E+03  0.00000000000E+00 0. -1.
         21   -1    0    0  502  503 -0.00000000000E+00 -0.00000000000E+00 -0.71954070333E+03  0.71954070333E+03  0.00000000000E+00 0. -1.
    9000007    1    1    2  501    0 -0.14777316690E+01 -0.19051226748E+03 -0.38205696220E+03  0.58503387092E+03  0.40000000000E+03 0. -1.
   -9000007    1    1    2    0  503  0.14777316690E+01  0.19051226748E+03 -0.28049282382E+02  0.44394129116E+03  0.40000000000E+03 0. -1.
<mgrwt>
<rscale>  2 0.44305429E+03</rscale>
<asrwt>0</asrwt>
<pdfrwt beam="1">  1       21 0.47605302E-01 0.44305429E+03</pdfrwt>
<pdfrwt beam="2">  1       21 0.11069857E+00 0.44305429E+03</pdfrwt>
<totfact> 0.23515635E+03</totfact>
</mgrwt>
</event>
<event>
 4    1  0.4821294E-002  0.4982035E+03  0.7818608E-02  0.1014249E+00
         21   -1    0    0  501  502  0.00000000000E+00  0.00000000000E+00  0.10696980185E+04  0.10696980185E+04  0.00000000000E+00 0.  1.
         21   -1    0    0  502  503 -0.00000000000E+00 -0.00000000000E+00 -0.23231408347E+03  0.23231408347E+03  0.00000000000E+00 0.  1.
    9000007    1    1    2  501    0 -0.29682373683E+03  0.10121061037E+02  0.39610490170E+03  0.63647926892E+03  0.40000000000E+03 0.  1.
   -9000007    1    1    2    0  503  0.29682373683E+03 -0.10121061037E+02  0.44127903334E+03  0.66553283307E+03  0.40000000000E+03 0.  1.
<mgrwt>
<rscale>  2 0.49820354E+03</rscale>
<asrwt>0</asrwt>
<pdfrwt beam="1">  1       21 0.16456892E+00 0.49820354E+03</pdfrwt>
<pdfrwt beam="2">  1       21 0.35740629E-01 0.49820354E+03</pdfrwt>
<totfact> 0.14655398E+03</totfact>
</mgrwt>
</event>
<event>
 4    1  0.4821294E-002  0.4050926E+03  0.7818608E-02  0.1042030E+00
         21   -1    0    0  501  502  0.00000000000E+00  0.00000000000E+00  0.36094080634E+03  0.36094080634E+03  0.00000000000E+00 0.  1.
         21   -1    0    0  502  503 -0.00000000000E+00 -0.00000000000E+00 -0.52166394694E+03  0.52166394694E+03  0.00000000000E+00 0.  1.
    9000007    1    1    2  501    0 -0.17084072882E+02 -0.61710529929E+02  0.77813690105E+02  0.41249851566E+03  0.40000000000E+03 0.  1.
   -9000007    1    1    2    0  503  0.17084072882E+02  0.61710529929E+02 -0.23853683070E+03  0.47010623762E+03  0.40000000000E+03 0.  1.
<mgrwt>
<rscale>  2 0.40509265E+03</rscale>
<asrwt>0</asrwt>
<pdfrwt beam="1">  1       21 0.55529355E-01 0.40509265E+03</pdfrwt>
<pdfrwt beam="2">  1       21 0.80255992E-01 0.40509265E+03</pdfrwt>
<totfact> 0.37083571E+03</totfact>
</mgrwt>
</event>
<event>
 4    1  0.4821294E-002  0.5240740E+03  0.7818608E-02  0.1007679E+00
         21   -1    0    0  501  502  0.00000000000E+00  0.00000000000E+00  0.33967909744E+03  0.33967909744E+03  0.00000000000E+00 0. -1.
         21   -1    0    0  502  503 -0.00000000000E+00 -0.00000000000E+00 -0.86453452207E+03  0.86453452207E+03  0.00000000000E+00 0. -1.
    9000007    1    1    2  501    0 -0.31742817744E+03  0.11786834311E+03 -0.10923180991E+03  0.53533651327E+03  0.40000000000E+03 0. -1.
   -9000007    1    1    2    0  503  0.31742817744E+03 -0.11786834311E+03 -0.41562361472E+03  0.66887710624E+03  0.40000000000E+03 0. -1.
<mgrwt>
<rscale>  2 0.52407403E+03</rscale>
<asrwt>0</asrwt>
<pdfrwt beam="1">  1       21 0.52258324E-01 0.52407403E+03</pdfrwt>
<pdfrwt beam="2">  1       21 0.13300531E+00 0.52407403E+03</pdfrwt>
<totfact> 0.11717272E+03</totfact>
</mgrwt>
</event>
<event>
 4    1  0.4821294E-002  0.4237193E+03  0.7818608E-02  0.1035863E+00
         21   -1    0    0  501  502  0.00000000000E+00  0.00000000000E+00  0.15547535189E+03  0.15547535189E+03  0.00000000000E+00 0.  1.
         21   -1    0    0  502  503 -0.00000000000E+00 -0.00000000000E+00 -0.11766021254E+04  0.11766021254E+04  0.00000000000E+00 0.  1.
    9000007    1    1    2  501    0  0.13222444878E+03 -0.45329551310E+02 -0.41983453474E+03  0.59648898534E+03  0.40000000000E+03 0.  1.
   -9000007    1    1    2    0  503 -0.13222444878E+03  0.45329551310E+02 -0.60129223882E+03  0.73558849199E+03  0.40000000000E+03 0.  1.
<mgrwt>
<rscale>  2 0.42371933E+03</rscale>
<asrwt>0</asrwt>
<pdfrwt beam="1">  1       21 0.23919283E-01 0.42371933E+03</pdfrwt>
<pdfrwt beam="2">  1       21 0.18101572E+00 0.42371933E+03</pdfrwt>
<totfact> 0.25467469E+03</totfact>
</mgrwt>
</event>
<event>
 4    1  0.4821294E-002  0.5562007E+03  0.7818608E-02  0.1000069E+00
         21   -1    0    0  501  502  0.00000000000E+00  0.00000000000E+00  0.29906611407E+03  0.29906611407E+03  0.00000000000E+00 0. -1.
         21   -1    0    0  502  503 -0.00000000000E+00 -0.00000000000E+00 -0.10415630453E+04  0.10415630453E+04  0.00000000000E+00 0.  1.
    9000007    1    1    2  501    0  0.38217271582E+03 -0.57473854233E+02 -0.31572802524E+03  0.63956501981E+03  0.40000000000E+03 0.  1.
   -9000007    1    1    2    0  503 -0.38217271582E+03  0.57473854233E+02 -0.42676890594E+03  0.70106413952E+03  0.40000000000E+03 0.  1.
<mgrwt>
<rscale>  2 0.55620071E+03</rscale>
<asrwt>0</asrwt>
<pdfrwt beam="1">  1       21 0.46010172E-01 0.55620071E+03</pdfrwt>
<pdfrwt beam="2">  1       21 0.16024047E+00 0.55620071E+03</pdfrwt>
<totfact> 0.91695319E+02</totfact>
</mgrwt>
</event>
<event>
 4    1  0.4821294E-002  0.4210420E+03  0.7818608E-02  0.1036728E+00
         21   -1    0    0  503  502  0.00000000000E+00  0.00000000000E+00  0.62172927809E+03  0.62172927809E+03  0.00000000000E+00 0.  1.
         21   -1    0    0  501  503 -0.00000000000E+00 -0.00000000000E+00 -0.45467424391E+03  0.45467424391E+03  0.00000000000E+00 0. -1.
    9000007    1    1    2  501    0 -0.10961084910E+03  0.72538693457E+02 -0.24512036381E+03  0.48719646247E+03  0.40000000000E+03 0. -1.
   -9000007    1    1    2    0  502  0.10961084910E+03 -0.72538693457E+02  0.41217539799E+03  0.58920705953E+03  0.40000000000E+03 0.  1.
<mgrwt>
<rscale>  2 0.42104204E+03</rscale>
<asrwt>0</asrwt>
<pdfrwt beam="1">  1       21 0.95650658E-01 0.42104204E+03</pdfrwt>
<pdfrwt beam="2">  1       21 0.69949884E-01 0.42104204E+03</pdfrwt>
<totfact> 0.14672123E+03</totfact>
</mgrwt>
</event>
<event>
 4    1  0.4821294E-002  0.6420348E+03  0.7818608E-02  0.9821841E-01
         21   -1    0    0  501  502  0.00000000000E+00  0.00000000000E+00  0.11882272305E+03  0.11882272305E+03  0.00000000000E+00 0.  1.
         21   -1    0    0  502  503 -0.00000000000E+00 -0.00000000000E+00 -0.34705423824E+04  0.34705423824E+04  0.00000000000E+00 0. -1.
    9000007    1    1    2  501    0  0.33206139981E+03  0.37675449497E+03 -0.17123600223E+04  0.18287661329E+04  0.40000000000E+03 0.  1.
   -9000007    1    1    2    0  503 -0.33206139981E+03 -0.37675449497E+03 -0.16393596371E+04  0.17605989726E+04  0.40000000000E+03 0. -1.
<mgrwt>
<rscale>  2 0.64203483E+03</rscale>
<asrwt>0</asrwt>
<pdfrwt beam="1">  1       21 0.18280416E-01 0.64203483E+03</pdfrwt>
<pdfrwt beam="2">  1       21 0.53392968E+00 0.64203483E+03</pdfrwt>
<totfact> 0.19176975E+01</totfact>
</mgrwt>
</event>
<event>
 4    1  0.4821294E-002  0.8361904E+03  0.7818608E-02  0.9509061E-01
         21   -1    0    0  501  502  0.00000000000E+00  0.00000000000E+00  0.49761568199E+03  0.49761568199E+03  0.00000000000E+00 0. -1.
         21   -1    0    0  502  503 -0.00000000000E+00 -0.00000000000E+00 -0.20688128643E+04  0.20688128643E+04  0.00000000000E+00 0.  1.
    9000007    1    1    2  501    0 -0.28707407880E+03 -0.67587193272E+03 -0.58791601939E+02  0.83825464426E+03  0.40000000000E+03 0. -1.
   -9000007    1    1    2    0  503  0.28707407880E+03  0.67587193272E+03 -0.15124055804E+04  0.17281739020E+04  0.40000000000E+03 0.  1.
<mgrwt>
<rscale>  2 0.83619041E+03</rscale>
<asrwt>0</asrwt>
<pdfrwt beam="1">  1       21 0.76556258E-01 0.83619041E+03</pdfrwt>
<pdfrwt beam="2">  1       21 0.31827891E+00 0.83619041E+03</pdfrwt>
<totfact> 0.25130994E+01</totfact>
</mgrwt>
</event>
<event>
 4    1  0.4821294E-002  0.5979602E+03  0.7818608E-02  0.9909647E-01
         21   -1    0    0  501  502  0.00000000000E+00  0.00000000000E+00  0.48712256271E+03  0.48712256271E+03  0.00000000000E+00 0. -1.
         21   -1    0    0  502  503 -0.00000000000E+00 -0.00000000000E+00 -0.82152767874E+03  0.82152767874E+03  0.00000000000E+00 0.  1.
    9000007    1    1    2  501    0  0.35400698826E+03  0.26876660508E+03  0.46353567839E+02  0.59975419048E+03  0.40000000000E+03 0. -1.
   -9000007    1    1    2    0  503 -0.35400698826E+03 -0.26876660508E+03 -0.38075868386E+03  0.70889605097E+03  0.40000000000E+03 0.  1.
<mgrwt>
<rscale>  2 0.59796023E+03</rscale>
<asrwt>0</asrwt>
<pdfrwt beam="1">  1       21 0.74941935E-01 0.59796023E+03</pdfrwt>
<pdfrwt beam="2">  1       21 0.12638887E+00 0.59796023E+03</pdfrwt>
<totfact> 0.58647649E+02</totfact>
</mgrwt>
</event>
<event>
 4    1  0.4821294E-002  0.5179130E+03  0.7818608E-02  0.1009206E+00
         21   -1    0    0  501  502  0.00000000000E+00  0.00000000000E+00  0.22084250711E+04  0.22084250711E+04  0.00000000000E+00 0.  1.
         21   -1    0    0  502  503 -0.00000000000E+00 -0.00000000000E+00 -0.12829737189E+03  0.12829737189E+03  0.00000000000E+00 0.  1.
    9000007    1    1    2  501    0 -0.11651058528E+03 -0.30766725596E+03  0.13097966359E+04  0.14084747368E+04  0.40000000000E+03 0.  1.
   -9000007    1    1    2    0  503  0.11651058528E+03  0.30766725596E+03  0.77033106330E+03  0.92824770614E+03  0.40000000000E+03 0.  1.
<mgrwt>
<rscale>  2 0.51791298E+03</rscale>
<asrwt>0</asrwt>
<pdfrwt beam="1">  1       21 0.33975768E+00 0.51791298E+03</pdfrwt>
<pdfrwt beam="2">  1       21 0.19738059E-01 0.51791298E+03</pdfrwt>
<totfact> 0.35800017E+02</totfact>
</mgrwt>
</event>
<event>
 4    1  0.4821294E-002  0.4788010E+03  0.7818608E-02  0.1019465E+00
         21   -1    0    0  501  502  0.00000000000E+00  0.00000000000E+00  0.14851642113E+04  0.14851642113E+04  0.00000000000E+00 0. -1.
         21   -1    0    0  502  503 -0.00000000000E+00 -0.00000000000E+00 -0.27046319163E+03  0.27046319163E+03  0.00000000000E+00 0. -1.
    9000007    1    1    2  501    0 -0.26024911198E+03  0.38997457113E+02  0.11824854842E+04  0.12757438310E+04  0.40000000000E+03 0. -1.
   -9000007    1    1    2    0  503  0.26024911198E+03 -0.38997457113E+02  0.32215535521E+02  0.47988357200E+03  0.40000000000E+03 0. -1.
<mgrwt>
<rscale>  2 0.47880100E+03</rscale>
<asrwt>0</asrwt>
<pdfrwt beam="1">  1       21 0.22848680E+00 0.47880100E+03</pdfrwt>
<pdfrwt beam="2">  1       21 0.41609723E-01 0.47880100E+03</pdfrwt>
<totfact> 0.39789800E+02</totfact>
</mgrwt>
</event>
<event>
 4    1  0.4821294E-002  0.4018719E+03  0.7818608E-02  0.1043133E+00
         21   -1    0    0  503  502  0.00000000000E+00  0.00000000000E+00  0.64381359811E+03  0.64381359811E+03  0.00000000000E+00 0. -1.
         21   -1    0    0  501  503 -0.00000000000E+00 -0.00000000000E+00 -0.53899164950E+03  0.53899164950E+03  0.00000000000E+00 0. -1.
    9000007    1    1    2  501    0  0.35459334819E+02  0.15610130521E+02 -0.37999808078E+03  0.55308189447E+03  0.40000000000E+03 0. -1.
   -9000007    1    1    2    0  502 -0.35459334819E+02 -0.15610130521E+02  0.48482002938E+03  0.62972335314E+03  0.40000000000E+03 0. -1.
<mgrwt>
<rscale>  2 0.40187192E+03</rscale>
<asrwt>0</asrwt>
<pdfrwt beam="1">  1       21 0.99048246E-01 0.40187192E+03</pdfrwt>
<pdfrwt beam="2">  1       21 0.82921792E-01 0.40187192E+03</pdfrwt>
<totfact> 0.92266874E+02</totfact>
</mgrwt>
</event>
<event>
 4    1  0.4821294E-002  0.4434404E+03  0.7818608E-02  0.1029696E+00
         21   -1    0    0  503  502  0.00000000000E+00  0.00000000000E+00  0.16505545331E+04  0.16505545331E+04  0.00000000000E+00 0.  1.
         21   -1    0    0  501  503 -0.00000000000E+00 -0.00000000000E+00 -0.20782410553E+03  0.20782410553E+03  0.00000000000E+00 0. -1.
    9000007    1    1    2  501    0 -0.14250173247E+03 -0.12779935706E+03  0.11436270100E+03  0.45795004837E+03  0.40000000000E+03 0. -1.
   -9000007    1    1    2    0  502  0.14250173247E+03  0.12779935706E+03  0.13283677266E+04  0.14004285903E+04  0.40000000000E+03 0.  1.
<mgrwt>
<rscale>  2 0.44344044E+03</rscale>
<asrwt>0</asrwt>
<pdfrwt beam="1">  1       21 0.25393146E+00 0.44344044E+03</pdfrwt>
<pdfrwt beam="2">  1       21 0.31972940E-01 0.44344044E+03</pdfrwt>
<totfact> 0.48155572E+02</totfact>
</mgrwt>
</event>
<event>
 4    1  0.4821294E-002  0.4806229E+03  0.7818608E-02  0.1018964E+00
         21   -1    0    0  503  502  0.00000000000E+00  0.00000000000E+00  0.22693298901E+03  0.22693298901E+03  0.00000000000E+00 0. -1.
         21   -1    0    0  501  503 -0.00000000000E+00 -0.00000000000E+00 -0.13756947798E+04  0.13756947798E+04  0.00000000000E+00 0. -1.
    9000007    1    1    2  501    0  0.17237578295E+02 -0.26589698495E+03 -0.16573237756E+03  0.50839508424E+03  0.40000000000E+03 0. -1.
   -9000007    1    1    2    0  502 -0.17237578295E+02  0.26589698495E+03 -0.98302941324E+03  0.10942326846E+04  0.40000000000E+03 0. -1.
<mgrwt>
<rscale>  2 0.48062287E+03</rscale>
<asrwt>0</asrwt>
<pdfrwt beam="1">  1       21 0.34912768E-01 0.48062287E+03</pdfrwt>
<pdfrwt beam="2">  1       21 0.21164535E+00 0.48062287E+03</pdfrwt>
<totfact> 0.73049723E+02</totfact>
</mgrwt>
</event>
<event>
 4    1  0.4821294E-002  0.4116086E+03  0.7818608E-02  0.1039833E+00
         21   -1    0    0  501  502  0.00000000000E+00  0.00000000000E+00  0.61905199173E+03  0.61905199173E+03  0.00000000000E+00 0. -1.
         21   -1    0    0  502  503 -0.00000000000E+00 -0.00000000000E+00 -0.27482746575E+03  0.27482746575E+03  0.00000000000E+00 0. -1.
    9000007    1    1    2  501    0 -0.82894678064E+01  0.96710485850E+02  0.20100218463E+03  0.45806496436E+03  0.40000000000E+03 0. -1.
   -9000007    1    1    2    0  503  0.82894678064E+01 -0.96710485850E+02  0.14322234136E+03  0.43581449312E+03  0.40000000000E+03 0. -1.
<mgrwt>
<rscale>  2 0.41160859E+03</rscale>
<asrwt>0</asrwt>
<pdfrwt beam="1">  1       21 0.95238768E-01 0.41160859E+03</pdfrwt>
<pdfrwt beam="2">  1       21 0.42281149E-01 0.41160859E+03</pdfrwt>
<totfact> 0.44026716E+03</totfact>
</mgrwt>
</event>
<event>
 4    1  0.4821294E-002  0.4073434E+03  0.7818608E-02  0.1041266E+00
         21   -1    0    0  503  502  0.00000000000E+00  0.00000000000E+00  0.12095922166E+03  0.12095922166E+03  0.00000000000E+00 0. -1.
         21   -1    0    0  501  503 -0.00000000000E+00 -0.00000000000E+00 -0.14873064824E+04  0.14873064824E+04  0.00000000000E+00 0. -1.
    9000007    1    1    2  501    0 -0.76949941412E+02  0.27188387282E+01 -0.45905390340E+03  0.61372564863E+03  0.40000000000E+03 0.  1.
   -9000007    1    1    2    0  502  0.76949941412E+02 -0.27188387282E+01 -0.90729335737E+03  0.99454005545E+03  0.40000000000E+03 0.  1.
<mgrwt>
<rscale>  2 0.40734345E+03</rscale>
<asrwt>0</asrwt>
<pdfrwt beam="1">  1       21 0.18609110E-01 0.40734345E+03</pdfrwt>
<pdfrwt beam="2">  1       21 0.22881639E+00 0.40734345E+03</pdfrwt>
<totfact> 0.20060136E+03</totfact>
</mgrwt>
</event>
<event>
 4    1  0.4821294E-002  0.5726534E+03  0.7818608E-02  0.9963824E-01
         21   -1    0    0  501  502  0.00000000000E+00  0.00000000000E+00  0.34421996560E+03  0.34421996560E+03  0.00000000000E+00 0. -1.
         21   -1    0    0  502  503 -0.00000000000E+00 -0.00000000000E+00 -0.12292774846E+04  0.12292774846E+04  0.00000000000E+00 0.  1.
    9000007    1    1    2  501    0  0.21677821601E+03 -0.34776306465E+03 -0.69335207234E+02  0.57683560486E+03  0.40000000000E+03 0. -1.
   -9000007    1    1    2    0  503 -0.21677821601E+03  0.34776306465E+03 -0.81572231181E+03  0.99666184539E+03  0.40000000000E+03 0.  1.
<mgrwt>
<rscale>  2 0.57265342E+03</rscale>
<asrwt>0</asrwt>
<pdfrwt beam="1">  1       21 0.52956918E-01 0.57265342E+03</pdfrwt>
<pdfrwt beam="2">  1       21 0.18911961E+00 0.57265342E+03</pdfrwt>
<totfact> 0.41719813E+02</totfact>
</mgrwt>
</event>
<event>
 4    1  0.4821294E-002  0.4888240E+03  0.7818608E-02  0.1016738E+00
         21   -1    0    0  503  502  0.00000000000E+00  0.00000000000E+00  0.10004761225E+04  0.10004761225E+04  0.00000000000E+00 0. -1.
         21   -1    0    0  501  503 -0.00000000000E+00 -0.00000000000E+00 -0.31275395038E+03  0.31275395038E+03  0.00000000000E+00 0. -1.
    9000007    1    1    2  501    0 -0.57230682055E+02 -0.27508831310E+03  0.24643592995E+02  0.48944482595E+03  0.40000000000E+03 0.  1.
   -9000007    1    1    2    0  502  0.57230682055E+02  0.27508831310E+03  0.66307857910E+03  0.82378524691E+03  0.40000000000E+03 0.  1.
<mgrwt>
<rscale>  2 0.48882403E+03</rscale>
<asrwt>0</asrwt>
<pdfrwt beam="1">  1       21 0.15391940E+00 0.48882403E+03</pdfrwt>
<pdfrwt beam="2">  1       21 0.48115993E-01 0.48882403E+03</pdfrwt>
<totfact> 0.95644280E+02</totfact>
</mgrwt>
</event>
<event>
 4    1  0.4821294E-002  0.6060425E+03  0.7818608E-02  0.9892948E-01
         21   -1    0    0  503  502  0.00000000000E+00  0.00000000000E+00  0.48148131881E+03  0.48148131881E+03  0.00000000000E+00 0. -1.
         21   -1    0    0  501  503 -0.00000000000E+00 -0.00000000000E+00 -0.10579320864E+04  0.10579320864E+04  0.00000000000E+00 0. -1.
    9000007    1    1    2  501    0  0.45195021152E+03  0.55032305446E+02 -0.69474715284E+03  0.92193337868E+03  0.40000000000E+03 0. -1.
   -9000007    1    1    2    0  502 -0.45195021152E+03 -0.55032305446E+02  0.11829638530E+03  0.61748002649E+03  0.40000000000E+03 0. -1.
<mgrwt>
<rscale>  2 0.60604253E+03</rscale>
<asrwt>0</asrwt>
<pdfrwt beam="1">  1       21 0.74074050E-01 0.60604253E+03</pdfrwt>
<pdfrwt beam="2">  1       21 0.16275878E+00 0.60604253E+03</pdfrwt>
<totfact> 0.30299154E+02</totfact>
</mgrwt>
</event>
<event>
 4    1  0.4821294E-002  0.4148927E+03  0.7818608E-02  0.1038741E+00
         21   -1    0    0  501  502  0.00000000000E+00  0.00000000000E+00  0.32940160325E+03  0.32940160325E+03  0.00000000000E+00 0.  1.
         21   -1    0    0  502  503 -0.00000000000E+00 -0.00000000000E+00 -0.68118132953E+03  0.68118132953E+03  0.00000000000E+00 0.  1.
    9000007    1    1    2  501    0 -0.53993972610E+02 -0.96023864593E+02  0.67933586532E+02  0.42041753511E+03  0.40000000000E+03 0.  1.
   -9000007    1    1    2    0  503  0.53993972610E+02  0.96023864593E+02 -0.41971331281E+03  0.59016539766E+03  0.40000000000E+03 0.  1.
<mgrwt>
<rscale>  2 0.41489267E+03</rscale>
<asrwt>0</asrwt>
<pdfrwt beam="1">  1       21 0.50677170E-01 0.41489267E+03</pdfrwt>
<pdfrwt beam="2">  1       21 0.10479713E+00 0.41489267E+03</pdfrwt>
<totfact> 0.23839723E+03</totfact>
</mgrwt>
</event>
<event>
 4    1  0.4821294E-002  0.5527369E+03  0.7818608E-02  0.1000862E+00
         21   -1    0    0  501  502  0.00000000000E+00  0.00000000000E+00  0.14511117679E+04  0.14511117679E+04  0.00000000000E+00 0.  1.
         21   -1    0    0  502  503 -0.00000000000E+00 -0.00000000000E+00 -0.79902959339E+03  0.79902959339E+03  0.00000000000E+00 0.  1.
    9000007    1    1    2  501    0  0.22550316359E+02  0.38080115621E+03  0.12915749795E+04  0.14048786300E+04  0.40000000000E+03 0.  1.
   -9000007    1    1    2    0  503 -0.22550316359E+02 -0.38080115621E+03 -0.63949280497E+03  0.84526273132E+03  0.40000000000E+03 0.  1.
<mgrwt>
<rscale>  2 0.55273686E+03</rscale>
<asrwt>0</asrwt>
<pdfrwt beam="1">  1       21 0.22324796E+00 0.55273686E+03</pdfrwt>
<pdfrwt beam="2">  1       21 0.12292763E+00 0.55273686E+03</pdfrwt>
<totfact> 0.34804061E+01</totfact>
</mgrwt>
</event>
<event>
 4    1  0.4821294E-002  0.5053671E+03  0.7818608E-02  0.1012387E+00
         21   -1    0    0  501  502  0.00000000000E+00  0.00000000000E+00  0.49405300003E+03  0.49405300003E+03  0.00000000000E+00 0. -1.
         21   -1    0    0  502  503 -0.00000000000E+00 -0.00000000000E+00 -0.58207499855E+03  0.58207499855E+03  0.00000000000E+00 0. -1.
    9000007    1    1    2  501    0  0.28730448571E+03  0.11336698559E+03  0.13597985195E+03  0.52334162941E+03  0.40000000000E+03 0. -1.
   -9000007    1    1    2    0  503 -0.28730448571E+03 -0.11336698559E+03 -0.22400185047E+03  0.55278636918E+03  0.40000000000E+03 0. -1.
<mgrwt>
<rscale>  2 0.50536713E+03</rscale>
<asrwt>0</asrwt>
<pdfrwt beam="1">  1       21 0.76008154E-01 0.50536713E+03</pdfrwt>
<pdfrwt beam="2">  1       21 0.89550000E-01 0.50536713E+03</pdfrwt>
<totfact> 0.13766286E+03</totfact>
</mgrwt>
</event>
<event>
 4    1  0.4821294E-002  0.5370215E+03  0.7818608E-02  0.1004543E+00
         21   -1    0    0  503  502  0.00000000000E+00  0.00000000000E+00  0.90333893291E+03  0.90333893291E+03  0.00000000000E+00 0. -1.
         21   -1    0    0  501  503 -0.00000000000E+00 -0.00000000000E+00 -0.42781262763E+03  0.42781262763E+03  0.00000000000E+00 0.  1.
    9000007    1    1    2  501    0  0.30993594680E+03 -0.17981031324E+03  0.57304379494E+03  0.78534784064E+03  0.40000000000E+03 0. -1.
   -9000007    1    1    2    0  502 -0.30993594680E+03  0.17981031324E+03 -0.97517489658E+02  0.54580371990E+03  0.40000000000E+03 0.  1.
<mgrwt>
<rscale>  2 0.53702145E+03</rscale>
<asrwt>0</asrwt>
<pdfrwt beam="1">  1       21 0.13897522E+00 0.53702145E+03</pdfrwt>
<pdfrwt beam="2">  1       21 0.65817327E-01 0.53702145E+03</pdfrwt>
<totfact> 0.62644519E+02</totfact>
</mgrwt>
</event>
<event>
 4    1  0.4821294E-002  0.4616138E+03  0.7818608E-02  0.1024314E+00
         21   -1    0    0  501  502  0.00000000000E+00  0.00000000000E+00  0.61182377211E+03  0.61182377211E+03  0.00000000000E+00 0.  1.
         21   -1    0    0  502  503 -0.00000000000E+00 -0.00000000000E+00 -0.37409195278E+03  0.37409195278E+03  0.00000000000E+00 0. -1.
    9000007    1    1    2  501    0  0.17254634172E+03  0.15269261999E+03  0.24834906307E+03  0.52417986738E+03  0.40000000000E+03 0.  1.
   -9000007    1    1    2    0  503 -0.17254634172E+03 -0.15269261999E+03 -0.10617243746E+02  0.46173585750E+03  0.40000000000E+03 0. -1.
<mgrwt>
<rscale>  2 0.46161377E+03</rscale>
<asrwt>0</asrwt>
<pdfrwt beam="1">  1       21 0.94126734E-01 0.46161377E+03</pdfrwt>
<pdfrwt beam="2">  1       21 0.57552608E-01 0.46161377E+03</pdfrwt>
<totfact> 0.23109218E+03</totfact>
</mgrwt>
</event>
<event>
 4    1  0.4821294E-002  0.4499779E+03  0.7818608E-02  0.1027729E+00
         21   -1    0    0  501  502  0.00000000000E+00  0.00000000000E+00  0.43171950989E+03  0.43171950989E+03  0.00000000000E+00 0. -1.
         21   -1    0    0  502  503 -0.00000000000E+00 -0.00000000000E+00 -0.52772136982E+03  0.52772136982E+03  0.00000000000E+00 0.  1.
    9000007    1    1    2  501    0 -0.20609902236E+03  0.18288626815E+01 -0.20801282289E+03  0.49573126414E+03  0.40000000000E+03 0.  1.
   -9000007    1    1    2    0  503  0.20609902236E+03 -0.18288626815E+01  0.11201096296E+03  0.46370961558E+03  0.40000000000E+03 0.  1.
<mgrwt>
<rscale>  2 0.44997795E+03</rscale>
<asrwt>0</asrwt>
<pdfrwt beam="1">  1       21 0.66418386E-01 0.44997795E+03</pdfrwt>
<pdfrwt beam="2">  1       21 0.81187903E-01 0.44997795E+03</pdfrwt>
<totfact> 0.23972601E+03</totfact>
</mgrwt>
</event>
<event>
 4    1  0.4821294E-002  0.5027498E+03  0.7818608E-02  0.1013064E+00
         21   -1    0    0  503  502  0.00000000000E+00  0.00000000000E+00  0.23482563562E+04  0.23482563562E+04  0.00000000000E+00 0. -1.
         21   -1    0    0  501  503 -0.00000000000E+00 -0.00000000000E+00 -0.20544914220E+03  0.20544914220E+03  0.00000000000E+00 0. -1.
    9000007    1    1    2  501    0  0.21621670383E+03 -0.21449394906E+03  0.19038134871E+03  0.53758941129E+03  0.40000000000E+03 0. -1.
   -9000007    1    1    2    0  502 -0.21621670383E+03  0.21449394906E+03  0.19524258653E+04  0.20161160871E+04  0.40000000000E+03 0. -1.
<mgrwt>
<rscale>  2 0.50274976E+03</rscale>
<asrwt>0</asrwt>
<pdfrwt beam="1">  1       21 0.36127019E+00 0.50274976E+03</pdfrwt>
<pdfrwt beam="2">  1       21 0.31607562E-01 0.50274976E+03</pdfrwt>
<totfact> 0.10604667E+02</totfact>
</mgrwt>
</event>
<event>
 4    1  0.4821294E-002  0.4960934E+03  0.7818608E-02  0.1014804E+00
         21   -1    0    0  501  502  0.00000000000E+00  0.00000000000E+00  0.25470462177E+03  0.25470462177E+03  0.00000000000E+00 0.  1.
         21   -1    0    0  502  503 -0.00000000000E+00 -0.00000000000E+00 -0.96857185140E+03  0.96857185140E+03  0.00000000000E+00 0.  1.
    9000007    1    1    2  501    0  0.15613099893E+03 -0.24845869828E+03 -0.32699403306E+03  0.59416640029E+03  0.40000000000E+03 0.  1.
   -9000007    1    1    2    0  503 -0.15613099893E+03  0.24845869828E+03 -0.38687319657E+03  0.62911007288E+03  0.40000000000E+03 0.  1.
<mgrwt>
<rscale>  2 0.49609335E+03</rscale>
<asrwt>0</asrwt>
<pdfrwt beam="1">  1       21 0.39185326E-01 0.49609335E+03</pdfrwt>
<pdfrwt beam="2">  1       21 0.14901105E+00 0.49609335E+03</pdfrwt>
<totfact> 0.15999973E+03</totfact>
</mgrwt>
</event>
<event>
 4    1  0.4821294E-002  0.4637248E+03  0.7818608E-02  0.1023706E+00
         21   -1    0    0  503  502  0.00000000000E+00  0.00000000000E+00  0.13100811511E+04  0.13100811511E+04  0.00000000000E+00 0. -1.
         21   -1    0    0  501  503 -0.00000000000E+00 -0.00000000000E+00 -0.24009170591E+03  0.24009170591E+03  0.00000000000E+00 0. -1.
    9000007    1    1    2  501    0  0.59622575908E+02 -0.22690487291E+03  0.97092967767E+03  0.10759856467E+04  0.40000000000E+03 0. -1.
   -9000007    1    1    2    0  502 -0.59622575908E+02  0.22690487291E+03  0.99059767553E+02  0.47418721035E+03  0.40000000000E+03 0. -1.
<mgrwt>
<rscale>  2 0.46372478E+03</rscale>
<asrwt>0</asrwt>
<pdfrwt beam="1">  1       21 0.20155094E+00 0.46372478E+03</pdfrwt>
<pdfrwt beam="2">  1       21 0.36937186E-01 0.46372478E+03</pdfrwt>
<totfact> 0.76498317E+02</totfact>
</mgrwt>
</event>
<event>
 4    1  0.4821294E-002  0.4123219E+03  0.7818608E-02  0.1039595E+00
         21   -1    0    0  503  502  0.00000000000E+00  0.00000000000E+00  0.28580520701E+04  0.28580520701E+04  0.00000000000E+00 0. -1.
         21   -1    0    0  501  503 -0.00000000000E+00 -0.00000000000E+00 -0.13107413122E+03  0.13107413122E+03  0.00000000000E+00 0. -1.
    9000007    1    1    2  501    0  0.93708452792E+02 -0.35043913384E+02  0.25894934536E+03  0.48689230170E+03  0.40000000000E+03 0. -1.
   -9000007    1    1    2    0  502 -0.93708452792E+02  0.35043913384E+02  0.24680285936E+04  0.25022338997E+04  0.40000000000E+03 0. -1.
<mgrwt>
<rscale>  2 0.41232190E+03</rscale>
<asrwt>0</asrwt>
<pdfrwt beam="1">  1       21 0.43970027E+00 0.41232190E+03</pdfrwt>
<pdfrwt beam="2">  1       21 0.20165253E-01 0.41232190E+03</pdfrwt>
<totfact> 0.84927805E+01</totfact>
</mgrwt>
</event>
<event>
 4    1  0.4821294E-002  0.4650754E+03  0.7818608E-02  0.1023319E+00
         21   -1    0    0  503  502  0.00000000000E+00  0.00000000000E+00  0.35574007753E+03  0.35574007753E+03  0.00000000000E+00 0. -1.
         21   -1    0    0  501  503 -0.00000000000E+00 -0.00000000000E+00 -0.90540250343E+03  0.90540250343E+03  0.00000000000E+00 0. -1.
    9000007    1    1    2  501    0 -0.15902426803E+03 -0.17608647550E+03 -0.63622026355E+03  0.78808082608E+03  0.40000000000E+03 0. -1.
   -9000007    1    1    2    0  502  0.15902426803E+03  0.17608647550E+03  0.86557837650E+02  0.47306175488E+03  0.40000000000E+03 0. -1.
<mgrwt>
<rscale>  2 0.46507544E+03</rscale>
<asrwt>0</asrwt>
<pdfrwt beam="1">  1       21 0.54729243E-01 0.46507544E+03</pdfrwt>
<pdfrwt beam="2">  1       21 0.13929269E+00 0.46507544E+03</pdfrwt>
<totfact> 0.96034723E+02</totfact>
</mgrwt>
</event>
<event>
 4    1  0.4821294E-002  0.5745636E+03  0.7818608E-02  0.9959631E-01
         21   -1    0    0  503  502  0.00000000000E+00  0.00000000000E+00  0.18080866869E+04  0.18080866869E+04  0.00000000000E+00 0.  1.
         21   -1    0    0  501  503 -0.00000000000E+00 -0.00000000000E+00 -0.18774127816E+03  0.18774127816E+03  0.00000000000E+00 0. -1.
    9000007    1    1    2  501    0  0.41040238680E+03 -0.41148438288E+02  0.64473837818E+03  0.86360343293E+03  0.40000000000E+03 0. -1.
   -9000007    1    1    2    0  502 -0.41040238680E+03  0.41148438288E+02  0.97560703054E+03  0.11322245321E+04  0.40000000000E+03 0.  1.
<mgrwt>
<rscale>  2 0.57456358E+03</rscale>
<asrwt>0</asrwt>
<pdfrwt beam="1">  1       21 0.27816717E+00 0.57456358E+03</pdfrwt>
<pdfrwt beam="2">  1       21 0.28883275E-01 0.57456358E+03</pdfrwt>
<totfact> 0.39382565E+02</totfact>
</mgrwt>
</event>
<event>
 4    1  0.4821294E-002  0.5686494E+03  0.7818608E-02  0.9972672E-01
         21   -1    0    0  501  502  0.00000000000E+00  0.00000000000E+00  0.86426693456E+03  0.86426693456E+03  0.00000000000E+00 0. -1.
         21   -1    0    0  502  503 -0.00000000000E+00 -0.00000000000E+00 -0.65515203201E+03  0.65515203201E+03  0.00000000000E+00 0. -1.
    9000007    1    1    2  501    0  0.33053420560E+03 -0.23261402413E+03  0.60210456076E+03  0.82818599806E+03  0.40000000000E+03 0. -1.
   -9000007    1    1    2    0  503 -0.33053420560E+03  0.23261402413E+03 -0.39298965822E+03  0.69123296851E+03  0.40000000000E+03 0. -1.
<mgrwt>
<rscale>  2 0.56864940E+03</rscale>
<asrwt>0</asrwt>
<pdfrwt beam="1">  1       21 0.13296414E+00 0.56864940E+03</pdfrwt>
<pdfrwt beam="2">  1       21 0.10079262E+00 0.56864940E+03</pdfrwt>
<totfact> 0.25736093E+02</totfact>
</mgrwt>
</event>
<event>
 4    1  0.4821294E-002  0.4638571E+03  0.7818608E-02  0.1023668E+00
         21   -1    0    0  503  502  0.00000000000E+00  0.00000000000E+00  0.81295695459E+03  0.81295695459E+03  0.00000000000E+00 0.  1.
         21   -1    0    0  501  503 -0.00000000000E+00 -0.00000000000E+00 -0.26466975912E+03  0.26466975912E+03  0.00000000000E+00 0. -1.
    9000007    1    1    2  501    0  0.22099708460E+03  0.79521420817E+02  0.27568180445E+03  0.53959598319E+03  0.40000000000E+03 0.  1.
   -9000007    1    1    2    0  502 -0.22099708460E+03 -0.79521420817E+02  0.27260539102E+03  0.53803073052E+03  0.40000000000E+03 0.  1.
<mgrwt>
<rscale>  2 0.46385706E+03</rscale>
<asrwt>0</asrwt>
<pdfrwt beam="1">  1       21 0.12507030E+00 0.46385706E+03</pdfrwt>
<pdfrwt beam="2">  1       21 0.40718425E-01 0.46385706E+03</pdfrwt>
<totfact> 0.23762056E+03</totfact>
</mgrwt>
</event>
<event>
 4    1  0.4821294E-002  0.4620894E+03  0.7818608E-02  0.1024177E+00
         21   -1    0    0  501  502  0.00000000000E+00  0.00000000000E+00  0.67910377601E+03  0.67910377601E+03  0.00000000000E+00 0. -1.
         21   -1    0    0  502  503 -0.00000000000E+00 -0.00000000000E+00 -0.40913074652E+03  0.40913074652E+03  0.00000000000E+00 0. -1.
    9000007    1    1    2  501    0  0.11997458144E+03 -0.19782000352E+03  0.39677556032E+03  0.60906280403E+03  0.40000000000E+03 0. -1.
   -9000007    1    1    2    0  503 -0.11997458144E+03  0.19782000352E+03 -0.12680253083E+03  0.47917171850E+03  0.40000000000E+03 0. -1.
<mgrwt>
<rscale>  2 0.46208944E+03</rscale>
<asrwt>0</asrwt>
<pdfrwt beam="1">  1       21 0.10447750E+00 0.46208944E+03</pdfrwt>
<pdfrwt beam="2">  1       21 0.62943192E-01 0.46208944E+03</pdfrwt>
<totfact> 0.14737658E+03</totfact>
</mgrwt>
</event>
<event>
 4    1  0.4821294E-002  0.4954382E+03  0.7818608E-02  0.1014977E+00
         21   -1    0    0  503  502  0.00000000000E+00  0.00000000000E+00  0.89869320286E+03  0.89869320286E+03  0.00000000000E+00 0.  1.
         21   -1    0    0  501  503 -0.00000000000E+00 -0.00000000000E+00 -0.29817059781E+03  0.29817059781E+03  0.00000000000E+00 0. -1.
    9000007    1    1    2  501    0  0.90530321081E+02 -0.27796280209E+03  0.12683519393E+03  0.51141590198E+03  0.40000000000E+03 0. -1.
   -9000007    1    1    2    0  502 -0.90530321081E+02  0.27796280209E+03  0.47368741112E+03  0.68544789870E+03  0.40000000000E+03 0.  1.
<mgrwt>
<rscale>  2 0.49543825E+03</rscale>
<asrwt>0</asrwt>
<pdfrwt beam="1">  1       21 0.13826049E+00 0.49543825E+03</pdfrwt>
<pdfrwt beam="2">  1       21 0.45872400E-01 0.49543825E+03</pdfrwt>
<totfact> 0.14100764E+03</totfact>
</mgrwt>
</event>
<event>
 4    1  0.4821294E-002  0.6299061E+03  0.7818608E-02  0.9845232E-01
         21   -1    0    0  501  502  0.00000000000E+00  0.00000000000E+00  0.32928447041E+04  0.32928447041E+04  0.00000000000E+00 0.  1.
         21   -1    0    0  502  503 -0.00000000000E+00 -0.00000000000E+00 -0.22333929659E+03  0.22333929659E+03  0.00000000000E+00 0. -1.
    9000007    1    1    2  501    0 -0.16079999166E+03  0.45926578701E+03  0.27277582903E+04  0.27995440684E+04  0.40000000000E+03 0.  1.
   -9000007    1    1    2    0  503  0.16079999166E+03 -0.45926578701E+03  0.34174711717E+03  0.71663993227E+03  0.40000000000E+03 0. -1.
<mgrwt>
<rscale>  2 0.62990610E+03</rscale>
<asrwt>0</asrwt>
<pdfrwt beam="1">  1       21 0.50659146E+00 0.62990610E+03</pdfrwt>
<pdfrwt beam="2">  1       21 0.34359894E-01 0.62990610E+03</pdfrwt>
<totfact> 0.88566931E+00</totfact>
</mgrwt>
</event>
<event>
 4    1  0.4821294E-002  0.4402765E+03  0.7818608E-02  0.1030662E+00
         21   -1    0    0  503  502  0.00000000000E+00  0.00000000000E+00  0.56853585042E+03  0.56853585042E+03  0.00000000000E+00 0. -1.
         21   -1    0    0  501  503 -0.00000000000E+00 -0.00000000000E+00 -0.34095364124E+03  0.34095364124E+03  0.00000000000E+00 0. -1.
    9000007    1    1    2  501    0  0.11946252397E+03  0.13990018715E+03  0.11275238877E+03  0.45448482722E+03  0.40000000000E+03 0. -1.
   -9000007    1    1    2    0  502 -0.11946252397E+03 -0.13990018715E+03  0.11482982041E+03  0.45500466443E+03  0.40000000000E+03 0. -1.
<mgrwt>
<rscale>  2 0.44027646E+03</rscale>
<asrwt>0</asrwt>
<pdfrwt beam="1">  1       21 0.87467053E-01 0.44027646E+03</pdfrwt>
<pdfrwt beam="2">  1       21 0.52454407E-01 0.44027646E+03</pdfrwt>
<totfact> 0.33860008E+03</totfact>
</mgrwt>
</event>
<event>
 4    1  0.4821294E-002  0.4366861E+03  0.7818608E-02  0.1031768E+00
         21   -1    0    0  503  502  0.00000000000E+00  0.00000000000E+00  0.99333353454E+03  0.99333353454E+03  0.00000000000E+00 0.  1.
         21   -1    0    0  501  503 -0.00000000000E+00 -0.00000000000E+00 -0.30230831844E+03  0.30230831844E+03  0.00000000000E+00 0.  1.
    9000007    1    1    2  501    0 -0.12077317140E+02  0.17478237932E+03 -0.45854373538E+02  0.43908696779E+03  0.40000000000E+03 0.  1.
   -9000007    1    1    2    0  502  0.12077317140E+02 -0.17478237932E+03  0.73687958964E+03  0.85655488519E+03  0.40000000000E+03 0.  1.
<mgrwt>
<rscale>  2 0.43668609E+03</rscale>
<asrwt>0</asrwt>
<pdfrwt beam="1">  1       21 0.15282054E+00 0.43668609E+03</pdfrwt>
<pdfrwt beam="2">  1       21 0.46508972E-01 0.43668609E+03</pdfrwt>
<totfact> 0.10711143E+03</totfact>
</mgrwt>
</event>
<event>
 4    1  0.4821294E-002  0.4097529E+03  0.7818608E-02  0.1040454E+00
         21   -1    0    0  503  502  0.00000000000E+00  0.00000000000E+00  0.13681059776E+04  0.13681059776E+04  0.00000000000E+00 0.  1.
         21   -1    0    0  501  503 -0.00000000000E+00 -0.00000000000E+00 -0.30863252904E+03  0.30863252904E+03  0.00000000000E+00 0.  1.
    9000007    1    1    2  501    0 -0.86380978600E+02 -0.20874871087E+02 -0.12094088471E+03  0.42722842988E+03  0.40000000000E+03 0.  1.
   -9000007    1    1    2    0  502  0.86380978600E+02  0.20874871087E+02  0.11804143333E+04  0.12495100768E+04  0.40000000000E+03 0.  1.
<mgrwt>
<rscale>  2 0.40975289E+03</rscale>
<asrwt>0</asrwt>
<pdfrwt beam="1">  1       21 0.21047784E+00 0.40975289E+03</pdfrwt>
<pdfrwt beam="2">  1       21 0.47481928E-01 0.40975289E+03</pdfrwt>
<totfact> 0.40820362E+02</totfact>
</mgrwt>
</event>
<event>
 4    1  0.4821294E-002  0.5815010E+03  0.7818608E-02  0.9944547E-01
         21   -1    0    0  503  502  0.00000000000E+00  0.00000000000E+00  0.94689968770E+03  0.94689968770E+03  0.00000000000E+00 0.  1.
         21   -1    0    0  501  503 -0.00000000000E+00 -0.00000000000E+00 -0.37909502149E+03  0.37909502149E+03  0.00000000000E+00 0.  1.
    9000007    1    1    2  501    0 -0.38050664819E+03  0.18264195884E+03  0.12422530822E+03  0.59462199896E+03  0.40000000000E+03 0.  1.
   -9000007    1    1    2    0  502  0.38050664819E+03 -0.18264195884E+03  0.44357935799E+03  0.73137271024E+03  0.40000000000E+03 0.  1.
<mgrwt>
<rscale>  2 0.58150098E+03</rscale>
<asrwt>0</asrwt>
<pdfrwt beam="1">  1       21 0.14567687E+00 0.58150098E+03</pdfrwt>
<pdfrwt beam="2">  1       21 0.58322311E-01 0.58150098E+03</pdfrwt>
<totfact> 0.70997962E+02</totfact>
</mgrwt>
</event>
<event>
 4    1  0.4821294E-002  0.4723115E+03  0.7818608E-02  0.1021270E+00
         21   -1    0    0  503  502  0.00000000000E+00  0.00000000000E+00  0.20321639272E+03  0.20321639272E+03  0.00000000000E+00 0.  1.
         21   -1    0    0  501  503 -0.00000000000E+00 -0.00000000000E+00 -0.13483295047E+04  0.13483295047E+04  0.00000000000E+00 0.  1.
    9000007    1    1    2  501    0 -0.94544725301E+02 -0.23267877718E+03 -0.90699854670E+03  0.10226067094E+04  0.40000000000E+03 0.  1.
   -9000007    1    1    2    0  502  0.94544725301E+02  0.23267877718E+03 -0.23811456532E+03  0.52893918804E+03  0.40000000000E+03 0.  1.
<mgrwt>
<rscale>  2 0.47231146E+03</rscale>
<asrwt>0</asrwt>
<pdfrwt beam="1">  1       21 0.31264060E-01 0.47231146E+03</pdfrwt>
<pdfrwt beam="2">  1       21 0.20743531E+00 0.47231146E+03</pdfrwt>
<totfact> 0.97552827E+02</totfact>
</mgrwt>
</event>
<event>
 4    1  0.4821294E-002  0.4007905E+03  0.7818608E-02  0.1043506E+00
         21   -1    0    0  503  502  0.00000000000E+00  0.00000000000E+00  0.60124007247E+03  0.60124007247E+03  0.00000000000E+00 0. -1.
         21   -1    0    0  501  503 -0.00000000000E+00 -0.00000000000E+00 -0.26755268076E+03  0.26755268076E+03  0.00000000000E+00 0. -1.
    9000007    1    1    2  501    0 -0.24840047719E+02 -0.40041693334E+01  0.18328115022E+03  0.44070970192E+03  0.40000000000E+03 0. -1.
   -9000007    1    1    2    0  502  0.24840047719E+02  0.40041693334E+01  0.15040624149E+03  0.42808305131E+03  0.40000000000E+03 0. -1.
<mgrwt>
<rscale>  2 0.40079055E+03</rscale>
<asrwt>0</asrwt>
<pdfrwt beam="1">  1       21 0.92498472E-01 0.40079055E+03</pdfrwt>
<pdfrwt beam="2">  1       21 0.41161951E-01 0.40079055E+03</pdfrwt>
<totfact> 0.50096672E+03</totfact>
</mgrwt>
</event>
<event>
 4    1  0.4821294E-002  0.4728431E+03  0.7818608E-02  0.1021121E+00
         21   -1    0    0  503  502  0.00000000000E+00  0.00000000000E+00  0.11150738032E+04  0.11150738032E+04  0.00000000000E+00 0.  1.
         21   -1    0    0  501  503 -0.00000000000E+00 -0.00000000000E+00 -0.20685089538E+03  0.20685089538E+03  0.00000000000E+00 0.  1.
    9000007    1    1    2  501    0 -0.67961981975E+02 -0.24282036997E+03  0.33836387831E+03  0.58143845522E+03  0.40000000000E+03 0.  1.
   -9000007    1    1    2    0  502  0.67961981975E+02  0.24282036997E+03  0.56985902948E+03  0.74048624332E+03  0.40000000000E+03 0.  1.
<mgrwt>
<rscale>  2 0.47284306E+03</rscale>
<asrwt>0</asrwt>
<pdfrwt beam="1">  1       21 0.17154981E+00 0.47284306E+03</pdfrwt>
<pdfrwt beam="2">  1       21 0.31823215E-01 0.47284306E+03</pdfrwt>
<totfact> 0.16623674E+03</totfact>
</mgrwt>
</event>
<event>
 4    1  0.4821294E-002  0.4477546E+03  0.7818608E-02  0.1028394E+00
         21   -1    0    0  501  502  0.00000000000E+00  0.00000000000E+00  0.52443233731E+03  0.52443233731E+03  0.00000000000E+00 0. -1.
         21   -1    0    0  502  503 -0.00000000000E+00 -0.00000000000E+00 -0.57349321976E+03  0.57349321976E+03  0.00000000000E+00 0. -1.
    9000007    1    1    2  501    0  0.15163751339E+03  0.13225053383E+03  0.29244727767E+03  0.53479860638E+03  0.40000000000E+03 0. -1.
   -9000007    1    1    2    0  503 -0.15163751339E+03 -0.13225053383E+03 -0.34150816012E+03  0.56312695069E+03  0.40000000000E+03 0. -1.
<mgrwt>
<rscale>  2 0.44775455E+03</rscale>
<asrwt>0</asrwt>
<pdfrwt beam="1">  1       21 0.80681898E-01 0.44775455E+03</pdfrwt>
<pdfrwt beam="2">  1       21 0.88229726E-01 0.44775455E+03</pdfrwt>
<totfact> 0.12698728E+03</totfact>
</mgrwt>
</event>
<event>
 4    1  0.4821294E-002  0.4096947E+03  0.7818608E-02  0.1040473E+00
         21   -1    0    0  501  502  0.00000000000E+00  0.00000000000E+00  0.56742063156E+03  0.56742063156E+03  0.00000000000E+00 0. -1.
         21   -1    0    0  502  503 -0.00000000000E+00 -0.00000000000E+00 -0.37307083067E+03  0.37307083067E+03  0.00000000000E+00 0. -1.
    9000007    1    1    2  501    0  0.41118966923E+02 -0.78479261455E+02 -0.11682009481E+03  0.42602429329E+03  0.40000000000E+03 0. -1.
   -9000007    1    1    2    0  503 -0.41118966923E+02  0.78479261455E+02  0.31116989571E+03  0.51446716894E+03  0.40000000000E+03 0. -1.
<mgrwt>
<rscale>  2 0.40969472E+03</rscale>
<asrwt>0</asrwt>
<pdfrwt beam="1">  1       21 0.87295481E-01 0.40969472E+03</pdfrwt>
<pdfrwt beam="2">  1       21 0.57395513E-01 0.40969472E+03</pdfrwt>
<totfact> 0.28339158E+03</totfact>
</mgrwt>
</event>
<event>
 4    1  0.4821294E-002  0.5090064E+03  0.7818608E-02  0.1011454E+00
         21   -1    0    0  501  502  0.00000000000E+00  0.00000000000E+00  0.41242237947E+03  0.41242237947E+03  0.00000000000E+00 0. -1.
         21   -1    0    0  502  503 -0.00000000000E+00 -0.00000000000E+00 -0.80066782254E+03  0.80066782254E+03  0.00000000000E+00 0. -1.
    9000007    1    1    2  501    0  0.28531703412E+03  0.13297258188E+03 -0.47562338044E+03  0.69663844102E+03  0.40000000000E+03 0. -1.
   -9000007    1    1    2    0  503 -0.28531703412E+03 -0.13297258188E+03  0.87377937364E+02  0.51645176099E+03  0.40000000000E+03 0. -1.
<mgrwt>
<rscale>  2 0.50900640E+03</rscale>
<asrwt>0</asrwt>
<pdfrwt beam="1">  1       21 0.63449598E-01 0.50900640E+03</pdfrwt>
<pdfrwt beam="2">  1       21 0.12317966E+00 0.50900640E+03</pdfrwt>
<totfact> 0.94129374E+02</totfact>
</mgrwt>
</event>
<event>
 4    1  0.4821294E-002  0.4576355E+03  0.7818608E-02  0.1025469E+00
         21   -1    0    0  501  502  0.00000000000E+00  0.00000000000E+00  0.12254850590E+04  0.12254850590E+04  0.00000000000E+00 0.  1.
         21   -1    0    0  502  503 -0.00000000000E+00 -0.00000000000E+00 -0.18688941254E+03  0.18688941254E+03  0.00000000000E+00 0.  1.
    9000007    1    1    2  501    0 -0.12186454264E+03 -0.18595516163E+03  0.72588357438E+03  0.85810095702E+03  0.40000000000E+03 0.  1.
   -9000007    1    1    2    0  503  0.12186454264E+03  0.18595516163E+03  0.31271207212E+03  0.55427351456E+03  0.40000000000E+03 0.  1.
<mgrwt>
<rscale>  2 0.45763554E+03</rscale>
<asrwt>0</asrwt>
<pdfrwt beam="1">  1       21 0.18853616E+00 0.45763554E+03</pdfrwt>
<pdfrwt beam="2">  1       21 0.28752218E-01 0.45763554E+03</pdfrwt>
<totfact> 0.15532670E+03</totfact>
</mgrwt>
</event>
<event>
 4    1  0.4821294E-002  0.7326289E+03  0.7818608E-02  0.9663004E-01
         21   -1    0    0  503  502  0.00000000000E+00  0.00000000000E+00  0.45538601178E+03  0.45538601178E+03  0.00000000000E+00 0.  1.
         21   -1    0    0  501  503 -0.00000000000E+00 -0.00000000000E+00 -0.18282500195E+04  0.18282500195E+04  0.00000000000E+00 0. -1.
    9000007    1    1    2  501    0  0.25893798363E+03  0.55650361801E+03 -0.13670428378E+04  0.15509839704E+04  0.40000000000E+03 0. -1.
   -9000007    1    1    2    0  502 -0.25893798363E+03 -0.55650361801E+03 -0.58211699371E+01  0.73265206084E+03  0.40000000000E+03 0.  1.
<mgrwt>
<rscale>  2 0.73262893E+03</rscale>
<asrwt>0</asrwt>
<pdfrwt beam="1">  1       21 0.70059386E-01 0.73262893E+03</pdfrwt>
<pdfrwt beam="2">  1       21 0.28126924E+00 0.73262893E+03</pdfrwt>
<totfact> 0.54142527E+01</totfact>
</mgrwt>
</event>
<event>
 4    1  0.4821294E-002  0.4744633E+03  0.7818608E-02  0.1020668E+00
         21   -1    0    0  503  502  0.00000000000E+00  0.00000000000E+00  0.61599137788E+03  0.61599137788E+03  0.00000000000E+00 0.  1.
         21   -1    0    0  501  503 -0.00000000000E+00 -0.00000000000E+00 -0.64104862685E+03  0.64104862685E+03  0.00000000000E+00 0.  1.
    9000007    1    1    2  501    0  0.62290628254E+02 -0.24745759597E+03 -0.42463604373E+03  0.63673475938E+03  0.40000000000E+03 0.  1.
   -9000007    1    1    2    0  502 -0.62290628254E+02  0.24745759597E+03  0.39957879476E+03  0.62030524534E+03  0.40000000000E+03 0.  1.
<mgrwt>
<rscale>  2 0.47446326E+03</rscale>
<asrwt>0</asrwt>
<pdfrwt beam="1">  1       21 0.94767904E-01 0.47446326E+03</pdfrwt>
<pdfrwt beam="2">  1       21 0.98622866E-01 0.47446326E+03</pdfrwt>
<totfact> 0.65896724E+02</totfact>
</mgrwt>
</event>
<event>
 4    1  0.4821294E-002  0.4613664E+03  0.7818608E-02  0.1024386E+00
         21   -1    0    0  503  502  0.00000000000E+00  0.00000000000E+00  0.50887878082E+03  0.50887878082E+03  0.00000000000E+00 0. -1.
         21   -1    0    0  501  503 -0.00000000000E+00 -0.00000000000E+00 -0.11540489146E+04  0.11540489146E+04  0.00000000000E+00 0. -1.
    9000007    1    1    2  501    0 -0.10519454146E+03 -0.20443356783E+03 -0.98647944056E+03  0.10890365751E+04  0.40000000000E+03 0. -1.
   -9000007    1    1    2    0  502  0.10519454146E+03  0.20443356783E+03  0.34130930673E+03  0.57389112039E+03  0.40000000000E+03 0. -1.
<mgrwt>
<rscale>  2 0.46136642E+03</rscale>
<asrwt>0</asrwt>
<pdfrwt beam="1">  1       21 0.78289044E-01 0.46136642E+03</pdfrwt>
<pdfrwt beam="2">  1       21 0.17754599E+00 0.46136642E+03</pdfrwt>
<totfact> 0.22112299E+02</totfact>
</mgrwt>
</event>
<event>
 4    1  0.4821294E-002  0.4835844E+03  0.7818608E-02  0.1018155E+00
         21   -1    0    0  501  502  0.00000000000E+00  0.00000000000E+00  0.22326963780E+03  0.22326963780E+03  0.00000000000E+00 0.  1.
         21   -1    0    0  502  503 -0.00000000000E+00 -0.00000000000E+00 -0.17742992928E+04  0.17742992928E+04  0.00000000000E+00 0.  1.
    9000007    1    1    2  501    0  0.18347617108E+03 -0.20047532760E+03 -0.13623088164E+03  0.50240692217E+03  0.40000000000E+03 0.  1.
   -9000007    1    1    2    0  503 -0.18347617108E+03  0.20047532760E+03 -0.14147987734E+04  0.14951620084E+04  0.40000000000E+03 0.  1.
<mgrwt>
<rscale>  2 0.48358439E+03</rscale>
<asrwt>0</asrwt>
<pdfrwt beam="1">  1       21 0.34349175E-01 0.48358439E+03</pdfrwt>
<pdfrwt beam="2">  1       21 0.27296912E+00 0.48358439E+03</pdfrwt>
<totfact> 0.31242246E+02</totfact>
</mgrwt>
</event>
<event>
 4    1  0.4821294E-002  0.5240959E+03  0.7818608E-02  0.1007674E+00
         21   -1    0    0  501  502  0.00000000000E+00  0.00000000000E+00  0.30330736727E+03  0.30330736727E+03  0.00000000000E+00 0. -1.
         21   -1    0    0  502  503 -0.00000000000E+00 -0.00000000000E+00 -0.91814772838E+03  0.91814772838E+03  0.00000000000E+00 0. -1.
    9000007    1    1    2  501    0  0.41553622964E+02 -0.33608003538E+03 -0.37880357585E+03  0.64665960353E+03  0.40000000000E+03 0. -1.
   -9000007    1    1    2    0  503 -0.41553622964E+02  0.33608003538E+03 -0.23603678526E+03  0.57479549212E+03  0.40000000000E+03 0. -1.
<mgrwt>
<rscale>  2 0.52409588E+03</rscale>
<asrwt>0</asrwt>
<pdfrwt beam="1">  1       21 0.46662672E-01 0.52409588E+03</pdfrwt>
<pdfrwt beam="2">  1       21 0.14125350E+00 0.52409588E+03</pdfrwt>
<totfact> 0.12715518E+03</totfact>
</mgrwt>
</event>
<event>
 4    1  0.4821294E-002  0.4523075E+03  0.7818608E-02  0.1027036E+00
         21   -1    0    0  501  502  0.00000000000E+00  0.00000000000E+00  0.13899885666E+04  0.13899885666E+04  0.00000000000E+00 0. -1.
         21   -1    0    0  502  503 -0.00000000000E+00 -0.00000000000E+00 -0.33581070653E+03  0.33581070653E+03  0.00000000000E+00 0. -1.
    9000007    1    1    2  501    0 -0.39610521315E+02 -0.20739585939E+03  0.11738089398E+04  0.12579385769E+04  0.40000000000E+03 0. -1.
   -9000007    1    1    2    0  503  0.39610521315E+02  0.20739585939E+03 -0.11963107976E+03  0.46786069629E+03  0.40000000000E+03 0. -1.
<mgrwt>
<rscale>  2 0.45230746E+03</rscale>
<asrwt>0</asrwt>
<pdfrwt beam="1">  1       21 0.21384439E+00 0.45230746E+03</pdfrwt>
<pdfrwt beam="2">  1       21 0.51663186E-01 0.45230746E+03</pdfrwt>
<totfact> 0.31719474E+02</totfact>
</mgrwt>
</event>
<event>
 4    1  0.4821294E-002  0.5174221E+03  0.7818608E-02  0.1009329E+00
         21   -1    0    0  503  502  0.00000000000E+00  0.00000000000E+00  0.10098401956E+04  0.10098401956E+04  0.00000000000E+00 0.  1.
         21   -1    0    0  501  503 -0.00000000000E+00 -0.00000000000E+00 -0.52457142136E+03  0.52457142136E+03  0.00000000000E+00 0. -1.
    9000007    1    1    2  501    0  0.28099941205E+03 -0.16960244564E+03 -0.29692620951E+03  0.59656586647E+03  0.40000000000E+03 0. -1.
   -9000007    1    1    2    0  502 -0.28099941205E+03  0.16960244564E+03  0.78219498378E+03  0.93784575053E+03  0.40000000000E+03 0.  1.
<mgrwt>
<rscale>  2 0.51742213E+03</rscale>
<asrwt>0</asrwt>
<pdfrwt beam="1">  1       21 0.15536003E+00 0.51742213E+03</pdfrwt>
<pdfrwt beam="2">  1       21 0.80703296E-01 0.51742213E+03</pdfrwt>
<totfact> 0.29321084E+02</totfact>
</mgrwt>
</event>
<event>
 4    1  0.4821294E-002  0.4176154E+03  0.7818608E-02  0.1037845E+00
         21   -1    0    0  503  502  0.00000000000E+00  0.00000000000E+00  0.64274440748E+03  0.64274440748E+03  0.00000000000E+00 0. -1.
         21   -1    0    0  501  503 -0.00000000000E+00 -0.00000000000E+00 -0.43216048935E+03  0.43216048935E+03  0.00000000000E+00 0. -1.
    9000007    1    1    2  501    0  0.11919365231E+03  0.13982172211E+02 -0.22256729691E+03  0.47322175515E+03  0.40000000000E+03 0. -1.
   -9000007    1    1    2    0  502 -0.11919365231E+03 -0.13982172211E+02  0.43315121504E+03  0.60168314168E+03  0.40000000000E+03 0. -1.
<mgrwt>
<rscale>  2 0.41761541E+03</rscale>
<asrwt>0</asrwt>
<pdfrwt beam="1">  1       21 0.98883755E-01 0.41761541E+03</pdfrwt>
<pdfrwt beam="2">  1       21 0.66486229E-01 0.41761541E+03</pdfrwt>
<totfact> 0.15196518E+03</totfact>
</mgrwt>
</event>
<event>
 4    1  0.4821294E-002  0.4200152E+03  0.7818608E-02  0.1037061E+00
         21   -1    0    0  503  502  0.00000000000E+00  0.00000000000E+00  0.11096543710E+04  0.11096543710E+04  0.00000000000E+00 0. -1.
         21   -1    0    0  501  503 -0.00000000000E+00 -0.00000000000E+00 -0.20174152233E+03  0.20174152233E+03  0.00000000000E+00 0. -1.
    9000007    1    1    2  501    0  0.17145108869E+02  0.12696001683E+03  0.15207736334E+03  0.44669936766E+03  0.40000000000E+03 0. -1.
   -9000007    1    1    2    0  502 -0.17145108869E+02 -0.12696001683E+03  0.75583548535E+03  0.86469652569E+03  0.40000000000E+03 0. -1.
<mgrwt>
<rscale>  2 0.42001524E+03</rscale>
<asrwt>0</asrwt>
<pdfrwt beam="1">  1       21 0.17071605E+00 0.42001524E+03</pdfrwt>
<pdfrwt beam="2">  1       21 0.31037158E-01 0.42001524E+03</pdfrwt>
<totfact> 0.18115910E+03</totfact>
</mgrwt>
</event>
<event>
 4    1  0.4821294E-002  0.5300843E+03  0.7818608E-02  0.1006212E+00
         21   -1    0    0  501  502  0.00000000000E+00  0.00000000000E+00  0.68838016412E+03  0.68838016412E+03  0.00000000000E+00 0.  1.
         21   -1    0    0  502  503 -0.00000000000E+00 -0.00000000000E+00 -0.50374425672E+03  0.50374425672E+03  0.00000000000E+00 0. -1.
    9000007    1    1    2  501    0  0.75623943811E+02  0.33951495323E+03  0.35192307407E+03  0.63626978115E+03  0.40000000000E+03 0.  1.
   -9000007    1    1    2    0  503 -0.75623943811E+02 -0.33951495323E+03 -0.16728716666E+03  0.55585463970E+03  0.40000000000E+03 0. -1.
<mgrwt>
<rscale>  2 0.53008432E+03</rscale>
<asrwt>0</asrwt>
<pdfrwt beam="1">  1       21 0.10590464E+00 0.53008432E+03</pdfrwt>
<pdfrwt beam="2">  1       21 0.77499116E-01 0.53008432E+03</pdfrwt>
<totfact> 0.86928972E+02</totfact>
</mgrwt>
</event>
<event>
 4    1  0.4821294E-002  0.6416185E+03  0.7818608E-02  0.9822635E-01
         21   -1    0    0  501  502  0.00000000000E+00  0.00000000000E+00  0.16470452631E+03  0.16470452631E+03  0.00000000000E+00 0.  1.
         21   -1    0    0  502  503 -0.00000000000E+00 -0.00000000000E+00 -0.30548824128E+04  0.30548824128E+04  0.00000000000E+00 0. -1.
    9000007    1    1    2  501    0  0.29623767115E+03 -0.40486733173E+03 -0.75868461970E+03  0.99361796798E+03  0.40000000000E+03 0.  1.
   -9000007    1    1    2    0  503 -0.29623767115E+03  0.40486733173E+03 -0.21314932668E+04  0.22259689711E+04  0.40000000000E+03 0. -1.
<mgrwt>
<rscale>  2 0.64161851E+03</rscale>
<asrwt>0</asrwt>
<pdfrwt beam="1">  1       21 0.25339159E-01 0.64161851E+03</pdfrwt>
<pdfrwt beam="2">  1       21 0.46998189E+00 0.64161851E+03</pdfrwt>
<totfact> 0.29378730E+01</totfact>
</mgrwt>
</event>
<event>
 4    1  0.4821294E-002  0.4778206E+03  0.7818608E-02  0.1019736E+00
         21   -1    0    0  503  502  0.00000000000E+00  0.00000000000E+00  0.26978123944E+03  0.26978123944E+03  0.00000000000E+00 0. -1.
         21   -1    0    0  501  503 -0.00000000000E+00 -0.00000000000E+00 -0.11160287227E+04  0.11160287227E+04  0.00000000000E+00 0. -1.
    9000007    1    1    2  501    0  0.19731636940E+03  0.17140250593E+03 -0.76377455129E+03  0.90092404445E+03  0.40000000000E+03 0.  1.
   -9000007    1    1    2    0  502 -0.19731636940E+03 -0.17140250593E+03 -0.82472931978E+02  0.48488591770E+03  0.40000000000E+03 0.  1.
<mgrwt>
<rscale>  2 0.47782064E+03</rscale>
<asrwt>0</asrwt>
<pdfrwt beam="1">  1       21 0.41504806E-01 0.47782064E+03</pdfrwt>
<pdfrwt beam="2">  1       21 0.17169673E+00 0.47782064E+03</pdfrwt>
<totfact> 0.96349493E+02</totfact>
</mgrwt>
</event>
<event>
 4    1  0.4821294E-002  0.4638335E+03  0.7818608E-02  0.1023675E+00
         21   -1    0    0  503  502  0.00000000000E+00  0.00000000000E+00  0.15454473340E+04  0.15454473340E+04  0.00000000000E+00 0.  1.
         21   -1    0    0  501  503 -0.00000000000E+00 -0.00000000000E+00 -0.16462085073E+03  0.16462085073E+03  0.00000000000E+00 0.  1.
    9000007    1    1    2  501    0  0.64976711646E+02  0.22565366227E+03  0.35448108280E+03  0.58377939876E+03  0.40000000000E+03 0.  1.
   -9000007    1    1    2    0  502 -0.64976711646E+02 -0.22565366227E+03  0.10263454005E+04  0.11262887860E+04  0.40000000000E+03 0.  1.
<mgrwt>
<rscale>  2 0.46383354E+03</rscale>
<asrwt>0</asrwt>
<pdfrwt beam="1">  1       21 0.23776112E+00 0.46383354E+03</pdfrwt>
<pdfrwt beam="2">  1       21 0.25326286E-01 0.46383354E+03</pdfrwt>
<totfact> 0.95023184E+02</totfact>
</mgrwt>
</event>
<event>
 4    1  0.4821294E-002  0.4276629E+03  0.7818608E-02  0.1034601E+00
         21   -1    0    0  503  502  0.00000000000E+00  0.00000000000E+00  0.13059066435E+04  0.13059066435E+04  0.00000000000E+00 0. -1.
         21   -1    0    0  501  503 -0.00000000000E+00 -0.00000000000E+00 -0.28415084755E+03  0.28415084755E+03  0.00000000000E+00 0. -1.
    9000007    1    1    2  501    0 -0.13561427923E+03  0.67114439372E+02 -0.55280233781E+02  0.43122092360E+03  0.40000000000E+03 0. -1.
   -9000007    1    1    2    0  502  0.13561427923E+03 -0.67114439372E+02  0.10770360298E+04  0.11588365675E+04  0.40000000000E+03 0. -1.
<mgrwt>
<rscale>  2 0.42766293E+03</rscale>
<asrwt>0</asrwt>
<pdfrwt beam="1">  1       21 0.20090871E+00 0.42766293E+03</pdfrwt>
<pdfrwt beam="2">  1       21 0.43715516E-01 0.42766293E+03</pdfrwt>
<totfact> 0.55552556E+02</totfact>
</mgrwt>
</event>
<event>
 4    1  0.4821294E-002  0.5362652E+03  0.7818608E-02  0.1004724E+00
         21   -1    0    0  503  502  0.00000000000E+00  0.00000000000E+00  0.47991109124E+03  0.47991109124E+03  0.00000000000E+00 0. -1.
         21   -1    0    0  501  503 -0.00000000000E+00 -0.00000000000E+00 -0.65511296750E+03  0.65511296750E+03  0.00000000000E+00 0.  1.
    9000007    1    1    2  501    0 -0.55583724392E+02 -0.35283256756E+03 -0.25334210951E+03  0.59309577270E+03  0.40000000000E+03 0.  1.
   -9000007    1    1    2    0  502  0.55583724392E+02  0.35283256756E+03  0.78140233245E+02  0.54192828603E+03  0.40000000000E+03 0.  1.
<mgrwt>
<rscale>  2 0.53626521E+03</rscale>
<asrwt>0</asrwt>
<pdfrwt beam="1">  1       21 0.73832476E-01 0.53626521E+03</pdfrwt>
<pdfrwt beam="2">  1       21 0.10078661E+00 0.53626521E+03</pdfrwt>
<totfact> 0.10953280E+03</totfact>
</mgrwt>
</event>
<event>
 4    1  0.4821294E-002  0.6069769E+03  0.7818608E-02  0.9891036E-01
         21   -1    0    0  503  502  0.00000000000E+00  0.00000000000E+00  0.85342598401E+03  0.85342598401E+03  0.00000000000E+00 0.  1.
         21   -1    0    0  501  503 -0.00000000000E+00 -0.00000000000E+00 -0.43288347777E+03  0.43288347777E+03  0.00000000000E+00 0. -1.
    9000007    1    1    2  501    0  0.22926249030E+03  0.39479071394E+03  0.17659265162E+03  0.63214394079E+03  0.40000000000E+03 0. -1.
   -9000007    1    1    2    0  502 -0.22926249030E+03 -0.39479071394E+03  0.24394985463E+03  0.65416552099E+03  0.40000000000E+03 0.  1.
<mgrwt>
<rscale>  2 0.60697693E+03</rscale>
<asrwt>0</asrwt>
<pdfrwt beam="1">  1       21 0.13129630E+00 0.60697693E+03</pdfrwt>
<pdfrwt beam="2">  1       21 0.66597459E-01 0.60697693E+03</pdfrwt>
<totfact> 0.69218889E+02</totfact>
</mgrwt>
</event>
<event>
 4    1  0.4821294E-002  0.4300416E+03  0.7818608E-02  0.1033847E+00
         21   -1    0    0  503  502  0.00000000000E+00  0.00000000000E+00  0.11132362421E+04  0.11132362421E+04  0.00000000000E+00 0. -1.
         21   -1    0    0  501  503 -0.00000000000E+00 -0.00000000000E+00 -0.17946712367E+03  0.17946712367E+03  0.00000000000E+00 0. -1.
    9000007    1    1    2  501    0 -0.73531956983E+02  0.13974554134E+03  0.29064728440E+03  0.51904875393E+03  0.40000000000E+03 0. -1.
   -9000007    1    1    2    0  502  0.73531956983E+02 -0.13974554134E+03  0.64312183402E+03  0.77365461184E+03  0.40000000000E+03 0. -1.
<mgrwt>
<rscale>  2 0.43004159E+03</rscale>
<asrwt>0</asrwt>
<pdfrwt beam="1">  1       21 0.17126711E+00 0.43004159E+03</pdfrwt>
<pdfrwt beam="2">  1       21 0.27610327E-01 0.43004159E+03</pdfrwt>
<totfact> 0.22530141E+03</totfact>
</mgrwt>
</event>
<event>
 4    1  0.4821294E-002  0.4169108E+03  0.7818608E-02  0.1038076E+00
         21   -1    0    0  503  502  0.00000000000E+00  0.00000000000E+00  0.10144932166E+04  0.10144932166E+04  0.00000000000E+00 0. -1.
         21   -1    0    0  501  503 -0.00000000000E+00 -0.00000000000E+00 -0.23684293575E+03  0.23684293575E+03  0.00000000000E+00 0. -1.
    9000007    1    1    2  501    0 -0.11599893826E+03 -0.18944264347E+02  0.59767214585E+02  0.42117307460E+03  0.40000000000E+03 0. -1.
   -9000007    1    1    2    0  502  0.11599893826E+03  0.18944264347E+02  0.71788306627E+03  0.83016307776E+03  0.40000000000E+03 0. -1.
<mgrwt>
<rscale>  2 0.41691083E+03</rscale>
<asrwt>0</asrwt>
<pdfrwt beam="1">  1       21 0.15607588E+00 0.41691083E+03</pdfrwt>
<pdfrwt beam="2">  1       21 0.36437375E-01 0.41691083E+03</pdfrwt>
<totfact> 0.16886756E+03</totfact>
</mgrwt>
</event>
<event>
 4    1  0.4821294E-002  0.4040294E+03  0.7818608E-02  0.1042393E+00
         21   -1    0    0  501  502  0.00000000000E+00  0.00000000000E+00  0.27372666932E+03  0.27372666932E+03  0.00000000000E+00 0.  1.
         21   -1    0    0  502  503 -0.00000000000E+00 -0.00000000000E+00 -0.59651887942E+03  0.59651887942E+03  0.00000000000E+00 0.  1.
    9000007    1    1    2  501    0  0.46286578294E+02 -0.33126131839E+02 -0.15430724910E+03  0.43249336997E+03  0.40000000000E+03 0.  1.
   -9000007    1    1    2    0  503 -0.46286578294E+02  0.33126131839E+02 -0.16848496100E+03  0.43775217878E+03  0.40000000000E+03 0.  1.
<mgrwt>
<rscale>  2 0.40402944E+03</rscale>
<asrwt>0</asrwt>
<pdfrwt beam="1">  1       21 0.42111795E-01 0.40402944E+03</pdfrwt>
<pdfrwt beam="2">  1       21 0.91772135E-01 0.40402944E+03</pdfrwt>
<totfact> 0.48632121E+03</totfact>
</mgrwt>
</event>
<event>
 4    1  0.4821294E-002  0.5284677E+03  0.7818608E-02  0.1006604E+00
         21   -1    0    0  503  502  0.00000000000E+00  0.00000000000E+00  0.32395010682E+03  0.32395010682E+03  0.00000000000E+00 0. -1.
         21   -1    0    0  501  503 -0.00000000000E+00 -0.00000000000E+00 -0.90354050470E+03  0.90354050470E+03  0.00000000000E+00 0.  1.
    9000007    1    1    2  501    0  0.28694821550E+03 -0.19219468009E+03 -0.15835875937E+03  0.55168430293E+03  0.40000000000E+03 0.  1.
   -9000007    1    1    2    0  502 -0.28694821550E+03  0.19219468009E+03 -0.42123163851E+03  0.67580630858E+03  0.40000000000E+03 0.  1.
<mgrwt>
<rscale>  2 0.52846767E+03</rscale>
<asrwt>0</asrwt>
<pdfrwt beam="1">  1       21 0.49838478E-01 0.52846767E+03</pdfrwt>
<pdfrwt beam="2">  1       21 0.13900623E+00 0.52846767E+03</pdfrwt>
<totfact> 0.11524025E+03</totfact>
</mgrwt>
</event>
<event>
 4    1  0.4821294E-002  0.6668886E+03  0.7818608E-02  0.9775595E-01
         21   -1    0    0  501  502  0.00000000000E+00  0.00000000000E+00  0.92748150622E+03  0.92748150622E+03  0.00000000000E+00 0.  1.
         21   -1    0    0  502  503 -0.00000000000E+00 -0.00000000000E+00 -0.49924874836E+03  0.49924874836E+03  0.00000000000E+00 0.  1.
    9000007    1    1    2  501    0 -0.75142999267E+01 -0.53355779766E+03  0.35594664840E+03  0.75593545006E+03  0.40000000000E+03 0.  1.
   -9000007    1    1    2    0  503  0.75142999267E+01  0.53355779766E+03  0.72286109463E+02  0.67079480452E+03  0.40000000000E+03 0.  1.
<mgrwt>
<rscale>  2 0.66688859E+03</rscale>
<asrwt>0</asrwt>
<pdfrwt beam="1">  1       21 0.14268946E+00 0.66688859E+03</pdfrwt>
<pdfrwt beam="2">  1       21 0.76807500E-01 0.66688859E+03</pdfrwt>
<totfact> 0.39321350E+02</totfact>
</mgrwt>
</event>
<event>
 4    1  0.4821294E-002  0.4544361E+03  0.7818608E-02  0.1026407E+00
         21   -1    0    0  501  502  0.00000000000E+00  0.00000000000E+00  0.16623516143E+03  0.16623516143E+03  0.00000000000E+00 0. -1.
         21   -1    0    0  502  503 -0.00000000000E+00 -0.00000000000E+00 -0.15447513090E+04  0.15447513090E+04  0.00000000000E+00 0. -1.
    9000007    1    1    2  501    0 -0.48056854494E+02 -0.21024450386E+03 -0.31070873440E+03  0.55050170781E+03  0.40000000000E+03 0. -1.
   -9000007    1    1    2    0  503  0.48056854494E+02  0.21024450386E+03 -0.10678074132E+04  0.11604847627E+04  0.40000000000E+03 0. -1.
<mgrwt>
<rscale>  2 0.45443615E+03</rscale>
<asrwt>0</asrwt>
<pdfrwt beam="1">  1       21 0.25574639E-01 0.45443615E+03</pdfrwt>
<pdfrwt beam="2">  1       21 0.23765405E+00 0.45443615E+03</pdfrwt>
<totfact> 0.93799639E+02</totfact>
</mgrwt>
</event>
<event>
 4    1  0.4821294E-002  0.4338561E+03  0.7818608E-02  0.1032649E+00
         21   -1    0    0  503  502  0.00000000000E+00  0.00000000000E+00  0.75198221599E+03  0.75198221599E+03  0.00000000000E+00 0. -1.
         21   -1    0    0  501  503 -0.00000000000E+00 -0.00000000000E+00 -0.29300200735E+03  0.29300200735E+03  0.00000000000E+00 0. -1.
    9000007    1    1    2  501    0  0.10186115316E+03  0.13362410162E+03  0.30055133426E+02  0.43489585662E+03  0.40000000000E+03 0. -1.
   -9000007    1    1    2    0  502 -0.10186115316E+03 -0.13362410162E+03  0.42892507522E+03  0.61008836672E+03  0.40000000000E+03 0. -1.
<mgrwt>
<rscale>  2 0.43385608E+03</rscale>
<asrwt>0</asrwt>
<pdfrwt beam="1">  1       21 0.11568957E+00 0.43385608E+03</pdfrwt>
<pdfrwt beam="2">  1       21 0.45077232E-01 0.43385608E+03</pdfrwt>
<totfact> 0.23712672E+03</totfact>
</mgrwt>
</event>
<event>
 4    1  0.4821294E-002  0.4335530E+03  0.7818608E-02  0.1032743E+00
         21   -1    0    0  501  502  0.00000000000E+00  0.00000000000E+00  0.13201933952E+04  0.13201933952E+04  0.00000000000E+00 0.  1.
         21   -1    0    0  502  503 -0.00000000000E+00 -0.00000000000E+00 -0.15593842336E+03  0.15593842336E+03  0.00000000000E+00 0.  1.
    9000007    1    1    2  501    0 -0.16587715634E+03  0.21282309732E+02  0.36448939206E+03  0.56641035004E+03  0.40000000000E+03 0.  1.
   -9000007    1    1    2    0  503  0.16587715634E+03 -0.21282309732E+02  0.79976557976E+03  0.90972146851E+03  0.40000000000E+03 0.  1.
<mgrwt>
<rscale>  2 0.43355296E+03</rscale>
<asrwt>0</asrwt>
<pdfrwt beam="1">  1       21 0.20310667E+00 0.43355296E+03</pdfrwt>
<pdfrwt beam="2">  1       21 0.23990528E-01 0.43355296E+03</pdfrwt>
<totfact> 0.17842144E+03</totfact>
</mgrwt>
</event>
<event>
 4    1  0.4821294E-002  0.5049950E+03  0.7818608E-02  0.1012483E+00
         21   -1    0    0  501  502  0.00000000000E+00  0.00000000000E+00  0.66209550864E+03  0.66209550864E+03  0.00000000000E+00 0. -1.
         21   -1    0    0  502  503 -0.00000000000E+00 -0.00000000000E+00 -0.46298161147E+03  0.46298161147E+03  0.00000000000E+00 0.  1.
    9000007    1    1    2  501    0  0.54820800638E+02 -0.30333905306E+03  0.33017336034E+03  0.60335259109E+03  0.40000000000E+03 0. -1.
   -9000007    1    1    2    0  503 -0.54820800638E+02  0.30333905306E+03 -0.13105946317E+03  0.52172452902E+03  0.40000000000E+03 0.  1.
<mgrwt>
<rscale>  2 0.50499495E+03</rscale>
<asrwt>0</asrwt>
<pdfrwt beam="1">  1       21 0.10186085E+00 0.50499495E+03</pdfrwt>
<pdfrwt beam="2">  1       21 0.71227940E-01 0.50499495E+03</pdfrwt>
<totfact> 0.11705925E+03</totfact>
</mgrwt>
</event>
<event>
 4    1  0.4821294E-002  0.6292081E+03  0.7818608E-02  0.9846595E-01
         21   -1    0    0  501  502  0.00000000000E+00  0.00000000000E+00  0.23515594944E+03  0.23515594944E+03  0.00000000000E+00 0. -1.
         21   -1    0    0  502  503 -0.00000000000E+00 -0.00000000000E+00 -0.17250939547E+04  0.17250939547E+04  0.00000000000E+00 0.  1.
    9000007    1    1    2  501    0 -0.39062534115E+03  0.28864285419E+03 -0.89702177457E+03  0.10956965449E+04  0.40000000000E+03 0.  1.
   -9000007    1    1    2    0  503  0.39062534115E+03 -0.28864285419E+03 -0.59291623073E+03  0.86455335930E+03  0.40000000000E+03 0. -1.
<mgrwt>
<rscale>  2 0.62920812E+03</rscale>
<asrwt>0</asrwt>
<pdfrwt beam="1">  1       21 0.36177839E-01 0.62920812E+03</pdfrwt>
<pdfrwt beam="2">  1       21 0.26539907E+00 0.62920812E+03</pdfrwt>
<totfact> 0.29285124E+02</totfact>
</mgrwt>
</event>
<event>
 4    1  0.4821294E-002  0.5348769E+03  0.7818608E-02  0.1005056E+00
         21   -1    0    0  503  502  0.00000000000E+00  0.00000000000E+00  0.13632371249E+03  0.13632371249E+03  0.00000000000E+00 0.  1.
         21   -1    0    0  501  503 -0.00000000000E+00 -0.00000000000E+00 -0.25763338498E+04  0.25763338498E+04  0.00000000000E+00 0.  1.
    9000007    1    1    2  501    0 -0.27417355063E+03  0.22565947063E+03 -0.18040446469E+04  0.18816669260E+04  0.40000000000E+03 0.  1.
   -9000007    1    1    2    0  502  0.27417355063E+03 -0.22565947063E+03 -0.63596549042E+03  0.83099063626E+03  0.40000000000E+03 0.  1.
<mgrwt>
<rscale>  2 0.53487693E+03</rscale>
<asrwt>0</asrwt>
<pdfrwt beam="1">  1       21 0.20972879E-01 0.53487693E+03</pdfrwt>
<pdfrwt beam="2">  1       21 0.39635904E+00 0.53487693E+03</pdfrwt>
<totfact> 0.13957444E+02</totfact>
</mgrwt>
</event>
<event>
 4    1  0.4821294E-002  0.4160491E+03  0.7818608E-02  0.1038360E+00
         21   -1    0    0  501  502  0.00000000000E+00  0.00000000000E+00  0.14742081481E+03  0.14742081481E+03  0.00000000000E+00 0.  1.
         21   -1    0    0  502  503 -0.00000000000E+00 -0.00000000000E+00 -0.13088622328E+04  0.13088622328E+04  0.00000000000E+00 0.  1.
    9000007    1    1    2  501    0 -0.25029879879E+02 -0.11167062834E+03 -0.34713670278E+03  0.54184934671E+03  0.40000000000E+03 0.  1.
   -9000007    1    1    2    0  503  0.25029879879E+02  0.11167062834E+03 -0.81430471520E+03  0.91443370089E+03  0.40000000000E+03 0.  1.
<mgrwt>
<rscale>  2 0.41604906E+03</rscale>
<asrwt>0</asrwt>
<pdfrwt beam="1">  1       21 0.22680125E-01 0.41604906E+03</pdfrwt>
<pdfrwt beam="2">  1       21 0.20136342E+00 0.41604906E+03</pdfrwt>
<totfact> 0.20582939E+03</totfact>
</mgrwt>
</event>
<event>
 4    1  0.4821294E-002  0.4281854E+03  0.7818608E-02  0.1034435E+00
         21   -1    0    0  501  502  0.00000000000E+00  0.00000000000E+00  0.18892206740E+03  0.18892206740E+03  0.00000000000E+00 0.  1.
         21   -1    0    0  502  503 -0.00000000000E+00 -0.00000000000E+00 -0.97610345622E+03  0.97610345622E+03  0.00000000000E+00 0.  1.
    9000007    1    1    2  501    0 -0.15087720146E+03 -0.24058978031E+02 -0.34932843333E+03  0.55260575339E+03  0.40000000000E+03 0. -1.
   -9000007    1    1    2    0  503  0.15087720146E+03  0.24058978031E+02 -0.43785295548E+03  0.61241977023E+03  0.40000000000E+03 0. -1.
<mgrwt>
<rscale>  2 0.42818543E+03</rscale>
<asrwt>0</asrwt>
<pdfrwt beam="1">  1       21 0.29064934E-01 0.42818543E+03</pdfrwt>
<pdfrwt beam="2">  1       21 0.15016976E+00 0.42818543E+03</pdfrwt>
<totfact> 0.29371344E+03</totfact>
</mgrwt>
</event>
<event>
 4    1  0.4821294E-002  0.4193617E+03  0.7818608E-02  0.1037274E+00
         21   -1    0    0  501  502  0.00000000000E+00  0.00000000000E+00  0.19477521379E+04  0.19477521379E+04  0.00000000000E+00 0. -1.
         21   -1    0    0  502  503 -0.00000000000E+00 -0.00000000000E+00 -0.93330806347E+02  0.93330806347E+02  0.00000000000E+00 0. -1.
    9000007    1    1    2  501    0  0.63256566466E+02 -0.10891661592E+03  0.74302710790E+03  0.85320191368E+03  0.40000000000E+03 0. -1.
   -9000007    1    1    2    0  503 -0.63256566466E+02  0.10891661592E+03  0.11113942237E+04  0.11878810306E+04  0.40000000000E+03 0. -1.
<mgrwt>
<rscale>  2 0.41936168E+03</rscale>
<asrwt>0</asrwt>
<pdfrwt beam="1">  1       21 0.29965414E+00 0.41936168E+03</pdfrwt>
<pdfrwt beam="2">  1       21 0.14358587E-01 0.41936168E+03</pdfrwt>
<totfact> 0.11997924E+03</totfact>
</mgrwt>
</event>
<event>
 4    1  0.4821294E-002  0.7618061E+03  0.7818608E-02  0.9617008E-01
         21   -1    0    0  501  502  0.00000000000E+00  0.00000000000E+00  0.11108859692E+04  0.11108859692E+04  0.00000000000E+00 0.  1.
         21   -1    0    0  502  503 -0.00000000000E+00 -0.00000000000E+00 -0.60444417365E+03  0.60444417365E+03  0.00000000000E+00 0.  1.
    9000007    1    1    2  501    0  0.35288805478E+02 -0.64738179572E+03  0.56916619064E+03  0.95094618238E+03  0.40000000000E+03 0.  1.
   -9000007    1    1    2    0  503 -0.35288805478E+02  0.64738179572E+03 -0.62724395116E+02  0.76438396043E+03  0.40000000000E+03 0.  1.
<mgrwt>
<rscale>  2 0.76180607E+03</rscale>
<asrwt>0</asrwt>
<pdfrwt beam="1">  1       21 0.17090553E+00 0.76180607E+03</pdfrwt>
<pdfrwt beam="2">  1       21 0.92991411E-01 0.76180607E+03</pdfrwt>
<totfact> 0.14661067E+02</totfact>
</mgrwt>
</event>
<event>
 4    1  0.4821294E-002  0.5257552E+03  0.7818608E-02  0.1007267E+00
         21   -1    0    0  501  502  0.00000000000E+00  0.00000000000E+00  0.23024406450E+04  0.23024406450E+04  0.00000000000E+00 0.  1.
         21   -1    0    0  502  503 -0.00000000000E+00 -0.00000000000E+00 -0.48238563122E+03  0.48238563122E+03  0.00000000000E+00 0.  1.
    9000007    1    1    2  501    0  0.32053409098E+03  0.11694618151E+03  0.21167953145E+04  0.21811100193E+04  0.40000000000E+03 0.  1.
   -9000007    1    1    2    0  503 -0.32053409098E+03 -0.11694618151E+03 -0.29674030069E+03  0.60371625695E+03  0.40000000000E+03 0.  1.
<mgrwt>
<rscale>  2 0.52575518E+03</rscale>
<asrwt>0</asrwt>
<pdfrwt beam="1">  1       21 0.35422163E+00 0.52575518E+03</pdfrwt>
<pdfrwt beam="2">  1       21 0.74213175E-01 0.52575518E+03</pdfrwt>
<totfact> 0.18770294E+01</totfact>
</mgrwt>
</event>
<event>
 4    1  0.4821294E-002  0.6987631E+03  0.7818608E-02  0.9719350E-01
         21   -1    0    0  503  502  0.00000000000E+00  0.00000000000E+00  0.18171106690E+04  0.18171106690E+04  0.00000000000E+00 0. -1.
         21   -1    0    0  501  503 -0.00000000000E+00 -0.00000000000E+00 -0.28983746448E+03  0.28983746448E+03  0.00000000000E+00 0.  1.
    9000007    1    1    2  501    0  0.19862206771E+03  0.53741892463E+03  0.10480854039E+04  0.12596637806E+04  0.40000000000E+03 0. -1.
   -9000007    1    1    2    0  502 -0.19862206771E+03 -0.53741892463E+03  0.47918780061E+03  0.84728435285E+03  0.40000000000E+03 0.  1.
<mgrwt>
<rscale>  2 0.69876307E+03</rscale>
<asrwt>0</asrwt>
<pdfrwt beam="1">  1       21 0.27955548E+00 0.69876307E+03</pdfrwt>
<pdfrwt beam="2">  1       21 0.44590380E-01 0.69876307E+03</pdfrwt>
<totfact> 0.15110096E+02</totfact>
</mgrwt>
</event>
<event>
 4    1  0.4821294E-002  0.5028774E+03  0.7818608E-02  0.1013031E+00
         21   -1    0    0  503  502  0.00000000000E+00  0.00000000000E+00  0.15363588737E+04  0.15363588737E+04  0.00000000000E+00 0.  1.
         21   -1    0    0  501  503 -0.00000000000E+00 -0.00000000000E+00 -0.34313878777E+03  0.34313878777E+03  0.00000000000E+00 0.  1.
    9000007    1    1    2  501    0 -0.17485507364E+03  0.24962251593E+03 -0.81253638325E+02  0.50939950037E+03  0.40000000000E+03 0.  1.
   -9000007    1    1    2    0  502  0.17485507364E+03 -0.24962251593E+03  0.12744737242E+04  0.13700981611E+04  0.40000000000E+03 0.  1.
<mgrwt>
<rscale>  2 0.50287742E+03</rscale>
<asrwt>0</asrwt>
<pdfrwt beam="1">  1       21 0.23636290E+00 0.50287742E+03</pdfrwt>
<pdfrwt beam="2">  1       21 0.52790583E-01 0.50287742E+03</pdfrwt>
<totfact> 0.21219462E+02</totfact>
</mgrwt>
</event>
<event>
 4    1  0.4821294E-002  0.4074973E+03  0.7818608E-02  0.1041214E+00
         21   -1    0    0  501  502  0.00000000000E+00  0.00000000000E+00  0.84287916140E+03  0.84287916140E+03  0.00000000000E+00 0. -1.
         21   -1    0    0  502  503 -0.00000000000E+00 -0.00000000000E+00 -0.46651054976E+03  0.46651054976E+03  0.00000000000E+00 0. -1.
    9000007    1    1    2  501    0  0.73823959173E+02 -0.24577150618E+02 -0.30942622280E+03  0.51166258475E+03  0.40000000000E+03 0. -1.
   -9000007    1    1    2    0  503 -0.73823959173E+02  0.24577150618E+02  0.68579483443E+03  0.79772712641E+03  0.40000000000E+03 0. -1.
<mgrwt>
<rscale>  2 0.40749726E+03</rscale>
<asrwt>0</asrwt>
<pdfrwt beam="1">  1       21 0.12967372E+00 0.40749726E+03</pdfrwt>
<pdfrwt beam="2">  1       21 0.71770854E-01 0.40749726E+03</pdfrwt>
<totfact> 0.65335613E+02</totfact>
</mgrwt>
</event>
<event>
 4    1  0.4821294E-002  0.4133034E+03  0.7818608E-02  0.1039268E+00
         21   -1    0    0  501  502  0.00000000000E+00  0.00000000000E+00  0.11072726282E+04  0.11072726282E+04  0.00000000000E+00 0. -1.
         21   -1    0    0  502  503 -0.00000000000E+00 -0.00000000000E+00 -0.36174353608E+03  0.36174353608E+03  0.00000000000E+00 0. -1.
    9000007    1    1    2  501    0  0.53920861777E+02  0.88950957866E+02  0.92902322830E+03  0.10168106466E+04  0.40000000000E+03 0. -1.
   -9000007    1    1    2    0  503 -0.53920861777E+02 -0.88950957866E+02 -0.18349413619E+03  0.45220551772E+03  0.40000000000E+03 0. -1.
<mgrwt>
<rscale>  2 0.41330344E+03</rscale>
<asrwt>0</asrwt>
<pdfrwt beam="1">  1       21 0.17034963E+00 0.41330344E+03</pdfrwt>
<pdfrwt beam="2">  1       21 0.55652852E-01 0.41330344E+03</pdfrwt>
<totfact> 0.54589758E+02</totfact>
</mgrwt>
</event>
<event>
 4    1  0.4821294E-002  0.5350975E+03  0.7818608E-02  0.1005003E+00
         21   -1    0    0  503  502  0.00000000000E+00  0.00000000000E+00  0.19249698343E+04  0.19249698343E+04  0.00000000000E+00 0. -1.
         21   -1    0    0  501  503 -0.00000000000E+00 -0.00000000000E+00 -0.21911165232E+03  0.21911165232E+03  0.00000000000E+00 0. -1.
    9000007    1    1    2  501    0 -0.31730433742E+03  0.16014758765E+03  0.14604518518E+04  0.15553934884E+04  0.40000000000E+03 0. -1.
   -9000007    1    1    2    0  502  0.31730433742E+03 -0.16014758765E+03  0.24540633025E+03  0.58868799827E+03  0.40000000000E+03 0. -1.
<mgrwt>
<rscale>  2 0.53509746E+03</rscale>
<asrwt>0</asrwt>
<pdfrwt beam="1">  1       21 0.29614920E+00 0.53509746E+03</pdfrwt>
<pdfrwt beam="2">  1       21 0.33709486E-01 0.53509746E+03</pdfrwt>
<totfact> 0.22880884E+02</totfact>
</mgrwt>
</event>
<event>
 4    1  0.4821294E-002  0.4502001E+03  0.7818608E-02  0.1027662E+00
         21   -1    0    0  503  502  0.00000000000E+00  0.00000000000E+00  0.13538886879E+03  0.13538886879E+03  0.00000000000E+00 0. -1.
         21   -1    0    0  501  503 -0.00000000000E+00 -0.00000000000E+00 -0.32426488232E+04  0.32426488232E+04  0.00000000000E+00 0. -1.
    9000007    1    1    2  501    0  0.12681944483E+03  0.16308568391E+03 -0.27928837309E+04  0.28289361333E+04  0.40000000000E+03 0. -1.
   -9000007    1    1    2    0  502 -0.12681944483E+03 -0.16308568391E+03 -0.31437622354E+03  0.54910155874E+03  0.40000000000E+03 0. -1.
<mgrwt>
<rscale>  2 0.45020008E+03</rscale>
<asrwt>0</asrwt>
<pdfrwt beam="1">  1       21 0.20829056E-01 0.45020008E+03</pdfrwt>
<pdfrwt beam="2">  1       21 0.49886907E+00 0.45020008E+03</pdfrwt>
<totfact> 0.30271029E+01</totfact>
</mgrwt>
</event>
<event>
 4    1  0.4821294E-002  0.4959351E+03  0.7818608E-02  0.1014845E+00
         21   -1    0    0  503  502  0.00000000000E+00  0.00000000000E+00  0.99221009327E+03  0.99221009327E+03  0.00000000000E+00 0. -1.
         21   -1    0    0  501  503 -0.00000000000E+00 -0.00000000000E+00 -0.32918400007E+03  0.32918400007E+03  0.00000000000E+00 0. -1.
    9000007    1    1    2  501    0 -0.19712602739E+03 -0.21700907258E+03  0.31668091908E+01  0.49594519549E+03  0.40000000000E+03 0. -1.
   -9000007    1    1    2    0  502  0.19712602739E+03  0.21700907258E+03  0.65985928401E+03  0.82544889784E+03  0.40000000000E+03 0. -1.
<mgrwt>
<rscale>  2 0.49593508E+03</rscale>
<asrwt>0</asrwt>
<pdfrwt beam="1">  1       21 0.15264771E+00 0.49593508E+03</pdfrwt>
<pdfrwt beam="2">  1       21 0.50643693E-01 0.49593508E+03</pdfrwt>
<totfact> 0.87498891E+02</totfact>
</mgrwt>
</event>
<event>
 4    1  0.4821294E-002  0.4188379E+03  0.7818608E-02  0.1037445E+00
         21   -1    0    0  501  502  0.00000000000E+00  0.00000000000E+00  0.10667431247E+03  0.10667431247E+03  0.00000000000E+00 0. -1.
         21   -1    0    0  502  503 -0.00000000000E+00 -0.00000000000E+00 -0.22326315015E+04  0.22326315015E+04  0.00000000000E+00 0.  1.
    9000007    1    1    2  501    0  0.44351815454E+02 -0.11600911315E+03 -0.46265120912E+03  0.62407638889E+03  0.40000000000E+03 0. -1.
   -9000007    1    1    2    0  503 -0.44351815454E+02  0.11600911315E+03 -0.16633059799E+04  0.17152294251E+04  0.40000000000E+03 0.  1.
<mgrwt>
<rscale>  2 0.41883791E+03</rscale>
<asrwt>0</asrwt>
<pdfrwt beam="1">  1       21 0.16411434E-01 0.41883791E+03</pdfrwt>
<pdfrwt beam="2">  1       21 0.34348174E+00 0.41883791E+03</pdfrwt>
<totfact> 0.50971059E+02</totfact>
</mgrwt>
</event>
<event>
 4    1  0.4821294E-002  0.4340045E+03  0.7818608E-02  0.1032602E+00
         21   -1    0    0  501  502  0.00000000000E+00  0.00000000000E+00  0.15462241887E+04  0.15462241887E+04  0.00000000000E+00 0.  1.
         21   -1    0    0  502  503 -0.00000000000E+00 -0.00000000000E+00 -0.13118766524E+03  0.13118766524E+03  0.00000000000E+00 0. -1.
    9000007    1    1    2  501    0 -0.15761360965E+03 -0.59311579240E+02  0.93164601689E+03  0.10277763444E+04  0.40000000000E+03 0. -1.
   -9000007    1    1    2    0  503  0.15761360965E+03  0.59311579240E+02  0.48339050660E+03  0.64963550954E+03  0.40000000000E+03 0. -1.
<mgrwt>
<rscale>  2 0.43400451E+03</rscale>
<asrwt>0</asrwt>
<pdfrwt beam="1">  1       21 0.23788063E+00 0.43400451E+03</pdfrwt>
<pdfrwt beam="2">  1       21 0.20182719E-01 0.43400451E+03</pdfrwt>
<totfact> 0.14901708E+03</totfact>
</mgrwt>
</event>
<event>
 4    1  0.4821294E-002  0.4375780E+03  0.7818608E-02  0.1031493E+00
         21   -1    0    0  503  502  0.00000000000E+00  0.00000000000E+00  0.15547322375E+03  0.15547322375E+03  0.00000000000E+00 0. -1.
         21   -1    0    0  501  503 -0.00000000000E+00 -0.00000000000E+00 -0.13249520881E+04  0.13249520881E+04  0.00000000000E+00 0. -1.
    9000007    1    1    2  501    0  0.12831575544E+03  0.12251363007E+03 -0.78126210876E+03  0.89545798630E+03  0.40000000000E+03 0. -1.
   -9000007    1    1    2    0  502 -0.12831575544E+03 -0.12251363007E+03 -0.38821675558E+03  0.58496732555E+03  0.40000000000E+03 0. -1.
<mgrwt>
<rscale>  2 0.43757802E+03</rscale>
<asrwt>0</asrwt>
<pdfrwt beam="1">  1       21 0.23918958E-01 0.43757802E+03</pdfrwt>
<pdfrwt beam="2">  1       21 0.20383877E+00 0.43757802E+03</pdfrwt>
<totfact> 0.17715001E+03</totfact>
</mgrwt>
</event>
<event>
 4    1  0.4821294E-002  0.4456545E+03  0.7818608E-02  0.1029026E+00
         21   -1    0    0  501  502  0.00000000000E+00  0.00000000000E+00  0.13388801997E+04  0.13388801997E+04  0.00000000000E+00 0. -1.
         21   -1    0    0  502  503 -0.00000000000E+00 -0.00000000000E+00 -0.16140801329E+03  0.16140801329E+03  0.00000000000E+00 0. -1.
    9000007    1    1    2  501    0  0.18231593606E+03 -0.73272017543E+02  0.80219131943E+03  0.91767031229E+03  0.40000000000E+03 0. -1.
   -9000007    1    1    2    0  503 -0.18231593606E+03  0.73272017543E+02  0.37528086701E+03  0.58261790072E+03  0.40000000000E+03 0. -1.
<mgrwt>
<rscale>  2 0.44565445E+03</rscale>
<asrwt>0</asrwt>
<pdfrwt beam="1">  1       21 0.20598156E+00 0.44565445E+03</pdfrwt>
<pdfrwt beam="2">  1       21 0.24832003E-01 0.44565445E+03</pdfrwt>
<totfact> 0.15889289E+03</totfact>
</mgrwt>
</event>
<event>
 4    1  0.4821294E-002  0.7534398E+03  0.7818608E-02  0.9629969E-01
         21   -1    0    0  503  502  0.00000000000E+00  0.00000000000E+00  0.11964867222E+04  0.11964867222E+04  0.00000000000E+00 0. -1.
         21   -1    0    0  501  503 -0.00000000000E+00 -0.00000000000E+00 -0.63964081659E+03  0.63964081659E+03  0.00000000000E+00 0.  1.
    9000007    1    1    2  501    0  0.60747684814E+03 -0.19657909557E+03 -0.18812849532E+03  0.77657182063E+03  0.40000000000E+03 0.  1.
   -9000007    1    1    2    0  502 -0.60747684814E+03  0.19657909557E+03  0.74497440093E+03  0.10595557182E+04  0.40000000000E+03 0. -1.
<mgrwt>
<rscale>  2 0.75343975E+03</rscale>
<asrwt>0</asrwt>
<pdfrwt beam="1">  1       21 0.18407488E+00 0.75343975E+03</pdfrwt>
<pdfrwt beam="2">  1       21 0.98406279E-01 0.75343975E+03</pdfrwt>
<totfact> 0.10282607E+02</totfact>
</mgrwt>
</event>
<event>
 4    1  0.4821294E-002  0.6042403E+03  0.7818608E-02  0.9896648E-01
         21   -1    0    0  503  502  0.00000000000E+00  0.00000000000E+00  0.21594799793E+04  0.21594799793E+04  0.00000000000E+00 0. -1.
         21   -1    0    0  501  503 -0.00000000000E+00 -0.00000000000E+00 -0.32907633217E+03  0.32907633217E+03  0.00000000000E+00 0. -1.
    9000007    1    1    2  501    0  0.26058636267E+03 -0.37040657935E+03  0.47569249892E+02  0.60610982501E+03  0.40000000000E+03 0. -1.
   -9000007    1    1    2    0  502 -0.26058636267E+03  0.37040657935E+03  0.17828343972E+04  0.18824464865E+04  0.40000000000E+03 0. -1.
<mgrwt>
<rscale>  2 0.60424026E+03</rscale>
<asrwt>0</asrwt>
<pdfrwt beam="1">  1       21 0.33222768E+00 0.60424026E+03</pdfrwt>
<pdfrwt beam="2">  1       21 0.50627129E-01 0.60424026E+03</pdfrwt>
<totfact> 0.57156066E+01</totfact>
</mgrwt>
</event>
<event>
 4    1  0.4821294E-002  0.4089100E+03  0.7818608E-02  0.1040737E+00
         21   -1    0    0  501  502  0.00000000000E+00  0.00000000000E+00  0.16222885509E+04  0.16222885509E+04  0.00000000000E+00 0.  1.
         21   -1    0    0  502  503 -0.00000000000E+00 -0.00000000000E+00 -0.10582350460E+03  0.10582350460E+03  0.00000000000E+00 0.  1.
    9000007    1    1    2  501    0 -0.67383918623E+02 -0.51641386333E+02  0.89763931270E+03  0.98638925429E+03  0.40000000000E+03 0. -1.
   -9000007    1    1    2    0  503  0.67383918623E+02  0.51641386333E+02  0.61882573356E+03  0.74172280118E+03  0.40000000000E+03 0. -1.
<mgrwt>
<rscale>  2 0.40891005E+03</rscale>
<asrwt>0</asrwt>
<pdfrwt beam="1">  1       21 0.24958284E+00 0.40891005E+03</pdfrwt>
<pdfrwt beam="2">  1       21 0.16280540E-01 0.40891005E+03</pdfrwt>
<totfact> 0.19153870E+03</totfact>
</mgrwt>
</event>
<event>
 4    1  0.4821294E-002  0.5061750E+03  0.7818608E-02  0.1012180E+00
         21   -1    0    0  501  502  0.00000000000E+00  0.00000000000E+00  0.15522046766E+03  0.15522046766E+03  0.00000000000E+00 0.  1.
         21   -1    0    0  502  503 -0.00000000000E+00 -0.00000000000E+00 -0.20559492194E+04  0.20559492194E+04  0.00000000000E+00 0. -1.
    9000007    1    1    2  501    0 -0.20331775232E+02  0.30951534993E+03 -0.45948017320E+03  0.68361916481E+03  0.40000000000E+03 0.  1.
   -9000007    1    1    2    0  503  0.20331775232E+02 -0.30951534993E+03 -0.14412485786E+04  0.15275505223E+04  0.40000000000E+03 0.  1.
<mgrwt>
<rscale>  2 0.50617500E+03</rscale>
<asrwt>0</asrwt>
<pdfrwt beam="1">  1       21 0.23880072E-01 0.50617500E+03</pdfrwt>
<pdfrwt beam="2">  1       21 0.31629988E+00 0.50617500E+03</pdfrwt>
<totfact> 0.34693812E+02</totfact>
</mgrwt>
</event>
<event>
 4    1  0.4821294E-002  0.5243519E+03  0.7818608E-02  0.1007611E+00
         21   -1    0    0  501  502  0.00000000000E+00  0.00000000000E+00  0.53272031834E+03  0.53272031834E+03  0.00000000000E+00 0. -1.
         21   -1    0    0  502  503 -0.00000000000E+00 -0.00000000000E+00 -0.62381626469E+03  0.62381626469E+03  0.00000000000E+00 0. -1.
    9000007    1    1    2  501    0  0.25782993799E+03  0.22015585914E+03  0.19472874444E+03  0.55934261696E+03  0.40000000000E+03 0. -1.
   -9000007    1    1    2    0  503 -0.25782993799E+03 -0.22015585914E+03 -0.28582469079E+03  0.59719396606E+03  0.40000000000E+03 0. -1.
<mgrwt>
<rscale>  2 0.52435187E+03</rscale>
<asrwt>0</asrwt>
<pdfrwt beam="1">  1       21 0.81956972E-01 0.52435187E+03</pdfrwt>
<pdfrwt beam="2">  1       21 0.95971733E-01 0.52435187E+03</pdfrwt>
<totfact> 0.97356711E+02</totfact>
</mgrwt>
</event>
<event>
 4    1  0.4821294E-002  0.4397828E+03  0.7818608E-02  0.1030813E+00
         21   -1    0    0  501  502  0.00000000000E+00  0.00000000000E+00  0.20949266017E+03  0.20949266017E+03  0.00000000000E+00 0. -1.
         21   -1    0    0  502  503 -0.00000000000E+00 -0.00000000000E+00 -0.92328503737E+03  0.92328503737E+03  0.00000000000E+00 0.  1.
    9000007    1    1    2  501    0 -0.59556961337E+02 -0.17280578258E+03 -0.35233053399E+03  0.56351191231E+03  0.40000000000E+03 0. -1.
   -9000007    1    1    2    0  503  0.59556961337E+02  0.17280578258E+03 -0.36146184320E+03  0.56926578522E+03  0.40000000000E+03 0.  1.
<mgrwt>
<rscale>  2 0.43978275E+03</rscale>
<asrwt>0</asrwt>
<pdfrwt beam="1">  1       21 0.32229640E-01 0.43978275E+03</pdfrwt>
<pdfrwt beam="2">  1       21 0.14204385E+00 0.43978275E+03</pdfrwt>
<totfact> 0.27646793E+03</totfact>
</mgrwt>
</event>
<event>
 4    1  0.4821294E-002  0.4906998E+03  0.7818608E-02  0.1016235E+00
         21   -1    0    0  503  502  0.00000000000E+00  0.00000000000E+00  0.15104400330E+03  0.15104400330E+03  0.00000000000E+00 0. -1.
         21   -1    0    0  501  503 -0.00000000000E+00 -0.00000000000E+00 -0.16110469095E+04  0.16110469095E+04  0.00000000000E+00 0.  1.
    9000007    1    1    2  501    0  0.11435786232E+03 -0.26020875577E+03 -0.63976360101E+03  0.80627773282E+03  0.40000000000E+03 0. -1.
   -9000007    1    1    2    0  502 -0.11435786232E+03  0.26020875577E+03 -0.82023930515E+03  0.95581317995E+03  0.40000000000E+03 0.  1.
<mgrwt>
<rscale>  2 0.49069982E+03</rscale>
<asrwt>0</asrwt>
<pdfrwt beam="1">  1       21 0.23237538E-01 0.49069982E+03</pdfrwt>
<pdfrwt beam="2">  1       21 0.24785338E+00 0.49069982E+03</pdfrwt>
<totfact> 0.96014402E+02</totfact>
</mgrwt>
</event>
<event>
 4    1  0.4821294E-002  0.4170685E+03  0.7818608E-02  0.1038025E+00
         21   -1    0    0  503  502  0.00000000000E+00  0.00000000000E+00  0.81248846585E+02  0.81248846585E+02  0.00000000000E+00 0. -1.
         21   -1    0    0  501  503 -0.00000000000E+00 -0.00000000000E+00 -0.21439600338E+04  0.21439600338E+04  0.00000000000E+00 0. -1.
    9000007    1    1    2  501    0 -0.91391731451E+02 -0.74790825457E+02 -0.10733501489E+04  0.11515323088E+04  0.40000000000E+03 0. -1.
   -9000007    1    1    2    0  502  0.91391731451E+02  0.74790825457E+02 -0.98936103830E+03  0.10736765715E+04  0.40000000000E+03 0. -1.
<mgrwt>
<rscale>  2 0.41706848E+03</rscale>
<asrwt>0</asrwt>
<pdfrwt beam="1">  1       21 0.12499826E-01 0.41706848E+03</pdfrwt>
<pdfrwt beam="2">  1       21 0.32983991E+00 0.41706848E+03</pdfrwt>
<totfact> 0.10203759E+03</totfact>
</mgrwt>
</event>
<event>
 4    1  0.4821294E-002  0.4081586E+03  0.7818608E-02  0.1040991E+00
         21   -1    0    0  501  502  0.00000000000E+00  0.00000000000E+00  0.96492857334E+03  0.96492857334E+03  0.00000000000E+00 0. -1.
         21   -1    0    0  502  503 -0.00000000000E+00 -0.00000000000E+00 -0.20286083803E+03  0.20286083803E+03  0.00000000000E+00 0. -1.
    9000007    1    1    2  501    0  0.11798296884E+02  0.80338207414E+02  0.60636848750E+03  0.73094197445E+03  0.40000000000E+03 0. -1.
   -9000007    1    1    2    0  503 -0.11798296884E+02 -0.80338207414E+02  0.15569924782E+03  0.43684743693E+03  0.40000000000E+03 0. -1.
<mgrwt>
<rscale>  2 0.40815858E+03</rscale>
<asrwt>0</asrwt>
<pdfrwt beam="1">  1       21 0.14845055E+00 0.40815858E+03</pdfrwt>
<pdfrwt beam="2">  1       21 0.31209360E-01 0.40815858E+03</pdfrwt>
<totfact> 0.26523776E+03</totfact>
</mgrwt>
</event>
<event>
 4    1  0.4821294E-002  0.4921313E+03  0.7818608E-02  0.1015853E+00
         21   -1    0    0  501  502  0.00000000000E+00  0.00000000000E+00  0.59162095149E+03  0.59162095149E+03  0.00000000000E+00 0. -1.
         21   -1    0    0  502  503 -0.00000000000E+00 -0.00000000000E+00 -0.41004825896E+03  0.41004825896E+03  0.00000000000E+00 0. -1.
    9000007    1    1    2  501    0 -0.13565046240E+03 -0.25257119350E+03  0.11112034713E+03  0.50452055189E+03  0.40000000000E+03 0. -1.
   -9000007    1    1    2    0  503  0.13565046240E+03  0.25257119350E+03  0.70452345401E+02  0.49714865856E+03  0.40000000000E+03 0. -1.
<mgrwt>
<rscale>  2 0.49213134E+03</rscale>
<asrwt>0</asrwt>
<pdfrwt beam="1">  1       21 0.91018608E-01 0.49213134E+03</pdfrwt>
<pdfrwt beam="2">  1       21 0.63084348E-01 0.49213134E+03</pdfrwt>
<totfact> 0.20247536E+03</totfact>
</mgrwt>
</event>
<event>
 4    1  0.4821294E-002  0.4448256E+03  0.7818608E-02  0.1029276E+00
         21   -1    0    0  503  502  0.00000000000E+00  0.00000000000E+00  0.55054602425E+03  0.55054602425E+03  0.00000000000E+00 0.  1.
         21   -1    0    0  501  503 -0.00000000000E+00 -0.00000000000E+00 -0.61976370005E+03  0.61976370005E+03  0.00000000000E+00 0.  1.
    9000007    1    1    2  501    0 -0.14473135268E+03  0.13008710462E+03 -0.41387364643E+03  0.60758638435E+03  0.40000000000E+03 0.  1.
   -9000007    1    1    2    0  502  0.14473135268E+03 -0.13008710462E+03  0.34465597062E+03  0.56272333995E+03  0.40000000000E+03 0.  1.
<mgrwt>
<rscale>  2 0.44482561E+03</rscale>
<asrwt>0</asrwt>
<pdfrwt beam="1">  1       21 0.84699388E-01 0.44482561E+03</pdfrwt>
<pdfrwt beam="2">  1       21 0.95348262E-01 0.44482561E+03</pdfrwt>
<totfact> 0.94422295E+02</totfact>
</mgrwt>
</event>
<event>
 4    1  0.4821294E-002  0.4322659E+03  0.7818608E-02  0.1033147E+00
         21   -1    0    0  501  502  0.00000000000E+00  0.00000000000E+00  0.45583464027E+03  0.45583464027E+03  0.00000000000E+00 0.  1.
         21   -1    0    0  502  503 -0.00000000000E+00 -0.00000000000E+00 -0.42578168811E+03  0.42578168811E+03  0.00000000000E+00 0.  1.
    9000007    1    1    2  501    0 -0.10670926830E+03 -0.12436607437E+03  0.10011859126E+03  0.44370882424E+03  0.40000000000E+03 0.  1.
   -9000007    1    1    2    0  503  0.10670926830E+03  0.12436607437E+03 -0.70065639098E+02  0.43790750413E+03  0.40000000000E+03 0.  1.
<mgrwt>
<rscale>  2 0.43226588E+03</rscale>
<asrwt>0</asrwt>
<pdfrwt beam="1">  1       21 0.70128406E-01 0.43226588E+03</pdfrwt>
<pdfrwt beam="2">  1       21 0.65504875E-01 0.43226588E+03</pdfrwt>
<totfact> 0.34761429E+03</totfact>
</mgrwt>
</event>
<event>
 4    1  0.4821294E-002  0.4850637E+03  0.7818608E-02  0.1017753E+00
         21   -1    0    0  501  502  0.00000000000E+00  0.00000000000E+00  0.15290038924E+04  0.15290038924E+04  0.00000000000E+00 0. -1.
         21   -1    0    0  502  503 -0.00000000000E+00 -0.00000000000E+00 -0.16487377221E+03  0.16487377221E+03  0.00000000000E+00 0. -1.
    9000007    1    1    2  501    0  0.24286187260E+03  0.12769052984E+03  0.90074179350E+03  0.10230457170E+04  0.40000000000E+03 0. -1.
   -9000007    1    1    2    0  503 -0.24286187260E+03 -0.12769052984E+03  0.46338832665E+03  0.67083194755E+03  0.40000000000E+03 0. -1.
<mgrwt>
<rscale>  2 0.48506367E+03</rscale>
<asrwt>0</asrwt>
<pdfrwt beam="1">  1       21 0.23523136E+00 0.48506367E+03</pdfrwt>
<pdfrwt beam="2">  1       21 0.25365197E-01 0.48506367E+03</pdfrwt>
<totfact> 0.97282539E+02</totfact>
</mgrwt>
</event>
<event>
 4    1  0.4821294E-002  0.4493893E+03  0.7818608E-02  0.1027904E+00
         21   -1    0    0  501  502  0.00000000000E+00  0.00000000000E+00  0.40434979756E+03  0.40434979756E+03  0.00000000000E+00 0.  1.
         21   -1    0    0  502  503 -0.00000000000E+00 -0.00000000000E+00 -0.50181264793E+03  0.50181264793E+03  0.00000000000E+00 0.  1.
    9000007    1    1    2  501    0 -0.20436733688E+03 -0.13591961624E+02 -0.79848851612E+02  0.45642807638E+03  0.40000000000E+03 0.  1.
   -9000007    1    1    2    0  503  0.20436733688E+03  0.13591961624E+02 -0.17613998766E+02  0.44973436911E+03  0.40000000000E+03 0.  1.
<mgrwt>
<rscale>  2 0.44938931E+03</rscale>
<asrwt>0</asrwt>
<pdfrwt beam="1">  1       21 0.62207661E-01 0.44938931E+03</pdfrwt>
<pdfrwt beam="2">  1       21 0.77201945E-01 0.44938931E+03</pdfrwt>
<totfact> 0.31138406E+03</totfact>
</mgrwt>
</event>
<event>
 4    1  0.4821294E-002  0.4585914E+03  0.7818608E-02  0.1025191E+00
         21   -1    0    0  501  502  0.00000000000E+00  0.00000000000E+00  0.75721176544E+03  0.75721176544E+03  0.00000000000E+00 0. -1.
         21   -1    0    0  502  503 -0.00000000000E+00 -0.00000000000E+00 -0.33723239037E+03  0.33723239037E+03  0.00000000000E+00 0. -1.
    9000007    1    1    2  501    0 -0.13021681328E+03 -0.18261877674E+03  0.43983683901E+03  0.63542307247E+03  0.40000000000E+03 0. -1.
   -9000007    1    1    2    0  503  0.13021681328E+03  0.18261877674E+03 -0.19857463943E+02  0.45902108334E+03  0.40000000000E+03 0. -1.
<mgrwt>
<rscale>  2 0.45859136E+03</rscale>
<asrwt>0</asrwt>
<pdfrwt beam="1">  1       21 0.11649412E+00 0.45859136E+03</pdfrwt>
<pdfrwt beam="2">  1       21 0.51881906E-01 0.45859136E+03</pdfrwt>
<totfact> 0.17142583E+03</totfact>
</mgrwt>
</event>
<event>
 4    1  0.4821294E-002  0.4963463E+03  0.7818608E-02  0.1014737E+00
         21   -1    0    0  503  502  0.00000000000E+00  0.00000000000E+00  0.29148119580E+03  0.29148119580E+03  0.00000000000E+00 0. -1.
         21   -1    0    0  501  503 -0.00000000000E+00 -0.00000000000E+00 -0.10543378894E+04  0.10543378894E+04  0.00000000000E+00 0. -1.
    9000007    1    1    2  501    0  0.32137980395E+02 -0.29210755652E+03 -0.68112643192E+03  0.84278875801E+03  0.40000000000E+03 0. -1.
   -9000007    1    1    2    0  502 -0.32137980395E+02  0.29210755652E+03 -0.81730261635E+02  0.50303032715E+03  0.40000000000E+03 0. -1.
<mgrwt>
<rscale>  2 0.49634633E+03</rscale>
<asrwt>0</asrwt>
<pdfrwt beam="1">  1       21 0.44843261E-01 0.49634633E+03</pdfrwt>
<pdfrwt beam="2">  1       21 0.16220583E+00 0.49634633E+03</pdfrwt>
<totfact> 0.95612882E+02</totfact>
</mgrwt>
</event>
<event>
 4    1  0.4821294E-002  0.5353180E+03  0.7818608E-02  0.1004951E+00
         21   -1    0    0  501  502  0.00000000000E+00  0.00000000000E+00  0.13782345911E+04  0.13782345911E+04  0.00000000000E+00 0.  1.
         21   -1    0    0  502  503 -0.00000000000E+00 -0.00000000000E+00 -0.21187280995E+03  0.21187280995E+03  0.00000000000E+00 0. -1.
    9000007    1    1    2  501    0  0.13915727700E+03 -0.32741506559E+03  0.47461367029E+03  0.71541841530E+03  0.40000000000E+03 0. -1.
   -9000007    1    1    2    0  503 -0.13915727700E+03  0.32741506559E+03  0.69174811086E+03  0.87468898575E+03  0.40000000000E+03 0.  1.
<mgrwt>
<rscale>  2 0.53531801E+03</rscale>
<asrwt>0</asrwt>
<pdfrwt beam="1">  1       21 0.21203608E+00 0.53531801E+03</pdfrwt>
<pdfrwt beam="2">  1       21 0.32595818E-01 0.53531801E+03</pdfrwt>
<totfact> 0.81534220E+02</totfact>
</mgrwt>
</event>
<event>
 4    1  0.4821294E-002  0.4903245E+03  0.7818608E-02  0.1016336E+00
         21   -1    0    0  501  502  0.00000000000E+00  0.00000000000E+00  0.72020600205E+03  0.72020600205E+03  0.00000000000E+00 0.  1.
         21   -1    0    0  502  503 -0.00000000000E+00 -0.00000000000E+00 -0.56401372338E+03  0.56401372338E+03  0.00000000000E+00 0.  1.
    9000007    1    1    2  501    0 -0.71268064661E+02 -0.27447943592E+03  0.48831218622E+03  0.69200208742E+03  0.40000000000E+03 0.  1.
   -9000007    1    1    2    0  503  0.71268064661E+02  0.27447943592E+03 -0.33211990754E+03  0.59221763801E+03  0.40000000000E+03 0.  1.
<mgrwt>
<rscale>  2 0.49032448E+03</rscale>
<asrwt>0</asrwt>
<pdfrwt beam="1">  1       21 0.11080092E+00 0.49032448E+03</pdfrwt>
<pdfrwt beam="2">  1       21 0.86771342E-01 0.49032448E+03</pdfrwt>
<totfact> 0.60610818E+02</totfact>
</mgrwt>
</event>
<event>
 4    1  0.4821294E-002  0.4442193E+03  0.7818608E-02  0.1029460E+00
         21   -1    0    0  501  502  0.00000000000E+00  0.00000000000E+00  0.41684884666E+03  0.41684884666E+03  0.00000000000E+00 0. -1.
         21   -1    0    0  502  503 -0.00000000000E+00 -0.00000000000E+00 -0.72570861466E+03  0.72570861466E+03  0.00000000000E+00 0. -1.
    9000007    1    1    2  501    0 -0.16587525330E+03  0.99076654403E+02  0.18242607145E+03  0.48021875708E+03  0.40000000000E+03 0. -1.
   -9000007    1    1    2    0  503  0.16587525330E+03 -0.99076654403E+02 -0.49128583944E+03  0.66233870425E+03  0.40000000000E+03 0. -1.
<mgrwt>
<rscale>  2 0.44421930E+03</rscale>
<asrwt>0</asrwt>
<pdfrwt beam="1">  1       21 0.64130593E-01 0.44421930E+03</pdfrwt>
<pdfrwt beam="2">  1       21 0.11164748E+00 0.44421930E+03</pdfrwt>
<totfact> 0.12084551E+03</totfact>
</mgrwt>
</event>
<event>
 4    1  0.4821294E-002  0.4733671E+03  0.7818608E-02  0.1020974E+00
         21   -1    0    0  501  502  0.00000000000E+00  0.00000000000E+00  0.51472817461E+03  0.51472817461E+03  0.00000000000E+00 0. -1.
         21   -1    0    0  502  503 -0.00000000000E+00 -0.00000000000E+00 -0.44589041400E+03  0.44589041400E+03  0.00000000000E+00 0. -1.
    9000007    1    1    2  501    0 -0.19475658776E+03 -0.16169819011E+03 -0.39499885834E+02  0.47501228841E+03  0.40000000000E+03 0. -1.
   -9000007    1    1    2    0  503  0.19475658776E+03  0.16169819011E+03  0.10833764644E+03  0.48560630020E+03  0.40000000000E+03 0. -1.
<mgrwt>
<rscale>  2 0.47336712E+03</rscale>
<asrwt>0</asrwt>
<pdfrwt beam="1">  1       21 0.79188950E-01 0.47336712E+03</pdfrwt>
<pdfrwt beam="2">  1       21 0.68598525E-01 0.47336712E+03</pdfrwt>
<totfact> 0.23427392E+03</totfact>
</mgrwt>
</event>
<event>
 4    1  0.4821294E-002  0.4004741E+03  0.7818608E-02  0.1043616E+00
         21   -1    0    0  501  502  0.00000000000E+00  0.00000000000E+00  0.26781937768E+03  0.26781937768E+03  0.00000000000E+00 0.  1.
         21   -1    0    0  502  503 -0.00000000000E+00 -0.00000000000E+00 -0.59959279705E+03  0.59959279705E+03  0.00000000000E+00 0.  1.
    9000007    1    1    2  501    0  0.88587446451E+01 -0.17349981764E+02 -0.15046367696E+03  0.42780698604E+03  0.40000000000E+03 0.  1.
   -9000007    1    1    2    0  503 -0.88587446451E+01  0.17349981764E+02 -0.18130974241E+03  0.43960518868E+03  0.40000000000E+03 0.  1.
<mgrwt>
<rscale>  2 0.40047409E+03</rscale>
<asrwt>0</asrwt>
<pdfrwt beam="1">  1       21 0.41202982E-01 0.40047409E+03</pdfrwt>
<pdfrwt beam="2">  1       21 0.92245044E-01 0.40047409E+03</pdfrwt>
<totfact> 0.50326605E+03</totfact>
</mgrwt>
</event>
<event>
 4    1  0.4821294E-002  0.4633936E+03  0.7818608E-02  0.1023802E+00
         21   -1    0    0  503  502  0.00000000000E+00  0.00000000000E+00  0.76907759590E+03  0.76907759590E+03  0.00000000000E+00 0.  1.
         21   -1    0    0  501  503 -0.00000000000E+00 -0.00000000000E+00 -0.27927111552E+03  0.27927111552E+03  0.00000000000E+00 0. -1.
    9000007    1    1    2  501    0 -0.17927645134E+03 -0.15031154215E+03  0.23710379031E+03  0.52053031909E+03  0.40000000000E+03 0. -1.
   -9000007    1    1    2    0  502  0.17927645134E+03  0.15031154215E+03  0.25270269008E+03  0.52781839233E+03  0.40000000000E+03 0.  1.
<mgrwt>
<rscale>  2 0.46339358E+03</rscale>
<asrwt>0</asrwt>
<pdfrwt beam="1">  1       21 0.11831963E+00 0.46339358E+03</pdfrwt>
<pdfrwt beam="2">  1       21 0.42964787E-01 0.46339358E+03</pdfrwt>
<totfact> 0.24502148E+03</totfact>
</mgrwt>
</event>
<event>
 4    1  0.4821294E-002  0.8190279E+03  0.7818608E-02  0.9532876E-01
         21   -1    0    0  503  502  0.00000000000E+00  0.00000000000E+00  0.15441259528E+04  0.15441259528E+04  0.00000000000E+00 0.  1.
         21   -1    0    0  501  503 -0.00000000000E+00 -0.00000000000E+00 -0.45608831612E+03  0.45608831612E+03  0.00000000000E+00 0. -1.
    9000007    1    1    2  501    0  0.93895009527E+02 -0.70851285004E+03  0.32605433862E+03  0.88154305806E+03  0.40000000000E+03 0. -1.
   -9000007    1    1    2    0  502 -0.93895009527E+02  0.70851285004E+03  0.76198329806E+03  0.11186712109E+04  0.40000000000E+03 0.  1.
<mgrwt>
<rscale>  2 0.81902792E+03</rscale>
<asrwt>0</asrwt>
<pdfrwt beam="1">  1       21 0.23755784E+00 0.81902792E+03</pdfrwt>
<pdfrwt beam="2">  1       21 0.70167434E-01 0.81902792E+03</pdfrwt>
<totfact> 0.98268925E+01</totfact>
</mgrwt>
</event>
<event>
 4    1  0.4821294E-002  0.5236498E+03  0.7818608E-02  0.1007784E+00
         21   -1    0    0  503  502  0.00000000000E+00  0.00000000000E+00  0.27634089954E+03  0.27634089954E+03  0.00000000000E+00 0. -1.
         21   -1    0    0  501  503 -0.00000000000E+00 -0.00000000000E+00 -0.12056359136E+04  0.12056359136E+04  0.00000000000E+00 0. -1.
    9000007    1    1    2  501    0 -0.15025850122E+03 -0.30270695765E+03 -0.15293812155E+03  0.54552652403E+03  0.40000000000E+03 0. -1.
   -9000007    1    1    2    0  502  0.15025850122E+03  0.30270695765E+03 -0.77635689247E+03  0.93645028906E+03  0.40000000000E+03 0. -1.
<mgrwt>
<rscale>  2 0.52364981E+03</rscale>
<asrwt>0</asrwt>
<pdfrwt beam="1">  1       21 0.42513985E-01 0.52364981E+03</pdfrwt>
<pdfrwt beam="2">  1       21 0.18548245E+00 0.52364981E+03</pdfrwt>
<totfact> 0.71792791E+02</totfact>
</mgrwt>
</event>
<event>
 4    1  0.4821294E-002  0.4322683E+03  0.7818608E-02  0.1033146E+00
         21   -1    0    0  501  502  0.00000000000E+00  0.00000000000E+00  0.24044658387E+03  0.24044658387E+03  0.00000000000E+00 0.  1.
         21   -1    0    0  502  503 -0.00000000000E+00 -0.00000000000E+00 -0.78362119337E+03  0.78362119337E+03  0.00000000000E+00 0.  1.
    9000007    1    1    2  501    0 -0.15531567491E+03 -0.52277039903E+02 -0.22494904181E+03  0.48729654132E+03  0.40000000000E+03 0.  1.
   -9000007    1    1    2    0  503  0.15531567491E+03  0.52277039903E+02 -0.31822556769E+03  0.53677123592E+03  0.40000000000E+03 0.  1.
<mgrwt>
<rscale>  2 0.43226826E+03</rscale>
<asrwt>0</asrwt>
<pdfrwt beam="1">  1       21 0.36991781E-01 0.43226826E+03</pdfrwt>
<pdfrwt beam="2">  1       21 0.12055711E+00 0.43226826E+03</pdfrwt>
<totfact> 0.32162302E+03</totfact>
</mgrwt>
</event>
<event>
 4    1  0.4821294E-002  0.4021798E+03  0.7818608E-02  0.1043027E+00
         21   -1    0    0  503  502  0.00000000000E+00  0.00000000000E+00  0.42541469292E+03  0.42541469292E+03  0.00000000000E+00 0. -1.
         21   -1    0    0  501  503 -0.00000000000E+00 -0.00000000000E+00 -0.11734619485E+04  0.11734619485E+04  0.00000000000E+00 0. -1.
    9000007    1    1    2  501    0 -0.15642305133E+02  0.38780085333E+02 -0.10313105091E+04  0.11069552579E+04  0.40000000000E+03 0. -1.
   -9000007    1    1    2    0  502  0.15642305133E+02 -0.38780085333E+02  0.28326325357E+03  0.49192138351E+03  0.40000000000E+03 0. -1.
<mgrwt>
<rscale>  2 0.40217978E+03</rscale>
<asrwt>0</asrwt>
<pdfrwt beam="1">  1       21 0.65448415E-01 0.40217978E+03</pdfrwt>
<pdfrwt beam="2">  1       21 0.18053260E+00 0.40217978E+03</pdfrwt>
<totfact> 0.32586674E+02</totfact>
</mgrwt>
</event>
<event>
 4    1  0.4821294E-002  0.4177099E+03  0.7818608E-02  0.1037814E+00
         21   -1    0    0  501  502  0.00000000000E+00  0.00000000000E+00  0.26793113795E+04  0.26793113795E+04  0.00000000000E+00 0. -1.
         21   -1    0    0  502  503 -0.00000000000E+00 -0.00000000000E+00 -0.78067269070E+02  0.78067269070E+02  0.00000000000E+00 0.  1.
    9000007    1    1    2  501    0 -0.78577024930E+02 -0.91143935636E+02  0.18620459621E+04  0.19083230154E+04  0.40000000000E+03 0. -1.
   -9000007    1    1    2    0  503  0.78577024930E+02  0.91143935636E+02  0.73919814832E+03  0.84905563324E+03  0.40000000000E+03 0.  1.
<mgrwt>
<rscale>  2 0.41770991E+03</rscale>
<asrwt>0</asrwt>
<pdfrwt beam="1">  1       21 0.41220168E+00 0.41770991E+03</pdfrwt>
<pdfrwt beam="2">  1       21 0.12010351E-01 0.41770991E+03</pdfrwt>
<totfact> 0.33617900E+02</totfact>
</mgrwt>
</event>
<event>
 4    1  0.4821294E-002  0.4583809E+03  0.7818608E-02  0.1025252E+00
         21   -1    0    0  503  502  0.00000000000E+00  0.00000000000E+00  0.22068420937E+03  0.22068420937E+03  0.00000000000E+00 0.  1.
         21   -1    0    0  501  503 -0.00000000000E+00 -0.00000000000E+00 -0.10543535716E+04  0.10543535716E+04  0.00000000000E+00 0.  1.
    9000007    1    1    2  501    0 -0.11331320530E+03  0.19306258162E+03 -0.61537236193E+03  0.76733055898E+03  0.40000000000E+03 0.  1.
   -9000007    1    1    2    0  502  0.11331320530E+03 -0.19306258162E+03 -0.21829700029E+03  0.50770722199E+03  0.40000000000E+03 0.  1.
<mgrwt>
<rscale>  2 0.45838089E+03</rscale>
<asrwt>0</asrwt>
<pdfrwt beam="1">  1       21 0.33951417E-01 0.45838089E+03</pdfrwt>
<pdfrwt beam="2">  1       21 0.16220824E+00 0.45838089E+03</pdfrwt>
<totfact> 0.17202353E+03</totfact>
</mgrwt>
</event>
<event>
 4    1  0.4821294E-002  0.4159428E+03  0.7818608E-02  0.1038395E+00
         21   -1    0    0  501  502  0.00000000000E+00  0.00000000000E+00  0.15958713291E+04  0.15958713291E+04  0.00000000000E+00 0.  1.
         21   -1    0    0  502  503 -0.00000000000E+00 -0.00000000000E+00 -0.10920143354E+03  0.10920143354E+03  0.00000000000E+00 0.  1.
    9000007    1    1    2  501    0  0.80028346230E+02 -0.81264121894E+02  0.81591360240E+03  0.91581843194E+03  0.40000000000E+03 0.  1.
   -9000007    1    1    2    0  503 -0.80028346230E+02  0.81264121894E+02  0.67075629317E+03  0.78925433070E+03  0.40000000000E+03 0.  1.
<mgrwt>
<rscale>  2 0.41594278E+03</rscale>
<asrwt>0</asrwt>
<pdfrwt beam="1">  1       21 0.24551865E+00 0.41594278E+03</pdfrwt>
<pdfrwt beam="2">  1       21 0.16800222E-01 0.41594278E+03</pdfrwt>
<totfact> 0.19061928E+03</totfact>
</mgrwt>
</event>
<event>
 4    1  0.4821294E-002  0.4016338E+03  0.7818608E-02  0.1043215E+00
         21   -1    0    0  503  502  0.00000000000E+00  0.00000000000E+00  0.13874527141E+04  0.13874527141E+04  0.00000000000E+00 0.  1.
         21   -1    0    0  501  503 -0.00000000000E+00 -0.00000000000E+00 -0.19514893665E+03  0.19514893665E+03  0.00000000000E+00 0.  1.
    9000007    1    1    2  501    0 -0.25885174027E+02  0.25291398643E+02  0.93047903471E+02  0.41227128134E+03  0.40000000000E+03 0.  1.
   -9000007    1    1    2    0  502  0.25885174027E+02 -0.25291398643E+02  0.10992558740E+04  0.11703303695E+04  0.40000000000E+03 0.  1.
<mgrwt>
<rscale>  2 0.40163378E+03</rscale>
<asrwt>0</asrwt>
<pdfrwt beam="1">  1       21 0.21345426E+00 0.40163378E+03</pdfrwt>
<pdfrwt beam="2">  1       21 0.30022914E-01 0.40163378E+03</pdfrwt>
<totfact> 0.99985720E+02</totfact>
</mgrwt>
</event>
<event>
 4    1  0.4821294E-002  0.4027945E+03  0.7818608E-02  0.1042816E+00
         21   -1    0    0  501  502  0.00000000000E+00  0.00000000000E+00  0.58178008099E+02  0.58178008099E+02  0.00000000000E+00 0. -1.
         21   -1    0    0  502  503 -0.00000000000E+00 -0.00000000000E+00 -0.28187516475E+04  0.28187516475E+04  0.00000000000E+00 0. -1.
    9000007    1    1    2  501    0 -0.62981354541E+01 -0.46944153507E+02 -0.15287113188E+04  0.15808863705E+04  0.40000000000E+03 0.  1.
   -9000007    1    1    2    0  503  0.62981354541E+01  0.46944153507E+02 -0.12318623206E+04  0.12960432851E+04  0.40000000000E+03 0.  1.
<mgrwt>
<rscale>  2 0.40279451E+03</rscale>
<asrwt>0</asrwt>
<pdfrwt beam="1">  1       21 0.89504632E-02 0.40279451E+03</pdfrwt>
<pdfrwt beam="2">  1       21 0.43365408E+00 0.40279451E+03</pdfrwt>
<totfact> 0.41738730E+02</totfact>
</mgrwt>
</event>
<event>
 4    1  0.4821294E-002  0.4421068E+03  0.7818608E-02  0.1030102E+00
         21   -1    0    0  503  502  0.00000000000E+00  0.00000000000E+00  0.25328599561E+03  0.25328599561E+03  0.00000000000E+00 0.  1.
         21   -1    0    0  501  503 -0.00000000000E+00 -0.00000000000E+00 -0.12529481047E+04  0.12529481047E+04  0.00000000000E+00 0.  1.
    9000007    1    1    2  501    0  0.18453303225E+03  0.37496479609E+02 -0.96658144335E+03  0.10628913927E+04  0.40000000000E+03 0.  1.
   -9000007    1    1    2    0  502 -0.18453303225E+03 -0.37496479609E+02 -0.33080665737E+02  0.44334270764E+03  0.40000000000E+03 0.  1.
<mgrwt>
<rscale>  2 0.44210680E+03</rscale>
<asrwt>0</asrwt>
<pdfrwt beam="1">  1       21 0.38967077E-01 0.44210680E+03</pdfrwt>
<pdfrwt beam="2">  1       21 0.19276125E+00 0.44210680E+03</pdfrwt>
<totfact> 0.79363660E+02</totfact>
</mgrwt>
</event>
<event>
 4    1  0.4821294E-002  0.4299497E+03  0.7818608E-02  0.1033876E+00
         21   -1    0    0  503  502  0.00000000000E+00  0.00000000000E+00  0.97355627580E+02  0.97355627580E+02  0.00000000000E+00 0.  1.
         21   -1    0    0  501  503 -0.00000000000E+00 -0.00000000000E+00 -0.33878365292E+04  0.33878365292E+04  0.00000000000E+00 0.  1.
    9000007    1    1    2  501    0 -0.39058343186E+02 -0.15274562480E+03 -0.28005312355E+04  0.28333428986E+04  0.40000000000E+03 0.  1.
   -9000007    1    1    2    0  502  0.39058343186E+02  0.15274562480E+03 -0.48994966617E+03  0.65184925822E+03  0.40000000000E+03 0.  1.
<mgrwt>
<rscale>  2 0.42994974E+03</rscale>
<asrwt>0</asrwt>
<pdfrwt beam="1">  1       21 0.14977790E-01 0.42994974E+03</pdfrwt>
<pdfrwt beam="2">  1       21 0.52120557E+00 0.42994974E+03</pdfrwt>
<totfact> 0.39457435E+01</totfact>
</mgrwt>
</event>
<event>
 4    1  0.4821294E-002  0.4246179E+03  0.7818608E-02  0.1035574E+00
         21   -1    0    0  501  502  0.00000000000E+00  0.00000000000E+00  0.19831408917E+03  0.19831408917E+03  0.00000000000E+00 0. -1.
         21   -1    0    0  502  503 -0.00000000000E+00 -0.00000000000E+00 -0.10329831027E+04  0.10329831027E+04  0.00000000000E+00 0. -1.
    9000007    1    1    2  501    0  0.59793580350E+02  0.12932553010E+03 -0.20418852323E+03  0.47116166865E+03  0.40000000000E+03 0. -1.
   -9000007    1    1    2    0  503 -0.59793580350E+02 -0.12932553010E+03 -0.63048049026E+03  0.76013552317E+03  0.40000000000E+03 0. -1.
<mgrwt>
<rscale>  2 0.42461790E+03</rscale>
<asrwt>0</asrwt>
<pdfrwt beam="1">  1       21 0.30509860E-01 0.42461790E+03</pdfrwt>
<pdfrwt beam="2">  1       21 0.15892047E+00 0.42461790E+03</pdfrwt>
<totfact> 0.22874270E+03</totfact>
</mgrwt>
</event>
<event>
 4    1  0.4821294E-002  0.4364316E+03  0.7818608E-02  0.1031847E+00
         21   -1    0    0  503  502  0.00000000000E+00  0.00000000000E+00  0.10537284786E+04  0.10537284786E+04  0.00000000000E+00 0.  1.
         21   -1    0    0  501  503 -0.00000000000E+00 -0.00000000000E+00 -0.26114094302E+03  0.26114094302E+03  0.00000000000E+00 0. -1.
    9000007    1    1    2  501    0 -0.16696251636E+03 -0.50951216975E+02  0.31547977703E+02  0.43757031810E+03  0.40000000000E+03 0. -1.
   -9000007    1    1    2    0  502  0.16696251636E+03  0.50951216975E+02  0.76103955784E+03  0.87729910349E+03  0.40000000000E+03 0.  1.
<mgrwt>
<rscale>  2 0.43643156E+03</rscale>
<asrwt>0</asrwt>
<pdfrwt beam="1">  1       21 0.16211207E+00 0.43643156E+03</pdfrwt>
<pdfrwt beam="2">  1       21 0.40175530E-01 0.43643156E+03</pdfrwt>
<totfact> 0.12341278E+03</totfact>
</mgrwt>
</event>
<event>
 4    1  0.4821294E-002  0.5492977E+03  0.7818608E-02  0.1001657E+00
         21   -1    0    0  501  502  0.00000000000E+00  0.00000000000E+00  0.34611630789E+03  0.34611630789E+03  0.00000000000E+00 0.  1.
         21   -1    0    0  502  503 -0.00000000000E+00 -0.00000000000E+00 -0.17509401605E+04  0.17509401605E+04  0.00000000000E+00 0. -1.
    9000007    1    1    2  501    0 -0.36580181662E+03  0.88977712999E+02  0.40581709964E+02  0.55079476907E+03  0.40000000000E+03 0.  1.
   -9000007    1    1    2    0  503  0.36580181662E+03 -0.88977712999E+02 -0.14454055626E+04  0.15462616993E+04  0.40000000000E+03 0. -1.
<mgrwt>
<rscale>  2 0.54929774E+03</rscale>
<asrwt>0</asrwt>
<pdfrwt beam="1">  1       21 0.53248664E-01 0.54929774E+03</pdfrwt>
<pdfrwt beam="2">  1       21 0.26937540E+00 0.54929774E+03</pdfrwt>
<totfact> 0.12732897E+02</totfact>
</mgrwt>
</event>
<event>
 4    1  0.4821294E-002  0.5056777E+03  0.7818608E-02  0.1012307E+00
         21   -1    0    0  503  502  0.00000000000E+00  0.00000000000E+00  0.47449454606E+03  0.47449454606E+03  0.00000000000E+00 0. -1.
         21   -1    0    0  501  503 -0.00000000000E+00 -0.00000000000E+00 -0.90438600852E+03  0.90438600852E+03  0.00000000000E+00 0. -1.
    9000007    1    1    2  501    0 -0.16126033507E+03  0.26401716043E+03 -0.65322309861E+03  0.82608133572E+03  0.40000000000E+03 0. -1.
   -9000007    1    1    2    0  502  0.16126033507E+03 -0.26401716043E+03  0.22333163614E+03  0.55279921886E+03  0.40000000000E+03 0. -1.
<mgrwt>
<rscale>  2 0.50567772E+03</rscale>
<asrwt>0</asrwt>
<pdfrwt beam="1">  1       21 0.72999161E-01 0.50567772E+03</pdfrwt>
<pdfrwt beam="2">  1       21 0.13913631E+00 0.50567772E+03</pdfrwt>
<totfact> 0.50038839E+02</totfact>
</mgrwt>
</event>
<event>
 4    1  0.4821294E-002  0.4950718E+03  0.7818608E-02  0.1015073E+00
         21   -1    0    0  501  502  0.00000000000E+00  0.00000000000E+00  0.69476917133E+03  0.69476917133E+03  0.00000000000E+00 0. -1.
         21   -1    0    0  502  503 -0.00000000000E+00 -0.00000000000E+00 -0.37616986515E+03  0.37616986515E+03  0.00000000000E+00 0.  1.
    9000007    1    1    2  501    0 -0.35976401021E+02 -0.28948545056E+03  0.29284146940E+03  0.57519757798E+03  0.40000000000E+03 0. -1.
   -9000007    1    1    2    0  503  0.35976401021E+02  0.28948545056E+03  0.25757836782E+02  0.49574145850E+03  0.40000000000E+03 0.  1.
<mgrwt>
<rscale>  2 0.49507184E+03</rscale>
<asrwt>0</asrwt>
<pdfrwt beam="1">  1       21 0.10688756E+00 0.49507184E+03</pdfrwt>
<pdfrwt beam="2">  1       21 0.57872287E-01 0.49507184E+03</pdfrwt>
<totfact> 0.16551483E+03</totfact>
</mgrwt>
</event>
<event>
 4    1  0.4821294E-002  0.5063479E+03  0.7818608E-02  0.1012135E+00
         21   -1    0    0  501  502  0.00000000000E+00  0.00000000000E+00  0.19432910060E+04  0.19432910060E+04  0.00000000000E+00 0.  1.
         21   -1    0    0  502  503 -0.00000000000E+00 -0.00000000000E+00 -0.54887318705E+03  0.54887318705E+03  0.00000000000E+00 0.  1.
    9000007    1    1    2  501    0  0.69595760442E+02  0.30256339742E+03  0.17832505164E+04  0.18537450158E+04  0.40000000000E+03 0.  1.
   -9000007    1    1    2    0  503 -0.69595760442E+02 -0.30256339742E+03 -0.38883269743E+03  0.63841917728E+03  0.40000000000E+03 0.  1.
<mgrwt>
<rscale>  2 0.50634788E+03</rscale>
<asrwt>0</asrwt>
<pdfrwt beam="1">  1       21 0.29896784E+00 0.50634788E+03</pdfrwt>
<pdfrwt beam="2">  1       21 0.84442030E-01 0.50634788E+03</pdfrwt>
<totfact> 0.30615505E+01</totfact>
</mgrwt>
</event>
<event>
 4    1  0.4821294E-002  0.4774115E+03  0.7818608E-02  0.1019849E+00
         21   -1    0    0  501  502  0.00000000000E+00  0.00000000000E+00  0.61105476576E+03  0.61105476576E+03  0.00000000000E+00 0. -1.
         21   -1    0    0  502  503 -0.00000000000E+00 -0.00000000000E+00 -0.40089579223E+03  0.40089579223E+03  0.00000000000E+00 0. -1.
    9000007    1    1    2  501    0  0.36436264062E+02  0.25805836591E+03  0.23855593204E+03  0.53369528222E+03  0.40000000000E+03 0. -1.
   -9000007    1    1    2    0  503 -0.36436264062E+02 -0.25805836591E+03 -0.28396958509E+02  0.47825527578E+03  0.40000000000E+03 0. -1.
<mgrwt>
<rscale>  2 0.47741148E+03</rscale>
<asrwt>0</asrwt>
<pdfrwt beam="1">  1       21 0.94008425E-01 0.47741148E+03</pdfrwt>
<pdfrwt beam="2">  1       21 0.61676276E-01 0.47741148E+03</pdfrwt>
<totfact> 0.19804930E+03</totfact>
</mgrwt>
</event>
<event>
 4    1  0.4821294E-002  0.4917824E+03  0.7818608E-02  0.1015946E+00
         21   -1    0    0  503  502  0.00000000000E+00  0.00000000000E+00  0.29582390994E+03  0.29582390994E+03  0.00000000000E+00 0. -1.
         21   -1    0    0  501  503 -0.00000000000E+00 -0.00000000000E+00 -0.83846143466E+03  0.83846143466E+03  0.00000000000E+00 0. -1.
    9000007    1    1    2  501    0 -0.20443607103E+02 -0.28536287522E+03 -0.18174615952E+03  0.52429150110E+03  0.40000000000E+03 0. -1.
   -9000007    1    1    2    0  502  0.20443607103E+02  0.28536287522E+03 -0.36089136520E+03  0.60999384349E+03  0.40000000000E+03 0. -1.
<mgrwt>
<rscale>  2 0.49178238E+03</rscale>
<asrwt>0</asrwt>
<pdfrwt beam="1">  1       21 0.45511371E-01 0.49178238E+03</pdfrwt>
<pdfrwt beam="2">  1       21 0.12899407E+00 0.49178238E+03</pdfrwt>
<totfact> 0.17219724E+03</totfact>
</mgrwt>
</event>
<event>
 4    1  0.4821294E-002  0.4655985E+03  0.7818608E-02  0.1023170E+00
         21   -1    0    0  501  502  0.00000000000E+00  0.00000000000E+00  0.19795905224E+04  0.19795905224E+04  0.00000000000E+00 0. -1.
         21   -1    0    0  502  503 -0.00000000000E+00 -0.00000000000E+00 -0.11724332394E+03  0.11724332394E+03  0.00000000000E+00 0.  1.
    9000007    1    1    2  501    0  0.22662113181E+03  0.73653647078E+02  0.12004603950E+04  0.12875896695E+04  0.40000000000E+03 0. -1.
   -9000007    1    1    2    0  503 -0.22662113181E+03 -0.73653647078E+02  0.66188680344E+03  0.80924417680E+03  0.40000000000E+03 0.  1.
<mgrwt>
<rscale>  2 0.46559854E+03</rscale>
<asrwt>0</asrwt>
<pdfrwt beam="1">  1       21 0.30455236E+00 0.46559854E+03</pdfrwt>
<pdfrwt beam="2">  1       21 0.18037436E-01 0.46559854E+03</pdfrwt>
<totfact> 0.71419114E+02</totfact>
</mgrwt>
</event>
<event>
 4    1  0.4821294E-002  0.4371945E+03  0.7818608E-02  0.1031611E+00
         21   -1    0    0  501  502  0.00000000000E+00  0.00000000000E+00  0.68924622447E+03  0.68924622447E+03  0.00000000000E+00 0. -1.
         21   -1    0    0  502  503 -0.00000000000E+00 -0.00000000000E+00 -0.44353610337E+03  0.44353610337E+03  0.00000000000E+00 0. -1.
    9000007    1    1    2  501    0 -0.11832863905E+03 -0.13090989447E+03  0.46958683241E+03  0.64160023415E+03  0.40000000000E+03 0. -1.
   -9000007    1    1    2    0  503  0.11832863905E+03  0.13090989447E+03 -0.22387671131E+03  0.49118209368E+03  0.40000000000E+03 0. -1.
<mgrwt>
<rscale>  2 0.43719454E+03</rscale>
<asrwt>0</asrwt>
<pdfrwt beam="1">  1       21 0.10603788E+00 0.43719454E+03</pdfrwt>
<pdfrwt beam="2">  1       21 0.68236324E-01 0.43719454E+03</pdfrwt>
<totfact> 0.11991171E+03</totfact>
</mgrwt>
</event>
<event>
 4    1  0.4821294E-002  0.4966995E+03  0.7818608E-02  0.1014644E+00
         21   -1    0    0  503  502  0.00000000000E+00  0.00000000000E+00  0.70025642207E+03  0.70025642207E+03  0.00000000000E+00 0. -1.
         21   -1    0    0  501  503 -0.00000000000E+00 -0.00000000000E+00 -0.40072501107E+03  0.40072501107E+03  0.00000000000E+00 0. -1.
    9000007    1    1    2  501    0 -0.15210882581E+03  0.25213752508E+03 -0.41570441130E+02  0.49843608218E+03  0.40000000000E+03 0. -1.
   -9000007    1    1    2    0  502  0.15210882581E+03 -0.25213752508E+03  0.34110185213E+03  0.60254535097E+03  0.40000000000E+03 0. -1.
<mgrwt>
<rscale>  2 0.49669953E+03</rscale>
<asrwt>0</asrwt>
<pdfrwt beam="1">  1       21 0.10773176E+00 0.49669953E+03</pdfrwt>
<pdfrwt beam="2">  1       21 0.61650002E-01 0.49669953E+03</pdfrwt>
<totfact> 0.14120316E+03</totfact>
</mgrwt>
</event>
<event>
 4    1  0.4821294E-002  0.5567382E+03  0.7818608E-02  0.9999462E-01
         21   -1    0    0  503  502  0.00000000000E+00  0.00000000000E+00  0.20234797744E+04  0.20234797744E+04  0.00000000000E+00 0.  1.
         21   -1    0    0  501  503 -0.00000000000E+00 -0.00000000000E+00 -0.18813318553E+03  0.18813318553E+03  0.00000000000E+00 0.  1.
    9000007    1    1    2  501    0  0.25265737436E+03  0.29346494877E+03  0.44103671190E+03  0.71026108314E+03  0.40000000000E+03 0.  1.
   -9000007    1    1    2    0  502 -0.25265737436E+03 -0.29346494877E+03  0.13943098770E+04  0.15013518768E+04  0.40000000000E+03 0.  1.
<mgrwt>
<rscale>  2 0.55673820E+03</rscale>
<asrwt>0</asrwt>
<pdfrwt beam="1">  1       21 0.31130457E+00 0.55673820E+03</pdfrwt>
<pdfrwt beam="2">  1       21 0.28943568E-01 0.55673820E+03</pdfrwt>
<totfact> 0.24866491E+02</totfact>
</mgrwt>
</event>
<event>
 4    1  0.4821294E-002  0.4105036E+03  0.7818608E-02  0.1040202E+00
         21   -1    0    0  503  502  0.00000000000E+00  0.00000000000E+00  0.28666387057E+03  0.28666387057E+03  0.00000000000E+00 0.  1.
         21   -1    0    0  501  503 -0.00000000000E+00 -0.00000000000E+00 -0.13205386705E+04  0.13205386705E+04  0.00000000000E+00 0.  1.
    9000007    1    1    2  501    0  0.26773129038E+02  0.88297208352E+02 -0.11155240448E+04  0.11886576849E+04  0.40000000000E+03 0.  1.
   -9000007    1    1    2    0  502 -0.26773129038E+02 -0.88297208352E+02  0.81649244836E+02  0.41854485617E+03  0.40000000000E+03 0.  1.
<mgrwt>
<rscale>  2 0.41050359E+03</rscale>
<asrwt>0</asrwt>
<pdfrwt beam="1">  1       21 0.44102133E-01 0.41050359E+03</pdfrwt>
<pdfrwt beam="2">  1       21 0.20315980E+00 0.41050359E+03</pdfrwt>
<totfact> 0.53177649E+02</totfact>
</mgrwt>
</event>
<event>
 4    1  0.4821294E-002  0.4036358E+03  0.7818608E-02  0.1042528E+00
         21   -1    0    0  501  502  0.00000000000E+00  0.00000000000E+00  0.41624106402E+03  0.41624106402E+03  0.00000000000E+00 0.  1.
         21   -1    0    0  502  503 -0.00000000000E+00 -0.00000000000E+00 -0.56399710027E+03  0.56399710027E+03  0.00000000000E+00 0.  1.
    9000007    1    1    2  501    0 -0.53929108851E+02  0.36799723033E+01 -0.34499978832E+03  0.53098657697E+03  0.40000000000E+03 0.  1.
   -9000007    1    1    2    0  503  0.53929108851E+02 -0.36799723033E+01  0.19724375207E+03  0.44925158732E+03  0.40000000000E+03 0.  1.
<mgrwt>
<rscale>  2 0.40363584E+03</rscale>
<asrwt>0</asrwt>
<pdfrwt beam="1">  1       21 0.64037087E-01 0.40363584E+03</pdfrwt>
<pdfrwt beam="2">  1       21 0.86768785E-01 0.40363584E+03</pdfrwt>
<totfact> 0.22669970E+03</totfact>
</mgrwt>
</event>
<event>
 4    1  0.4821294E-002  0.4667845E+03  0.7818608E-02  0.1022832E+00
         21   -1    0    0  501  502  0.00000000000E+00  0.00000000000E+00  0.60322177371E+03  0.60322177371E+03  0.00000000000E+00 0. -1.
         21   -1    0    0  502  503 -0.00000000000E+00 -0.00000000000E+00 -0.36120732119E+03  0.36120732119E+03  0.00000000000E+00 0. -1.
    9000007    1    1    2  501    0 -0.23679101393E+03 -0.42635017761E+02  0.12165397561E+03  0.48237684314E+03  0.40000000000E+03 0. -1.
   -9000007    1    1    2    0  503  0.23679101393E+03  0.42635017761E+02  0.12036047691E+03  0.48205225176E+03  0.40000000000E+03 0. -1.
<mgrwt>
<rscale>  2 0.46678446E+03</rscale>
<asrwt>0</asrwt>
<pdfrwt beam="1">  1       21 0.92803350E-01 0.46678446E+03</pdfrwt>
<pdfrwt beam="2">  1       21 0.55570357E-01 0.46678446E+03</pdfrwt>
<totfact> 0.25746435E+03</totfact>
</mgrwt>
</event>
<event>
 4    1  0.4821294E-002  0.5185591E+03  0.7818608E-02  0.1009045E+00
         21   -1    0    0  503  502  0.00000000000E+00  0.00000000000E+00  0.65131806976E+03  0.65131806976E+03  0.00000000000E+00 0.  1.
         21   -1    0    0  501  503 -0.00000000000E+00 -0.00000000000E+00 -0.50717016612E+03  0.50717016612E+03  0.00000000000E+00 0. -1.
    9000007    1    1    2  501    0  0.30728674107E+03 -0.12032619896E+03 -0.17770898961E+03  0.54816422757E+03  0.40000000000E+03 0. -1.
   -9000007    1    1    2    0  502 -0.30728674107E+03  0.12032619896E+03  0.32185689325E+03  0.61032400832E+03  0.40000000000E+03 0.  1.
<mgrwt>
<rscale>  2 0.51855910E+03</rscale>
<asrwt>0</asrwt>
<pdfrwt beam="1">  1       21 0.10020278E+00 0.51855910E+03</pdfrwt>
<pdfrwt beam="2">  1       21 0.78026179E-01 0.51855910E+03</pdfrwt>
<totfact> 0.98471282E+02</totfact>
</mgrwt>
</event>
<event>
 4    1  0.4821294E-002  0.5052326E+03  0.7818608E-02  0.1012422E+00
         21   -1    0    0  503  502  0.00000000000E+00  0.00000000000E+00  0.91735530853E+03  0.91735530853E+03  0.00000000000E+00 0. -1.
         21   -1    0    0  501  503 -0.00000000000E+00 -0.00000000000E+00 -0.29876937890E+03  0.29876937890E+03  0.00000000000E+00 0. -1.
    9000007    1    1    2  501    0 -0.68150640157E+02  0.30102408252E+03  0.14996420494E+03  0.52701923188E+03  0.40000000000E+03 0. -1.
   -9000007    1    1    2    0  502  0.68150640157E+02 -0.30102408252E+03  0.46862172469E+03  0.68910545555E+03  0.40000000000E+03 0. -1.
<mgrwt>
<rscale>  2 0.50523263E+03</rscale>
<asrwt>0</asrwt>
<pdfrwt beam="1">  1       21 0.14113158E+00 0.50523263E+03</pdfrwt>
<pdfrwt beam="2">  1       21 0.45964520E-01 0.50523263E+03</pdfrwt>
<totfact> 0.13244820E+03</totfact>
</mgrwt>
</event>
<event>
 4    1  0.4821294E-002  0.5616082E+03  0.7818608E-02  0.9988422E-01
         21   -1    0    0  501  502  0.00000000000E+00  0.00000000000E+00  0.75001899574E+03  0.75001899574E+03  0.00000000000E+00 0.  1.
         21   -1    0    0  502  503 -0.00000000000E+00 -0.00000000000E+00 -0.59573696408E+03  0.59573696408E+03  0.00000000000E+00 0.  1.
    9000007    1    1    2  501    0  0.11747913210E+03 -0.37630091624E+03  0.44205258831E+03  0.71471268134E+03  0.40000000000E+03 0.  1.
   -9000007    1    1    2    0  503 -0.11747913210E+03  0.37630091624E+03 -0.28777055664E+03  0.63104327848E+03  0.40000000000E+03 0.  1.
<mgrwt>
<rscale>  2 0.56160816E+03</rscale>
<asrwt>0</asrwt>
<pdfrwt beam="1">  1       21 0.11538754E+00 0.56160816E+03</pdfrwt>
<pdfrwt beam="2">  1       21 0.91651841E-01 0.56160816E+03</pdfrwt>
<totfact> 0.46810905E+02</totfact>
</mgrwt>
</event>
<event>
 4    1  0.4821294E-002  0.5161718E+03  0.7818608E-02  0.1009642E+00
         21   -1    0    0  501  502  0.00000000000E+00  0.00000000000E+00  0.15648789867E+04  0.15648789867E+04  0.00000000000E+00 0.  1.
         21   -1    0    0  502  503 -0.00000000000E+00 -0.00000000000E+00 -0.17390570173E+03  0.17390570173E+03  0.00000000000E+00 0.  1.
    9000007    1    1    2  501    0  0.91859411022E+02 -0.31304175887E+03  0.56957563361E+03  0.76866748116E+03  0.40000000000E+03 0.  1.
   -9000007    1    1    2    0  503 -0.91859411022E+02  0.31304175887E+03  0.82139765137E+03  0.97011720729E+03  0.40000000000E+03 0.  1.
<mgrwt>
<rscale>  2 0.51617177E+03</rscale>
<asrwt>0</asrwt>
<pdfrwt beam="1">  1       21 0.24075060E+00 0.51617177E+03</pdfrwt>
<pdfrwt beam="2">  1       21 0.26754724E-01 0.51617177E+03</pdfrwt>
<totfact> 0.79844613E+02</totfact>
</mgrwt>
</event>
<event>
 4    1  0.4821294E-002  0.4436563E+03  0.7818608E-02  0.1029631E+00
         21   -1    0    0  501  502  0.00000000000E+00  0.00000000000E+00  0.10994333256E+04  0.10994333256E+04  0.00000000000E+00 0. -1.
         21   -1    0    0  502  503 -0.00000000000E+00 -0.00000000000E+00 -0.17917079170E+03  0.17917079170E+03  0.00000000000E+00 0. -1.
    9000007    1    1    2  501    0 -0.14571292964E+03  0.12489460683E+03  0.47808851056E+03  0.65222660526E+03  0.40000000000E+03 0. -1.
   -9000007    1    1    2    0  503  0.14571292964E+03 -0.12489460683E+03  0.44217402336E+03  0.62637751206E+03  0.40000000000E+03 0. -1.
<mgrwt>
<rscale>  2 0.44365631E+03</rscale>
<asrwt>0</asrwt>
<pdfrwt beam="1">  1       21 0.16914358E+00 0.44365631E+03</pdfrwt>
<pdfrwt beam="2">  1       21 0.27564738E-01 0.44365631E+03</pdfrwt>
<totfact> 0.23288985E+03</totfact>
</mgrwt>
</event>
<event>
 4    1  0.4821294E-002  0.4864197E+03  0.7818608E-02  0.1017386E+00
         21   -1    0    0  503  502  0.00000000000E+00  0.00000000000E+00  0.51095537305E+03  0.51095537305E+03  0.00000000000E+00 0.  1.
         21   -1    0    0  501  503 -0.00000000000E+00 -0.00000000000E+00 -0.53935845751E+03  0.53935845751E+03  0.00000000000E+00 0. -1.
    9000007    1    1    2  501    0  0.23549186503E+03  0.14542240545E+03 -0.21171745818E+03  0.53049823430E+03  0.40000000000E+03 0. -1.
   -9000007    1    1    2    0  502 -0.23549186503E+03 -0.14542240545E+03  0.18331437373E+03  0.51981559626E+03  0.40000000000E+03 0.  1.
<mgrwt>
<rscale>  2 0.48641967E+03</rscale>
<asrwt>0</asrwt>
<pdfrwt beam="1">  1       21 0.78608519E-01 0.48641967E+03</pdfrwt>
<pdfrwt beam="2">  1       21 0.82978224E-01 0.48641967E+03</pdfrwt>
<totfact> 0.15345836E+03</totfact>
</mgrwt>
</event>
<event>
 4    1  0.4821294E-002  0.4634630E+03  0.7818608E-02  0.1023782E+00
         21   -1    0    0  503  502  0.00000000000E+00  0.00000000000E+00  0.78813424416E+03  0.78813424416E+03  0.00000000000E+00 0. -1.
         21   -1    0    0  501  503 -0.00000000000E+00 -0.00000000000E+00 -0.28070963750E+03  0.28070963750E+03  0.00000000000E+00 0.  1.
    9000007    1    1    2  501    0 -0.23341828344E+03  0.17715146283E+02  0.16253992882E+03  0.49113862596E+03  0.40000000000E+03 0.  1.
   -9000007    1    1    2    0  502  0.23341828344E+03 -0.17715146283E+02  0.34488467784E+03  0.57770525570E+03  0.40000000000E+03 0. -1.
<mgrwt>
<rscale>  2 0.46346297E+03</rscale>
<asrwt>0</asrwt>
<pdfrwt beam="1">  1       21 0.12125142E+00 0.46346297E+03</pdfrwt>
<pdfrwt beam="2">  1       21 0.43186098E-01 0.46346297E+03</pdfrwt>
<totfact> 0.22775011E+03</totfact>
</mgrwt>
</event>
<event>
 4    1  0.4821294E-002  0.4055405E+03  0.7818608E-02  0.1041878E+00
         21   -1    0    0  501  502  0.00000000000E+00  0.00000000000E+00  0.33110697079E+03  0.33110697079E+03  0.00000000000E+00 0. -1.
         21   -1    0    0  502  503 -0.00000000000E+00 -0.00000000000E+00 -0.89369826441E+03  0.89369826441E+03  0.00000000000E+00 0. -1.
    9000007    1    1    2  501    0 -0.43597816197E+02  0.50619789840E+02  0.12686589812E+03  0.42492127366E+03  0.40000000000E+03 0. -1.
   -9000007    1    1    2    0  503  0.43597816197E+02 -0.50619789840E+02 -0.68945719174E+03  0.79988396155E+03  0.40000000000E+03 0. -1.
<mgrwt>
<rscale>  2 0.40554054E+03</rscale>
<asrwt>0</asrwt>
<pdfrwt beam="1">  1       21 0.50939534E-01 0.40554054E+03</pdfrwt>
<pdfrwt beam="2">  1       21 0.13749204E+00 0.40554054E+03</pdfrwt>
<totfact> 0.11897832E+03</totfact>
</mgrwt>
</event>
<event>
 4    1  0.4821294E-002  0.4160153E+03  0.7818608E-02  0.1038371E+00
         21   -1    0    0  503  502  0.00000000000E+00  0.00000000000E+00  0.20895049131E+04  0.20895049131E+04  0.00000000000E+00 0. -1.
         21   -1    0    0  501  503 -0.00000000000E+00 -0.00000000000E+00 -0.34402776446E+03  0.34402776446E+03  0.00000000000E+00 0. -1.
    9000007    1    1    2  501    0  0.10099581852E+03 -0.53558986041E+02 -0.18748424126E+03  0.45631026842E+03  0.40000000000E+03 0. -1.
   -9000007    1    1    2    0  502 -0.10099581852E+03  0.53558986041E+02  0.19329613899E+04  0.19772224091E+04  0.40000000000E+03 0. -1.
<mgrwt>
<rscale>  2 0.41601529E+03</rscale>
<asrwt>0</asrwt>
<pdfrwt beam="1">  1       21 0.32146229E+00 0.41601529E+03</pdfrwt>
<pdfrwt beam="2">  1       21 0.52927350E-01 0.41601529E+03</pdfrwt>
<totfact> 0.67712540E+01</totfact>
</mgrwt>
</event>
<event>
 4    1  0.4821294E-002  0.4294952E+03  0.7818608E-02  0.1034020E+00
         21   -1    0    0  503  502  0.00000000000E+00  0.00000000000E+00  0.35555334690E+03  0.35555334690E+03  0.00000000000E+00 0. -1.
         21   -1    0    0  501  503 -0.00000000000E+00 -0.00000000000E+00 -0.91447056060E+03  0.91447056060E+03  0.00000000000E+00 0.  1.
    9000007    1    1    2  501    0  0.90233202744E+02  0.12776583719E+03 -0.69715054146E+03  0.81883149518E+03  0.40000000000E+03 0.  1.
   -9000007    1    1    2    0  502 -0.90233202744E+02 -0.12776583719E+03  0.13823332776E+03  0.45119241232E+03  0.40000000000E+03 0. -1.
<mgrwt>
<rscale>  2 0.42949522E+03</rscale>
<asrwt>0</asrwt>
<pdfrwt beam="1">  1       21 0.54700515E-01 0.42949522E+03</pdfrwt>
<pdfrwt beam="2">  1       21 0.14068778E+00 0.42949522E+03</pdfrwt>
<totfact> 0.95069990E+02</totfact>
</mgrwt>
</event>
<event>
 4    1  0.4821294E-002  0.4149395E+03  0.7818608E-02  0.1038726E+00
         21   -1    0    0  503  502  0.00000000000E+00  0.00000000000E+00  0.15049457851E+04  0.15049457851E+04  0.00000000000E+00 0. -1.
         21   -1    0    0  501  503 -0.00000000000E+00 -0.00000000000E+00 -0.12150284055E+03  0.12150284055E+03  0.00000000000E+00 0. -1.
    9000007    1    1    2  501    0  0.25739690432E+01  0.11030933571E+03  0.88826137305E+03  0.98039942968E+03  0.40000000000E+03 0. -1.
   -9000007    1    1    2    0  502 -0.25739690432E+01 -0.11030933571E+03  0.49518157150E+03  0.64604919597E+03  0.40000000000E+03 0. -1.
<mgrwt>
<rscale>  2 0.41493948E+03</rscale>
<asrwt>0</asrwt>
<pdfrwt beam="1">  1       21 0.23153011E+00 0.41493948E+03</pdfrwt>
<pdfrwt beam="2">  1       21 0.18692746E-01 0.41493948E+03</pdfrwt>
<totfact> 0.19055245E+03</totfact>
</mgrwt>
</event>
<event>
 4    1  0.4821294E-002  0.4768472E+03  0.7818608E-02  0.1020005E+00
         21   -1    0    0  501  502  0.00000000000E+00  0.00000000000E+00  0.21501755995E+03  0.21501755995E+03  0.00000000000E+00 0.  1.
         21   -1    0    0  502  503 -0.00000000000E+00 -0.00000000000E+00 -0.19434566133E+04  0.19434566133E+04  0.00000000000E+00 0.  1.
    9000007    1    1    2  501    0  0.21671006370E+03  0.14289860251E+03 -0.13554571096E+03  0.49573773517E+03  0.40000000000E+03 0.  1.
   -9000007    1    1    2    0  503 -0.21671006370E+03 -0.14289860251E+03 -0.15928933424E+04  0.16627364381E+04  0.40000000000E+03 0.  1.
<mgrwt>
<rscale>  2 0.47684721E+03</rscale>
<asrwt>0</asrwt>
<pdfrwt beam="1">  1       21 0.33079626E-01 0.47684721E+03</pdfrwt>
<pdfrwt beam="2">  1       21 0.29899331E+00 0.47684721E+03</pdfrwt>
<totfact> 0.23559912E+02</totfact>
</mgrwt>
</event>
<event>
 4    1  0.4821294E-002  0.4159002E+03  0.7818608E-02  0.1038409E+00
         21   -1    0    0  501  502  0.00000000000E+00  0.00000000000E+00  0.18428172182E+04  0.18428172182E+04  0.00000000000E+00 0.  1.
         21   -1    0    0  502  503 -0.00000000000E+00 -0.00000000000E+00 -0.32175531495E+03  0.32175531495E+03  0.00000000000E+00 0.  1.
    9000007    1    1    2  501    0 -0.54071585703E+02 -0.10024598600E+03  0.16713745096E+04  0.17223430975E+04  0.40000000000E+03 0.  1.
   -9000007    1    1    2    0  503  0.54071585703E+02  0.10024598600E+03 -0.15031260639E+03  0.44222943562E+03  0.40000000000E+03 0.  1.
<mgrwt>
<rscale>  2 0.41590022E+03</rscale>
<asrwt>0</asrwt>
<pdfrwt beam="1">  1       21 0.28351034E+00 0.41590022E+03</pdfrwt>
<pdfrwt beam="2">  1       21 0.49500819E-01 0.41590022E+03</pdfrwt>
<totfact> 0.13191442E+02</totfact>
</mgrwt>
</event>
<event>
 4    1  0.4821294E-002  0.4207469E+03  0.7818608E-02  0.1036823E+00
         21   -1    0    0  501  502  0.00000000000E+00  0.00000000000E+00  0.46531613840E+03  0.46531613840E+03  0.00000000000E+00 0.  1.
         21   -1    0    0  502  503 -0.00000000000E+00 -0.00000000000E+00 -0.42949073895E+03  0.42949073895E+03  0.00000000000E+00 0.  1.
    9000007    1    1    2  501    0  0.12047680881E+03  0.50132982467E+02  0.16910011545E+03  0.45345653202E+03  0.40000000000E+03 0.  1.
   -9000007    1    1    2    0  503 -0.12047680881E+03 -0.50132982467E+02 -0.13327471600E+03  0.44135034532E+03  0.40000000000E+03 0.  1.
<mgrwt>
<rscale>  2 0.42074693E+03</rscale>
<asrwt>0</asrwt>
<pdfrwt beam="1">  1       21 0.71587098E-01 0.42074693E+03</pdfrwt>
<pdfrwt beam="2">  1       21 0.66075498E-01 0.42074693E+03</pdfrwt>
<totfact> 0.32688552E+03</totfact>
</mgrwt>
</event>
<event>
 4    1  0.4821294E-002  0.4775210E+03  0.7818608E-02  0.1019819E+00
         21   -1    0    0  501  502  0.00000000000E+00  0.00000000000E+00  0.24759784974E+03  0.24759784974E+03  0.00000000000E+00 0.  1.
         21   -1    0    0  502  503 -0.00000000000E+00 -0.00000000000E+00 -0.95910732925E+03  0.95910732925E+03  0.00000000000E+00 0. -1.
    9000007    1    1    2  501    0  0.25101752890E+03  0.70827337454E+02 -0.23541697940E+03  0.53239784535E+03  0.40000000000E+03 0. -1.
   -9000007    1    1    2    0  503 -0.25101752890E+03 -0.70827337454E+02 -0.47609250011E+03  0.67430733365E+03  0.40000000000E+03 0.  1.
<mgrwt>
<rscale>  2 0.47752101E+03</rscale>
<asrwt>0</asrwt>
<pdfrwt beam="1">  1       21 0.38091977E-01 0.47752101E+03</pdfrwt>
<pdfrwt beam="2">  1       21 0.14755497E+00 0.47752101E+03</pdfrwt>
<totfact> 0.17536448E+03</totfact>
</mgrwt>
</event>
<event>
 4    1  0.4821294E-002  0.5211691E+03  0.7818608E-02  0.1008397E+00
         21   -1    0    0  501  502  0.00000000000E+00  0.00000000000E+00  0.19190841017E+03  0.19190841017E+03  0.00000000000E+00 0. -1.
         21   -1    0    0  502  503 -0.00000000000E+00 -0.00000000000E+00 -0.17186142130E+04  0.17186142130E+04  0.00000000000E+00 0.  1.
    9000007    1    1    2  501    0  0.16784572943E+03 -0.28886852705E+03 -0.36207532626E+03  0.63459889434E+03  0.40000000000E+03 0. -1.
   -9000007    1    1    2    0  503 -0.16784572943E+03  0.28886852705E+03 -0.11646304765E+04  0.12759237288E+04  0.40000000000E+03 0.  1.
<mgrwt>
<rscale>  2 0.52116908E+03</rscale>
<asrwt>0</asrwt>
<pdfrwt beam="1">  1       21 0.29524371E-01 0.52116908E+03</pdfrwt>
<pdfrwt beam="2">  1       21 0.26440219E+00 0.52116908E+03</pdfrwt>
<totfact> 0.46853362E+02</totfact>
</mgrwt>
</event>
<event>
 4    1  0.4821294E-002  0.4689358E+03  0.7818608E-02  0.1022221E+00
         21   -1    0    0  501  502  0.00000000000E+00  0.00000000000E+00  0.12567419695E+03  0.12567419695E+03  0.00000000000E+00 0.  1.
         21   -1    0    0  502  503 -0.00000000000E+00 -0.00000000000E+00 -0.20163950404E+04  0.20163950404E+04  0.00000000000E+00 0.  1.
    9000007    1    1    2  501    0  0.13585627182E+02  0.24436893835E+03 -0.55589633948E+03  0.72726988632E+03  0.40000000000E+03 0.  1.
   -9000007    1    1    2    0  503 -0.13585627182E+02 -0.24436893835E+03 -0.13348245040E+04  0.14147993510E+04  0.40000000000E+03 0.  1.
<mgrwt>
<rscale>  2 0.46893576E+03</rscale>
<asrwt>0</asrwt>
<pdfrwt beam="1">  1       21 0.19334494E-01 0.46893576E+03</pdfrwt>
<pdfrwt beam="2">  1       21 0.31021458E+00 0.46893576E+03</pdfrwt>
<totfact> 0.57785627E+02</totfact>
</mgrwt>
</event>
<event>
 4    1  0.4821294E-002  0.5849883E+03  0.7818608E-02  0.9937049E-01
         21   -1    0    0  503  502  0.00000000000E+00  0.00000000000E+00  0.83479703209E+03  0.83479703209E+03  0.00000000000E+00 0.  1.
         21   -1    0    0  501  503 -0.00000000000E+00 -0.00000000000E+00 -0.46553702347E+03  0.46553702347E+03  0.00000000000E+00 0. -1.
    9000007    1    1    2  501    0  0.22521321702E+03  0.36261592842E+03 -0.40067794841E+02  0.58635887718E+03  0.40000000000E+03 0.  1.
   -9000007    1    1    2    0  502 -0.22521321702E+03 -0.36261592842E+03  0.40932780346E+03  0.71397517838E+03  0.40000000000E+03 0.  1.
<mgrwt>
<rscale>  2 0.58498829E+03</rscale>
<asrwt>0</asrwt>
<pdfrwt beam="1">  1       21 0.12843031E+00 0.58498829E+03</pdfrwt>
<pdfrwt beam="2">  1       21 0.71621080E-01 0.58498829E+03</pdfrwt>
<totfact> 0.62661191E+02</totfact>
</mgrwt>
</event>
<event>
 4    1  0.4821294E-002  0.4277536E+03  0.7818608E-02  0.1034572E+00
         21   -1    0    0  501  502  0.00000000000E+00  0.00000000000E+00  0.54331806743E+03  0.54331806743E+03  0.00000000000E+00 0. -1.
         21   -1    0    0  502  503 -0.00000000000E+00 -0.00000000000E+00 -0.35023677407E+03  0.35023677407E+03  0.00000000000E+00 0. -1.
    9000007    1    1    2  501    0  0.11532796948E+03 -0.98349297202E+02  0.18414892023E+03  0.46570800898E+03  0.40000000000E+03 0. -1.
   -9000007    1    1    2    0  503 -0.11532796948E+03  0.98349297202E+02  0.89323731350E+01  0.42784683252E+03  0.40000000000E+03 0. -1.
<mgrwt>
<rscale>  2 0.42775358E+03</rscale>
<asrwt>0</asrwt>
<pdfrwt beam="1">  1       21 0.83587394E-01 0.42775358E+03</pdfrwt>
<pdfrwt beam="2">  1       21 0.53882581E-01 0.42775358E+03</pdfrwt>
<totfact> 0.35705510E+03</totfact>
</mgrwt>
</event>
<event>
 4    1  0.4821294E-002  0.4760751E+03  0.7818608E-02  0.1020219E+00
         21   -1    0    0  501  502  0.00000000000E+00  0.00000000000E+00  0.61309637212E+03  0.61309637212E+03  0.00000000000E+00 0. -1.
         21   -1    0    0  502  503 -0.00000000000E+00 -0.00000000000E+00 -0.39518665120E+03  0.39518665120E+03  0.00000000000E+00 0. -1.
    9000007    1    1    2  501    0 -0.20895571765E+03  0.15160800514E+03  0.23704203529E+03  0.53182366030E+03  0.40000000000E+03 0.  1.
   -9000007    1    1    2    0  503  0.20895571765E+03 -0.15160800514E+03 -0.19132314374E+02  0.47645936302E+03  0.40000000000E+03 0.  1.
<mgrwt>
<rscale>  2 0.47607508E+03</rscale>
<asrwt>0</asrwt>
<pdfrwt beam="1">  1       21 0.94322519E-01 0.47607508E+03</pdfrwt>
<pdfrwt beam="2">  1       21 0.60797946E-01 0.47607508E+03</pdfrwt>
<totfact> 0.20287505E+03</totfact>
</mgrwt>
</event>
<event>
 4    1  0.4821294E-002  0.7094376E+03  0.7818608E-02  0.9701227E-01
         21   -1    0    0  503  502  0.00000000000E+00  0.00000000000E+00  0.42887037415E+03  0.42887037415E+03  0.00000000000E+00 0.  1.
         21   -1    0    0  501  503 -0.00000000000E+00 -0.00000000000E+00 -0.11839698098E+04  0.11839698098E+04  0.00000000000E+00 0.  1.
    9000007    1    1    2  501    0  0.44292535759E+03  0.38356076236E+03 -0.30190527538E+03  0.77100488074E+03  0.40000000000E+03 0.  1.
   -9000007    1    1    2    0  502 -0.44292535759E+03 -0.38356076236E+03 -0.45319416025E+03  0.84183530320E+03  0.40000000000E+03 0.  1.
<mgrwt>
<rscale>  2 0.70943762E+03</rscale>
<asrwt>0</asrwt>
<pdfrwt beam="1">  1       21 0.65980059E-01 0.70943762E+03</pdfrwt>
<pdfrwt beam="2">  1       21 0.18214920E+00 0.70943762E+03</pdfrwt>
<totfact> 0.27452251E+02</totfact>
</mgrwt>
</event>
<event>
 4    1  0.4821294E-002  0.4690612E+03  0.7818608E-02  0.1022186E+00
         21   -1    0    0  503  502  0.00000000000E+00  0.00000000000E+00  0.15440485799E+03  0.15440485799E+03  0.00000000000E+00 0.  1.
         21   -1    0    0  501  503 -0.00000000000E+00 -0.00000000000E+00 -0.15506611339E+04  0.15506611339E+04  0.00000000000E+00 0.  1.
    9000007    1    1    2  501    0 -0.40969426269E+02 -0.24153652944E+03 -0.94087225730E+03  0.10513129855E+04  0.40000000000E+03 0.  1.
   -9000007    1    1    2    0  502  0.40969426269E+02  0.24153652944E+03 -0.45538401860E+03  0.65375300637E+03  0.40000000000E+03 0.  1.
<mgrwt>
<rscale>  2 0.46906118E+03</rscale>
<asrwt>0</asrwt>
<pdfrwt beam="1">  1       21 0.23754593E-01 0.46906118E+03</pdfrwt>
<pdfrwt beam="2">  1       21 0.23856326E+00 0.46906118E+03</pdfrwt>
<totfact> 0.10612774E+03</totfact>
</mgrwt>
</event>
<event>
 4    1  0.4821294E-002  0.5373018E+03  0.7818608E-02  0.1004477E+00
         21   -1    0    0  503  502  0.00000000000E+00  0.00000000000E+00  0.57931637470E+03  0.57931637470E+03  0.00000000000E+00 0. -1.
         21   -1    0    0  501  503 -0.00000000000E+00 -0.00000000000E+00 -0.50751378853E+03  0.50751378853E+03  0.00000000000E+00 0.  1.
    9000007    1    1    2  501    0 -0.46523664572E+02  0.35570875688E+03  0.10898473727E+03  0.54824341678E+03  0.40000000000E+03 0. -1.
   -9000007    1    1    2    0  502  0.46523664572E+02 -0.35570875688E+03 -0.37182151104E+02  0.53858674645E+03  0.40000000000E+03 0.  1.
<mgrwt>
<rscale>  2 0.53730175E+03</rscale>
<asrwt>0</asrwt>
<pdfrwt beam="1">  1       21 0.89125597E-01 0.53730175E+03</pdfrwt>
<pdfrwt beam="2">  1       21 0.78079044E-01 0.53730175E+03</pdfrwt>
<totfact> 0.12947714E+03</totfact>
</mgrwt>
</event>
<event>
 4    1  0.4821294E-002  0.4349386E+03  0.7818608E-02  0.1032311E+00
         21   -1    0    0  501  502  0.00000000000E+00  0.00000000000E+00  0.40161098902E+03  0.40161098902E+03  0.00000000000E+00 0.  1.
         21   -1    0    0  502  503 -0.00000000000E+00 -0.00000000000E+00 -0.58125041764E+03  0.58125041764E+03  0.00000000000E+00 0. -1.
    9000007    1    1    2  501    0 -0.17073539202E+03  0.45874534301E+01  0.12417733025E+03  0.45231806085E+03  0.40000000000E+03 0.  1.
   -9000007    1    1    2    0  503  0.17073539202E+03 -0.45874534301E+01 -0.30381675888E+03  0.53054334582E+03  0.40000000000E+03 0. -1.
<mgrwt>
<rscale>  2 0.43493864E+03</rscale>
<asrwt>0</asrwt>
<pdfrwt beam="1">  1       21 0.61786306E-01 0.43493864E+03</pdfrwt>
<pdfrwt beam="2">  1       21 0.89423141E-01 0.43493864E+03</pdfrwt>
<totfact> 0.22570202E+03</totfact>
</mgrwt>
</event>
<event>
 4    1  0.4821294E-002  0.4653934E+03  0.7818608E-02  0.1023228E+00
         21   -1    0    0  501  502  0.00000000000E+00  0.00000000000E+00  0.13324782672E+04  0.13324782672E+04  0.00000000000E+00 0.  1.
         21   -1    0    0  502  503 -0.00000000000E+00 -0.00000000000E+00 -0.54728107310E+03  0.54728107310E+03  0.00000000000E+00 0.  1.
    9000007    1    1    2  501    0  0.23591987510E+03 -0.30542392075E+02  0.11806364486E+04  0.12690521853E+04  0.40000000000E+03 0.  1.
   -9000007    1    1    2    0  503 -0.23591987510E+03  0.30542392075E+02 -0.39543925451E+03  0.61070715502E+03  0.40000000000E+03 0.  1.
<mgrwt>
<rscale>  2 0.46539341E+03</rscale>
<asrwt>0</asrwt>
<pdfrwt beam="1">  1       21 0.20499665E+00 0.46539341E+03</pdfrwt>
<pdfrwt beam="2">  1       21 0.84197089E-01 0.46539341E+03</pdfrwt>
<totfact> 0.12098893E+02</totfact>
</mgrwt>
</event>
<event>
 4    1  0.4821294E-002  0.4008923E+03  0.7818608E-02  0.1043471E+00
         21   -1    0    0  503  502  0.00000000000E+00  0.00000000000E+00  0.79239522522E+03  0.79239522522E+03  0.00000000000E+00 0. -1.
         21   -1    0    0  501  503 -0.00000000000E+00 -0.00000000000E+00 -0.20993004721E+03  0.20993004721E+03  0.00000000000E+00 0. -1.
    9000007    1    1    2  501    0  0.21263025449E+02 -0.16202312399E+02  0.19900988290E+03  0.44757073706E+03  0.40000000000E+03 0.  1.
   -9000007    1    1    2    0  502 -0.21263025449E+02  0.16202312399E+02  0.38345529511E+03  0.55475453538E+03  0.40000000000E+03 0.  1.
<mgrwt>
<rscale>  2 0.40089229E+03</rscale>
<asrwt>0</asrwt>
<pdfrwt beam="1">  1       21 0.12190696E+00 0.40089229E+03</pdfrwt>
<pdfrwt beam="2">  1       21 0.32296931E-01 0.40089229E+03</pdfrwt>
<totfact> 0.41608767E+03</totfact>
</mgrwt>
</event>
<event>
 4    1  0.4821294E-002  0.5431209E+03  0.7818608E-02  0.1003099E+00
         21   -1    0    0  503  502  0.00000000000E+00  0.00000000000E+00  0.12165726854E+04  0.12165726854E+04  0.00000000000E+00 0. -1.
         21   -1    0    0  501  503 -0.00000000000E+00 -0.00000000000E+00 -0.63818540523E+03  0.63818540523E+03  0.00000000000E+00 0.  1.
    9000007    1    1    2  501    0  0.45840531698E+02 -0.36452560758E+03 -0.44106427578E+03  0.69965560692E+03  0.40000000000E+03 0.  1.
   -9000007    1    1    2    0  502 -0.45840531698E+02  0.36452560758E+03  0.10194515559E+04  0.11551024837E+04  0.40000000000E+03 0. -1.
<mgrwt>
<rscale>  2 0.54312086E+03</rscale>
<asrwt>0</asrwt>
<pdfrwt beam="1">  1       21 0.18716503E+00 0.54312086E+03</pdfrwt>
<pdfrwt beam="2">  1       21 0.98182370E-01 0.54312086E+03</pdfrwt>
<totfact> 0.10657639E+02</totfact>
</mgrwt>
</event>
<event>
 4    1  0.4821294E-002  0.4685320E+03  0.7818608E-02  0.1022335E+00
         21   -1    0    0  503  502  0.00000000000E+00  0.00000000000E+00  0.16137154141E+04  0.16137154141E+04  0.00000000000E+00 0. -1.
         21   -1    0    0  501  503 -0.00000000000E+00 -0.00000000000E+00 -0.14423947985E+03  0.14423947985E+03  0.00000000000E+00 0. -1.
    9000007    1    1    2  501    0  0.13753469505E+03 -0.20151043027E+03  0.52510794310E+03  0.70374753836E+03  0.40000000000E+03 0. -1.
   -9000007    1    1    2    0  502 -0.13753469505E+03  0.20151043027E+03  0.94436799119E+03  0.10542073556E+04  0.40000000000E+03 0. -1.
<mgrwt>
<rscale>  2 0.46853201E+03</rscale>
<asrwt>0</asrwt>
<pdfrwt beam="1">  1       21 0.24826390E+00 0.46853201E+03</pdfrwt>
<pdfrwt beam="2">  1       21 0.22190690E-01 0.46853201E+03</pdfrwt>
<totfact> 0.10542813E+03</totfact>
</mgrwt>
</event>
<event>
 4    1  0.4821294E-002  0.6619377E+03  0.7818608E-02  0.9784633E-01
         21   -1    0    0  503  502  0.00000000000E+00  0.00000000000E+00  0.46314536655E+03  0.46314536655E+03  0.00000000000E+00 0. -1.
         21   -1    0    0  501  503 -0.00000000000E+00 -0.00000000000E+00 -0.95980407605E+03  0.95980407605E+03  0.00000000000E+00 0. -1.
    9000007    1    1    2  501    0 -0.13790998985E+03  0.50906031888E+03 -0.16317928127E+03  0.68175439228E+03  0.40000000000E+03 0. -1.
   -9000007    1    1    2    0  502  0.13790998985E+03 -0.50906031888E+03 -0.33347942823E+03  0.74119505032E+03  0.40000000000E+03 0. -1.
<mgrwt>
<rscale>  2 0.66193774E+03</rscale>
<asrwt>0</asrwt>
<pdfrwt beam="1">  1       21 0.71253134E-01 0.66193774E+03</pdfrwt>
<pdfrwt beam="2">  1       21 0.14766216E+00 0.66193774E+03</pdfrwt>
<totfact> 0.42619556E+02</totfact>
</mgrwt>
</event>
<event>
 4    1  0.4821294E-002  0.6882819E+03  0.7818608E-02  0.9737484E-01
         21   -1    0    0  503  502  0.00000000000E+00  0.00000000000E+00  0.82295382565E+03  0.82295382565E+03  0.00000000000E+00 0. -1.
         21   -1    0    0  501  503 -0.00000000000E+00 -0.00000000000E+00 -0.65070020644E+03  0.65070020644E+03  0.00000000000E+00 0.  1.
    9000007    1    1    2  501    0  0.17775654511E+03 -0.53116341636E+03  0.33636636279E+03  0.76607721166E+03  0.40000000000E+03 0. -1.
   -9000007    1    1    2    0  502 -0.17775654511E+03  0.53116341636E+03 -0.16411274358E+03  0.70757682043E+03  0.40000000000E+03 0. -1.
<mgrwt>
<rscale>  2 0.68828189E+03</rscale>
<asrwt>0</asrwt>
<pdfrwt beam="1">  1       21 0.12660828E+00 0.68828189E+03</pdfrwt>
<pdfrwt beam="2">  1       21 0.10010772E+00 0.68828189E+03</pdfrwt>
<totfact> 0.28564260E+02</totfact>
</mgrwt>
</event>
<event>
 4    1  0.4821294E-002  0.4867072E+03  0.7818608E-02  0.1017308E+00
         21   -1    0    0  503  502  0.00000000000E+00  0.00000000000E+00  0.10953090142E+04  0.10953090142E+04  0.00000000000E+00 0.  1.
         21   -1    0    0  501  503 -0.00000000000E+00 -0.00000000000E+00 -0.29764323684E+03  0.29764323684E+03  0.00000000000E+00 0.  1.
    9000007    1    1    2  501    0  0.29544262324E+02  0.27570099436E+03  0.34670107119E+02  0.48794048618E+03  0.40000000000E+03 0.  1.
   -9000007    1    1    2    0  502 -0.29544262324E+02 -0.27570099436E+03  0.76299567022E+03  0.90501176484E+03  0.40000000000E+03 0.  1.
<mgrwt>
<rscale>  2 0.48670720E+03</rscale>
<asrwt>0</asrwt>
<pdfrwt beam="1">  1       21 0.16850908E+00 0.48670720E+03</pdfrwt>
<pdfrwt beam="2">  1       21 0.45791268E-01 0.48670720E+03</pdfrwt>
<totfact> 0.82473212E+02</totfact>
</mgrwt>
</event>
<event>
 4    1  0.4821294E-002  0.5150971E+03  0.7818608E-02  0.1009912E+00
         21   -1    0    0  503  502  0.00000000000E+00  0.00000000000E+00  0.48446162726E+03  0.48446162726E+03  0.00000000000E+00 0.  1.
         21   -1    0    0  501  503 -0.00000000000E+00 -0.00000000000E+00 -0.86241865362E+03  0.86241865362E+03  0.00000000000E+00 0. -1.
    9000007    1    1    2  501    0 -0.15288597330E+03 -0.28627066828E+03 -0.59581695941E+03  0.78760578050E+03  0.40000000000E+03 0. -1.
   -9000007    1    1    2    0  502  0.15288597330E+03  0.28627066828E+03  0.21785993306E+03  0.55927450038E+03  0.40000000000E+03 0.  1.
<mgrwt>
<rscale>  2 0.51509709E+03</rscale>
<asrwt>0</asrwt>
<pdfrwt beam="1">  1       21 0.74532559E-01 0.51509709E+03</pdfrwt>
<pdfrwt beam="2">  1       21 0.13267979E+00 0.51509709E+03</pdfrwt>
<totfact> 0.53898062E+02</totfact>
</mgrwt>
</event>
<event>
 4    1  0.4821294E-002  0.4743338E+03  0.7818608E-02  0.1020704E+00
         21   -1    0    0  501  502  0.00000000000E+00  0.00000000000E+00  0.28438836764E+03  0.28438836764E+03  0.00000000000E+00 0. -1.
         21   -1    0    0  502  503 -0.00000000000E+00 -0.00000000000E+00 -0.10175603922E+04  0.10175603922E+04  0.00000000000E+00 0. -1.
    9000007    1    1    2  501    0 -0.23538405112E+03  0.97912758553E+02 -0.59516744808E+02  0.47805313797E+03  0.40000000000E+03 0. -1.
   -9000007    1    1    2    0  503  0.23538405112E+03 -0.97912758553E+02 -0.67365527978E+03  0.82389562190E+03  0.40000000000E+03 0. -1.
<mgrwt>
<rscale>  2 0.47433381E+03</rscale>
<asrwt>0</asrwt>
<pdfrwt beam="1">  1       21 0.43752056E-01 0.47433381E+03</pdfrwt>
<pdfrwt beam="2">  1       21 0.15654776E+00 0.47433381E+03</pdfrwt>
<totfact> 0.11214827E+03</totfact>
</mgrwt>
</event>
<event>
 4    1  0.4821294E-002  0.4141361E+03  0.7818608E-02  0.1038992E+00
         21   -1    0    0  501  502  0.00000000000E+00  0.00000000000E+00  0.26845218803E+03  0.26845218803E+03  0.00000000000E+00 0.  1.
         21   -1    0    0  502  503 -0.00000000000E+00 -0.00000000000E+00 -0.85124494336E+03  0.85124494336E+03  0.00000000000E+00 0.  1.
    9000007    1    1    2  501    0 -0.10007859602E+03  0.38639033972E+02 -0.57102707020E+03  0.70539394328E+03  0.40000000000E+03 0.  1.
   -9000007    1    1    2    0  503  0.10007859602E+03 -0.38639033972E+02 -0.11765685130E+02  0.41430318810E+03  0.40000000000E+03 0.  1.
<mgrwt>
<rscale>  2 0.41413609E+03</rscale>
<asrwt>0</asrwt>
<pdfrwt beam="1">  1       21 0.41300336E-01 0.41413609E+03</pdfrwt>
<pdfrwt beam="2">  1       21 0.13096076E+00 0.41413609E+03</pdfrwt>
<totfact> 0.20890504E+03</totfact>
</mgrwt>
</event>
<event>
 4    1  0.4821294E-002  0.4101486E+03  0.7818608E-02  0.1040321E+00
         21   -1    0    0  503  502  0.00000000000E+00  0.00000000000E+00  0.21985113889E+03  0.21985113889E+03  0.00000000000E+00 0.  1.
         21   -1    0    0  501  503 -0.00000000000E+00 -0.00000000000E+00 -0.91336325765E+03  0.91336325765E+03  0.00000000000E+00 0.  1.
    9000007    1    1    2  501    0 -0.73033514811E+02 -0.53739781238E+02 -0.57499274690E+03  0.70628501142E+03  0.40000000000E+03 0.  1.
   -9000007    1    1    2    0  502  0.73033514811E+02  0.53739781238E+02 -0.11851937187E+03  0.42692938512E+03  0.40000000000E+03 0.  1.
<mgrwt>
<rscale>  2 0.41014858E+03</rscale>
<asrwt>0</asrwt>
<pdfrwt beam="1">  1       21 0.33823252E-01 0.41014858E+03</pdfrwt>
<pdfrwt beam="2">  1       21 0.14051743E+00 0.41014858E+03</pdfrwt>
<totfact> 0.26134440E+03</totfact>
</mgrwt>
</event>
<event>
 4    1  0.4821294E-002  0.4610816E+03  0.7818608E-02  0.1024468E+00
         21   -1    0    0  503  502  0.00000000000E+00  0.00000000000E+00  0.36874794304E+03  0.36874794304E+03  0.00000000000E+00 0.  1.
         21   -1    0    0  501  503 -0.00000000000E+00 -0.00000000000E+00 -0.63289328320E+03  0.63289328320E+03  0.00000000000E+00 0. -1.
    9000007    1    1    2  501    0 -0.16714767980E+03  0.15702843694E+03  0.17376646380E+02  0.46140895604E+03  0.40000000000E+03 0.  1.
   -9000007    1    1    2    0  502  0.16714767980E+03 -0.15702843694E+03 -0.28152198654E+03  0.54023227021E+03  0.40000000000E+03 0. -1.
<mgrwt>
<rscale>  2 0.46108164E+03</rscale>
<asrwt>0</asrwt>
<pdfrwt beam="1">  1       21 0.56730453E-01 0.46108164E+03</pdfrwt>
<pdfrwt beam="2">  1       21 0.97368198E-01 0.46108164E+03</pdfrwt>
<totfact> 0.21984945E+03</totfact>
</mgrwt>
</event>
<event>
 4    1  0.4821294E-002  0.5301478E+03  0.7818608E-02  0.1006196E+00
         21   -1    0    0  501  502  0.00000000000E+00  0.00000000000E+00  0.33072814116E+03  0.33072814116E+03  0.00000000000E+00 0.  1.
         21   -1    0    0  502  503 -0.00000000000E+00 -0.00000000000E+00 -0.99528470752E+03  0.99528470752E+03  0.00000000000E+00 0. -1.
    9000007    1    1    2  501    0  0.28225012491E+03 -0.20344908997E+03 -0.78803252986E+02  0.53597259063E+03  0.40000000000E+03 0.  1.
   -9000007    1    1    2    0  503 -0.28225012491E+03  0.20344908997E+03 -0.58575331337E+03  0.79004025805E+03  0.40000000000E+03 0. -1.
<mgrwt>
<rscale>  2 0.53014778E+03</rscale>
<asrwt>0</asrwt>
<pdfrwt beam="1">  1       21 0.50881253E-01 0.53014778E+03</pdfrwt>
<pdfrwt beam="2">  1       21 0.15312072E+00 0.53014778E+03</pdfrwt>
<totfact> 0.84797615E+02</totfact>
</mgrwt>
</event>
<event>
 4    1  0.4821294E-002  0.4235705E+03  0.7818608E-02  0.1035910E+00
         21   -1    0    0  501  502  0.00000000000E+00  0.00000000000E+00  0.12490539082E+04  0.12490539082E+04  0.00000000000E+00 0.  1.
         21   -1    0    0  502  503 -0.00000000000E+00 -0.00000000000E+00 -0.15646046107E+03  0.15646046107E+03  0.00000000000E+00 0.  1.
    9000007    1    1    2  501    0 -0.11691609776E+03 -0.75779977983E+02  0.74747617473E+03  0.85914644315E+03  0.40000000000E+03 0.  1.
   -9000007    1    1    2    0  503  0.11691609776E+03  0.75779977983E+02  0.34511727235E+03  0.54636792608E+03  0.40000000000E+03 0.  1.
<mgrwt>
<rscale>  2 0.42357051E+03</rscale>
<asrwt>0</asrwt>
<pdfrwt beam="1">  1       21 0.19216213E+00 0.42357051E+03</pdfrwt>
<pdfrwt beam="2">  1       21 0.24070841E-01 0.42357051E+03</pdfrwt>
<totfact> 0.21081261E+03</totfact>
</mgrwt>
</event>
<event>
 4    1  0.4821294E-002  0.4556984E+03  0.7818608E-02  0.1026036E+00
         21   -1    0    0  501  502  0.00000000000E+00  0.00000000000E+00  0.69381467435E+03  0.69381467435E+03  0.00000000000E+00 0.  1.
         21   -1    0    0  502  503 -0.00000000000E+00 -0.00000000000E+00 -0.30760399261E+03  0.30760399261E+03  0.00000000000E+00 0. -1.
    9000007    1    1    2  501    0  0.13467139186E+03  0.17182745341E+03  0.11085352124E+03  0.46898780443E+03  0.40000000000E+03 0. -1.
   -9000007    1    1    2    0  503 -0.13467139186E+03 -0.17182745341E+03  0.27535716051E+03  0.53243086253E+03  0.40000000000E+03 0. -1.
<mgrwt>
<rscale>  2 0.45569843E+03</rscale>
<asrwt>0</asrwt>
<pdfrwt beam="1">  1       21 0.10674072E+00 0.45569843E+03</pdfrwt>
<pdfrwt beam="2">  1       21 0.47323691E-01 0.45569843E+03</pdfrwt>
<totfact> 0.25936809E+03</totfact>
</mgrwt>
</event>
<event>
 4    1  0.4821294E-002  0.4591721E+03  0.7818608E-02  0.1025022E+00
         21   -1    0    0  501  502  0.00000000000E+00  0.00000000000E+00  0.82386719535E+03  0.82386719535E+03  0.00000000000E+00 0.  1.
         21   -1    0    0  502  503 -0.00000000000E+00 -0.00000000000E+00 -0.44472324992E+03  0.44472324992E+03  0.00000000000E+00 0.  1.
    9000007    1    1    2  501    0 -0.19740258316E+03 -0.10895503524E+03  0.60286530010E+03  0.75781630334E+03  0.40000000000E+03 0.  1.
   -9000007    1    1    2    0  503  0.19740258316E+03  0.10895503524E+03 -0.22372135466E+03  0.51077414194E+03  0.40000000000E+03 0.  1.
<mgrwt>
<rscale>  2 0.45917206E+03</rscale>
<asrwt>0</asrwt>
<pdfrwt beam="1">  1       21 0.12674880E+00 0.45917206E+03</pdfrwt>
<pdfrwt beam="2">  1       21 0.68418962E-01 0.45917206E+03</pdfrwt>
<totfact> 0.75383559E+02</totfact>
</mgrwt>
</event>
<event>
 4    1  0.4821294E-002  0.4487276E+03  0.7818608E-02  0.1028102E+00
         21   -1    0    0  503  502  0.00000000000E+00  0.00000000000E+00  0.33401224144E+03  0.33401224144E+03  0.00000000000E+00 0.  1.
         21   -1    0    0  501  503 -0.00000000000E+00 -0.00000000000E+00 -0.10095889875E+04  0.10095889875E+04  0.00000000000E+00 0.  1.
    9000007    1    1    2  501    0 -0.17430651842E+03 -0.10475524053E+03 -0.76420149669E+03  0.88620559145E+03  0.40000000000E+03 0.  1.
   -9000007    1    1    2    0  502  0.17430651842E+03  0.10475524053E+03  0.88624750618E+02  0.45739563750E+03  0.40000000000E+03 0.  1.
<mgrwt>
<rscale>  2 0.44872756E+03</rscale>
<asrwt>0</asrwt>
<pdfrwt beam="1">  1       21 0.51386499E-01 0.44872756E+03</pdfrwt>
<pdfrwt beam="2">  1       21 0.15532138E+00 0.44872756E+03</pdfrwt>
<totfact> 0.82496637E+02</totfact>
</mgrwt>
</event>
<event>
 4    1  0.4821294E-002  0.5499172E+03  0.7818608E-02  0.1001513E+00
         21   -1    0    0  503  502  0.00000000000E+00  0.00000000000E+00  0.18850120007E+03  0.18850120007E+03  0.00000000000E+00 0.  1.
         21   -1    0    0  501  503 -0.00000000000E+00 -0.00000000000E+00 -0.16577219166E+04  0.16577219166E+04  0.00000000000E+00 0. -1.
    9000007    1    1    2  501    0 -0.22257056036E+03  0.30474790644E+03 -0.90035301040E+03  0.10550092342E+04  0.40000000000E+03 0. -1.
   -9000007    1    1    2    0  502  0.22257056036E+03 -0.30474790644E+03 -0.56886770614E+03  0.79121388253E+03  0.40000000000E+03 0.  1.
<mgrwt>
<rscale>  2 0.54991721E+03</rscale>
<asrwt>0</asrwt>
<pdfrwt beam="1">  1       21 0.29000185E-01 0.54991721E+03</pdfrwt>
<pdfrwt beam="2">  1       21 0.25503414E+00 0.54991721E+03</pdfrwt>
<totfact> 0.54728117E+02</totfact>
</mgrwt>
</event>
<event>
 4    1  0.4821294E-002  0.5370899E+03  0.7818608E-02  0.1004527E+00
         21   -1    0    0  501  502  0.00000000000E+00  0.00000000000E+00  0.12671576336E+04  0.12671576336E+04  0.00000000000E+00 0.  1.
         21   -1    0    0  502  503 -0.00000000000E+00 -0.00000000000E+00 -0.44240346421E+03  0.44240346421E+03  0.00000000000E+00 0.  1.
    9000007    1    1    2  501    0  0.70495990746E+02  0.35141978941E+03  0.10079264422E+04  0.11420951212E+04  0.40000000000E+03 0.  1.
   -9000007    1    1    2    0  503 -0.70495990746E+02 -0.35141978941E+03 -0.18317227276E+03  0.56746597661E+03  0.40000000000E+03 0.  1.
<mgrwt>
<rscale>  2 0.53708989E+03</rscale>
<asrwt>0</asrwt>
<pdfrwt beam="1">  1       21 0.19494733E+00 0.53708989E+03</pdfrwt>
<pdfrwt beam="2">  1       21 0.68062072E-01 0.53708989E+03</pdfrwt>
<totfact> 0.22214764E+02</totfact>
</mgrwt>
</event>
<event>
 4    1  0.4821294E-002  0.4145461E+03  0.7818608E-02  0.1038856E+00
         21   -1    0    0  503  502  0.00000000000E+00  0.00000000000E+00  0.57911781879E+03  0.57911781879E+03  0.00000000000E+00 0.  1.
         21   -1    0    0  501  503 -0.00000000000E+00 -0.00000000000E+00 -0.29810301519E+03  0.29810301519E+03  0.00000000000E+00 0.  1.
    9000007    1    1    2  501    0 -0.97694600633E+02 -0.48002057082E+02  0.17014669366E+03  0.44810526647E+03  0.40000000000E+03 0. -1.
   -9000007    1    1    2    0  502  0.97694600633E+02  0.48002057082E+02  0.11086810993E+03  0.42911556751E+03  0.40000000000E+03 0. -1.
<mgrwt>
<rscale>  2 0.41454606E+03</rscale>
<asrwt>0</asrwt>
<pdfrwt beam="1">  1       21 0.89095049E-01 0.41454606E+03</pdfrwt>
<pdfrwt beam="2">  1       21 0.45862002E-01 0.41454606E+03</pdfrwt>
<totfact> 0.43495417E+03</totfact>
</mgrwt>
</event>
<event>
 4    1  0.4821294E-002  0.4073652E+03  0.7818608E-02  0.1041259E+00
         21   -1    0    0  501  502  0.00000000000E+00  0.00000000000E+00  0.16987909171E+04  0.16987909171E+04  0.00000000000E+00 0.  1.
         21   -1    0    0  502  503 -0.00000000000E+00 -0.00000000000E+00 -0.18362765505E+03  0.18362765505E+03  0.00000000000E+00 0.  1.
    9000007    1    1    2  501    0 -0.25826637492E+02 -0.72659179363E+02  0.14014862951E+04  0.14594897077E+04  0.40000000000E+03 0.  1.
   -9000007    1    1    2    0  503  0.25826637492E+02  0.72659179363E+02  0.11367696693E+03  0.42292886442E+03  0.40000000000E+03 0.  1.
<mgrwt>
<rscale>  2 0.40736516E+03</rscale>
<asrwt>0</asrwt>
<pdfrwt beam="1">  1       21 0.26135244E+00 0.40736516E+03</pdfrwt>
<pdfrwt beam="2">  1       21 0.28250410E-01 0.40736516E+03</pdfrwt>
<totfact> 0.56626034E+02</totfact>
</mgrwt>
</event>
<event>
 4    1  0.4821294E-002  0.4084231E+03  0.7818608E-02  0.1040901E+00
         21   -1    0    0  501  502  0.00000000000E+00  0.00000000000E+00  0.24528909179E+03  0.24528909179E+03  0.00000000000E+00 0.  1.
         21   -1    0    0  502  503 -0.00000000000E+00 -0.00000000000E+00 -0.68830314733E+03  0.68830314733E+03  0.00000000000E+00 0.  1.
    9000007    1    1    2  501    0  0.27187706181E+02 -0.77911776558E+02 -0.17039935910E+03  0.44254418748E+03  0.40000000000E+03 0. -1.
   -9000007    1    1    2    0  503 -0.27187706181E+02  0.77911776558E+02 -0.27261469644E+03  0.49104805163E+03  0.40000000000E+03 0. -1.
<mgrwt>
<rscale>  2 0.40842308E+03</rscale>
<asrwt>0</asrwt>
<pdfrwt beam="1">  1       21 0.37736784E-01 0.40842308E+03</pdfrwt>
<pdfrwt beam="2">  1       21 0.10589279E+00 0.40842308E+03</pdfrwt>
<totfact> 0.43050393E+03</totfact>
</mgrwt>
</event>
<event>
 4    1  0.4821294E-002  0.4515359E+03  0.7818608E-02  0.1027265E+00
         21   -1    0    0  503  502  0.00000000000E+00  0.00000000000E+00  0.12963120462E+04  0.12963120462E+04  0.00000000000E+00 0.  1.
         21   -1    0    0  501  503 -0.00000000000E+00 -0.00000000000E+00 -0.16609373850E+03  0.16609373850E+03  0.00000000000E+00 0.  1.
    9000007    1    1    2  501    0  0.11262696342E+03 -0.17663481682E+03  0.39667606104E+03  0.60102960726E+03  0.40000000000E+03 0. -1.
   -9000007    1    1    2    0  502 -0.11262696342E+03  0.17663481682E+03  0.73354224663E+03  0.86137617740E+03  0.40000000000E+03 0. -1.
<mgrwt>
<rscale>  2 0.45153592E+03</rscale>
<asrwt>0</asrwt>
<pdfrwt beam="1">  1       21 0.19943262E+00 0.45153592E+03</pdfrwt>
<pdfrwt beam="2">  1       21 0.25552884E-01 0.45153592E+03</pdfrwt>
<totfact> 0.16563966E+03</totfact>
</mgrwt>
</event>
<event>
 4    1  0.4821294E-002  0.4519145E+03  0.7818608E-02  0.1027153E+00
         21   -1    0    0  503  502  0.00000000000E+00  0.00000000000E+00  0.11226637429E+03  0.11226637429E+03  0.00000000000E+00 0. -1.
         21   -1    0    0  501  503 -0.00000000000E+00 -0.00000000000E+00 -0.27318832013E+04  0.27318832013E+04  0.00000000000E+00 0. -1.
    9000007    1    1    2  501    0 -0.23567537213E+02  0.20897675474E+03 -0.21318029639E+04  0.21791765853E+04  0.40000000000E+03 0. -1.
   -9000007    1    1    2    0  502  0.23567537213E+02 -0.20897675474E+03 -0.48781386313E+03  0.66497299035E+03  0.40000000000E+03 0. -1.
<mgrwt>
<rscale>  2 0.45191450E+03</rscale>
<asrwt>0</asrwt>
<pdfrwt beam="1">  1       21 0.17271750E-01 0.45191450E+03</pdfrwt>
<pdfrwt beam="2">  1       21 0.42028972E+00 0.45191450E+03</pdfrwt>
<totfact> 0.14860077E+02</totfact>
</mgrwt>
</event>
<event>
 4    1  0.4821294E-002  0.6786983E+03  0.7818608E-02  0.9754371E-01
         21   -1    0    0  501  502  0.00000000000E+00  0.00000000000E+00  0.14834028124E+04  0.14834028124E+04  0.00000000000E+00 0. -1.
         21   -1    0    0  502  503 -0.00000000000E+00 -0.00000000000E+00 -0.50516450871E+03  0.50516450871E+03  0.00000000000E+00 0. -1.
    9000007    1    1    2  501    0  0.17005852768E+03  0.52125956365E+03  0.11062980357E+04  0.12978932080E+04  0.40000000000E+03 0. -1.
   -9000007    1    1    2    0  503 -0.17005852768E+03 -0.52125956365E+03 -0.12805973204E+03  0.69067411310E+03  0.40000000000E+03 0. -1.
<mgrwt>
<rscale>  2 0.67869834E+03</rscale>
<asrwt>0</asrwt>
<pdfrwt beam="1">  1       21 0.22821581E+00 0.67869834E+03</pdfrwt>
<pdfrwt beam="2">  1       21 0.77717618E-01 0.67869834E+03</pdfrwt>
<totfact> 0.93521177E+01</totfact>
</mgrwt>
</event>
<event>
 4    1  0.4821294E-002  0.4186562E+03  0.7818608E-02  0.1037505E+00
         21   -1    0    0  503  502  0.00000000000E+00  0.00000000000E+00  0.11351608550E+04  0.11351608550E+04  0.00000000000E+00 0.  1.
         21   -1    0    0  501  503 -0.00000000000E+00 -0.00000000000E+00 -0.35756250158E+03  0.35756250158E+03  0.00000000000E+00 0.  1.
    9000007    1    1    2  501    0  0.12108162508E+03  0.24743767855E+02  0.95138811802E+03  0.10394288649E+04  0.40000000000E+03 0.  1.
   -9000007    1    1    2    0  502 -0.12108162508E+03 -0.24743767855E+02 -0.17378976458E+03  0.45329449175E+03  0.40000000000E+03 0.  1.
<mgrwt>
<rscale>  2 0.41865620E+03</rscale>
<asrwt>0</asrwt>
<pdfrwt beam="1">  1       21 0.17464013E+00 0.41865620E+03</pdfrwt>
<pdfrwt beam="2">  1       21 0.55009616E-01 0.41865620E+03</pdfrwt>
<totfact> 0.51994988E+02</totfact>
</mgrwt>
</event>
<event>
 4    1  0.4821294E-002  0.4378517E+03  0.7818608E-02  0.1031408E+00
         21   -1    0    0  503  502  0.00000000000E+00  0.00000000000E+00  0.75049926966E+03  0.75049926966E+03  0.00000000000E+00 0.  1.
         21   -1    0    0  501  503 -0.00000000000E+00 -0.00000000000E+00 -0.36942074064E+03  0.36942074064E+03  0.00000000000E+00 0.  1.
    9000007    1    1    2  501    0 -0.17458501413E+03  0.35131184797E+02 -0.12048578642E+03  0.45412658151E+03  0.40000000000E+03 0.  1.
   -9000007    1    1    2    0  502  0.17458501413E+03 -0.35131184797E+02  0.50156431544E+03  0.66579342879E+03  0.40000000000E+03 0.  1.
<mgrwt>
<rscale>  2 0.43785172E+03</rscale>
<asrwt>0</asrwt>
<pdfrwt beam="1">  1       21 0.11546143E+00 0.43785172E+03</pdfrwt>
<pdfrwt beam="2">  1       21 0.56833960E-01 0.43785172E+03</pdfrwt>
<totfact> 0.14522195E+03</totfact>
</mgrwt>
</event>
<event>
 4    1  0.4821294E-002  0.4883262E+03  0.7818608E-02  0.1016872E+00
         21   -1    0    0  503  502  0.00000000000E+00  0.00000000000E+00  0.58997806481E+03  0.58997806481E+03  0.00000000000E+00 0.  1.
         21   -1    0    0  501  503 -0.00000000000E+00 -0.00000000000E+00 -0.45051501318E+03  0.45051501318E+03  0.00000000000E+00 0.  1.
    9000007    1    1    2  501    0 -0.18202679235E+03  0.21290535182E+03 -0.97096355470E+02  0.49788567384E+03  0.40000000000E+03 0.  1.
   -9000007    1    1    2    0  502  0.18202679235E+03 -0.21290535182E+03  0.23655940710E+03  0.54260740416E+03  0.40000000000E+03 0.  1.
<mgrwt>
<rscale>  2 0.48832616E+03</rscale>
<asrwt>0</asrwt>
<pdfrwt beam="1">  1       21 0.90765856E-01 0.48832616E+03</pdfrwt>
<pdfrwt beam="2">  1       21 0.69310002E-01 0.48832616E+03</pdfrwt>
<totfact> 0.16539947E+03</totfact>
</mgrwt>
</event>
<event>
 4    1  0.4821294E-002  0.4147459E+03  0.7818608E-02  0.1038790E+00
         21   -1    0    0  503  502  0.00000000000E+00  0.00000000000E+00  0.91183181777E+02  0.91183181777E+02  0.00000000000E+00 0. -1.
         21   -1    0    0  501  503 -0.00000000000E+00 -0.00000000000E+00 -0.20065104513E+04  0.20065104513E+04  0.00000000000E+00 0. -1.
    9000007    1    1    2  501    0 -0.34910022348E+01 -0.10955356381E+03 -0.70112164204E+03  0.81460771380E+03  0.40000000000E+03 0. -1.
   -9000007    1    1    2    0  502  0.34910022348E+01  0.10955356381E+03 -0.12142056275E+04  0.12830859193E+04  0.40000000000E+03 0. -1.
<mgrwt>
<rscale>  2 0.41474591E+03</rscale>
<asrwt>0</asrwt>
<pdfrwt beam="1">  1       21 0.14028184E-01 0.41474591E+03</pdfrwt>
<pdfrwt beam="2">  1       21 0.30869387E+00 0.41474591E+03</pdfrwt>
<totfact> 0.11084084E+03</totfact>
</mgrwt>
</event>
<event>
 4    1  0.4821294E-002  0.5593493E+03  0.7818608E-02  0.9993528E-01
         21   -1    0    0  503  502  0.00000000000E+00  0.00000000000E+00  0.37160599036E+03  0.37160599036E+03  0.00000000000E+00 0. -1.
         21   -1    0    0  501  503 -0.00000000000E+00 -0.00000000000E+00 -0.18214106101E+04  0.18214106101E+04  0.00000000000E+00 0.  1.
    9000007    1    1    2  501    0 -0.37676835672E+03 -0.10448585618E+03 -0.15289886016E+04  0.16280902409E+04  0.40000000000E+03 0.  1.
   -9000007    1    1    2    0  502  0.37676835672E+03  0.10448585618E+03  0.79183981825E+02  0.56492635958E+03  0.40000000000E+03 0. -1.
<mgrwt>
<rscale>  2 0.55934934E+03</rscale>
<asrwt>0</asrwt>
<pdfrwt beam="1">  1       21 0.57170153E-01 0.55934934E+03</pdfrwt>
<pdfrwt beam="2">  1       21 0.28021702E+00 0.55934934E+03</pdfrwt>
<totfact> 0.93260451E+01</totfact>
</mgrwt>
</event>
<event>
 4    1  0.4821294E-002  0.4651723E+03  0.7818608E-02  0.1023292E+00
         21   -1    0    0  501  502  0.00000000000E+00  0.00000000000E+00  0.10710941369E+04  0.10710941369E+04  0.00000000000E+00 0. -1.
         21   -1    0    0  502  503 -0.00000000000E+00 -0.00000000000E+00 -0.65795350549E+03  0.65795350549E+03  0.00000000000E+00 0. -1.
    9000007    1    1    2  501    0 -0.22931107905E+03 -0.61658065696E+02  0.92623277502E+03  0.10364807965E+04  0.40000000000E+03 0. -1.
   -9000007    1    1    2    0  503  0.22931107905E+03  0.61658065696E+02 -0.51309214366E+03  0.69256684582E+03  0.40000000000E+03 0. -1.
<mgrwt>
<rscale>  2 0.46517232E+03</rscale>
<asrwt>0</asrwt>
<pdfrwt beam="1">  1       21 0.16478371E+00 0.46517232E+03</pdfrwt>
<pdfrwt beam="2">  1       21 0.10122362E+00 0.46517232E+03</pdfrwt>
<totfact> 0.14873787E+02</totfact>
</mgrwt>
</event>
<event>
 4    1  0.4821294E-002  0.4919862E+03  0.7818608E-02  0.1015892E+00
         21   -1    0    0  501  502  0.00000000000E+00  0.00000000000E+00  0.12995545137E+04  0.12995545137E+04  0.00000000000E+00 0. -1.
         21   -1    0    0  502  503 -0.00000000000E+00 -0.00000000000E+00 -0.45652948042E+03  0.45652948042E+03  0.00000000000E+00 0.  1.
    9000007    1    1    2  501    0 -0.71274849760E+02  0.27743526220E+03  0.10971009714E+04  0.12023647410E+04  0.40000000000E+03 0. -1.
   -9000007    1    1    2    0  503  0.71274849760E+02 -0.27743526220E+03 -0.25407593815E+03  0.55371925311E+03  0.40000000000E+03 0.  1.
<mgrwt>
<rscale>  2 0.49198621E+03</rscale>
<asrwt>0</asrwt>
<pdfrwt beam="1">  1       21 0.19993146E+00 0.49198621E+03</pdfrwt>
<pdfrwt beam="2">  1       21 0.70235305E-01 0.49198621E+03</pdfrwt>
<totfact> 0.19550840E+02</totfact>
</mgrwt>
</event>
<event>
 4    1  0.4821294E-002  0.4748788E+03  0.7818608E-02  0.1020552E+00
         21   -1    0    0  503  502  0.00000000000E+00  0.00000000000E+00  0.77831194336E+03  0.77831194336E+03  0.00000000000E+00 0. -1.
         21   -1    0    0  501  503 -0.00000000000E+00 -0.00000000000E+00 -0.46431505295E+03  0.46431505295E+03  0.00000000000E+00 0.  1.
    9000007    1    1    2  501    0  0.13607109351E+03  0.21678223290E+03 -0.22397320500E+03  0.52504654608E+03  0.40000000000E+03 0.  1.
   -9000007    1    1    2    0  502 -0.13607109351E+03 -0.21678223290E+03  0.53797009541E+03  0.71758045023E+03  0.40000000000E+03 0. -1.
<mgrwt>
<rscale>  2 0.47487880E+03</rscale>
<asrwt>0</asrwt>
<pdfrwt beam="1">  1       21 0.11974030E+00 0.47487880E+03</pdfrwt>
<pdfrwt beam="2">  1       21 0.71433085E-01 0.47487880E+03</pdfrwt>
<totfact> 0.78637327E+02</totfact>
</mgrwt>
</event>
<event>
 4    1  0.4821294E-002  0.4416745E+03  0.7818608E-02  0.1030234E+00
         21   -1    0    0  503  502  0.00000000000E+00  0.00000000000E+00  0.26884423388E+03  0.26884423388E+03  0.00000000000E+00 0. -1.
         21   -1    0    0  501  503 -0.00000000000E+00 -0.00000000000E+00 -0.19887631517E+04  0.19887631517E+04  0.00000000000E+00 0. -1.
    9000007    1    1    2  501    0  0.32624876671E+02 -0.18442342395E+03 -0.17595703225E+04  0.18141565814E+04  0.40000000000E+03 0. -1.
   -9000007    1    1    2    0  502 -0.32624876671E+02  0.18442342395E+03  0.39651404665E+02  0.44345080423E+03  0.40000000000E+03 0. -1.
<mgrwt>
<rscale>  2 0.44167452E+03</rscale>
<asrwt>0</asrwt>
<pdfrwt beam="1">  1       21 0.41360651E-01 0.44167452E+03</pdfrwt>
<pdfrwt beam="2">  1       21 0.30596356E+00 0.44167452E+03</pdfrwt>
<totfact> 0.13856088E+02</totfact>
</mgrwt>
</event>
<event>
 4    1  0.4821294E-002  0.4196717E+03  0.7818608E-02  0.1037173E+00
         21   -1    0    0  501  502  0.00000000000E+00  0.00000000000E+00  0.74674350066E+03  0.74674350066E+03  0.00000000000E+00 0. -1.
         21   -1    0    0  502  503 -0.00000000000E+00 -0.00000000000E+00 -0.27969435251E+03  0.27969435251E+03  0.00000000000E+00 0. -1.
    9000007    1    1    2  501    0 -0.12259804582E+03  0.33077070576E+02  0.43670647536E+03  0.60567063579E+03  0.40000000000E+03 0.  1.
   -9000007    1    1    2    0  503  0.12259804582E+03 -0.33077070576E+02  0.30342672794E+02  0.42076721739E+03  0.40000000000E+03 0.  1.
<mgrwt>
<rscale>  2 0.41967174E+03</rscale>
<asrwt>0</asrwt>
<pdfrwt beam="1">  1       21 0.11488361E+00 0.41967174E+03</pdfrwt>
<pdfrwt beam="2">  1       21 0.43029901E-01 0.41967174E+03</pdfrwt>
<totfact> 0.26734788E+03</totfact>
</mgrwt>
</event>
<event>
 4    1  0.4821294E-002  0.4186688E+03  0.7818608E-02  0.1037500E+00
         21   -1    0    0  501  502  0.00000000000E+00  0.00000000000E+00  0.43765726672E+03  0.43765726672E+03  0.00000000000E+00 0.  1.
         21   -1    0    0  502  503 -0.00000000000E+00 -0.00000000000E+00 -0.44217563671E+03  0.44217563671E+03  0.00000000000E+00 0. -1.
    9000007    1    1    2  501    0  0.10778157352E+03 -0.60553468208E+02  0.13278995966E+03  0.43922290866E+03  0.40000000000E+03 0. -1.
   -9000007    1    1    2    0  503 -0.10778157352E+03  0.60553468208E+02 -0.13730832965E+03  0.44060999477E+03  0.40000000000E+03 0. -1.
<mgrwt>
<rscale>  2 0.41866883E+03</rscale>
<asrwt>0</asrwt>
<pdfrwt beam="1">  1       21 0.67331887E-01 0.41866883E+03</pdfrwt>
<pdfrwt beam="2">  1       21 0.68027021E-01 0.41866883E+03</pdfrwt>
<totfact> 0.35178559E+03</totfact>
</mgrwt>
</event>
<event>
 4    1  0.4821294E-002  0.4283546E+03  0.7818608E-02  0.1034381E+00
         21   -1    0    0  503  502  0.00000000000E+00  0.00000000000E+00  0.22386723321E+03  0.22386723321E+03  0.00000000000E+00 0. -1.
         21   -1    0    0  501  503 -0.00000000000E+00 -0.00000000000E+00 -0.83542492272E+03  0.83542492272E+03  0.00000000000E+00 0.  1.
    9000007    1    1    2  501    0 -0.48055332023E+02  0.14552786185E+03 -0.37861202801E+03  0.57169462239E+03  0.40000000000E+03 0.  1.
   -9000007    1    1    2    0  502  0.48055332023E+02 -0.14552786185E+03 -0.23294566150E+03  0.48759753355E+03  0.40000000000E+03 0. -1.
<mgrwt>
<rscale>  2 0.42835461E+03</rscale>
<asrwt>0</asrwt>
<pdfrwt beam="1">  1       21 0.34441113E-01 0.42835461E+03</pdfrwt>
<pdfrwt beam="2">  1       21 0.12852691E+00 0.42835461E+03</pdfrwt>
<totfact> 0.31589578E+03</totfact>
</mgrwt>
</event>
<event>
 4    1  0.4821294E-002  0.5701916E+03  0.7818608E-02  0.9969255E-01
         21   -1    0    0  501  502  0.00000000000E+00  0.00000000000E+00  0.34451005354E+03  0.34451005354E+03  0.00000000000E+00 0.  1.
         21   -1    0    0  502  503 -0.00000000000E+00 -0.00000000000E+00 -0.13612718296E+04  0.13612718296E+04  0.00000000000E+00 0.  1.
    9000007    1    1    2  501    0 -0.20863141458E+02 -0.40581178196E+03 -0.36013262312E+02  0.57132777642E+03  0.40000000000E+03 0.  1.
   -9000007    1    1    2    0  503  0.20863141458E+02  0.40581178196E+03 -0.98074851373E+03  0.11344541067E+04  0.40000000000E+03 0.  1.
<mgrwt>
<rscale>  2 0.57019161E+03</rscale>
<asrwt>0</asrwt>
<pdfrwt beam="1">  1       21 0.53001547E-01 0.57019161E+03</pdfrwt>
<pdfrwt beam="2">  1       21 0.20942644E+00 0.57019161E+03</pdfrwt>
<totfact> 0.30402188E+02</totfact>
</mgrwt>
</event>
<event>
 4    1  0.4821294E-002  0.4256553E+03  0.7818608E-02  0.1035241E+00
         21   -1    0    0  503  502  0.00000000000E+00  0.00000000000E+00  0.53650295773E+03  0.53650295773E+03  0.00000000000E+00 0. -1.
         21   -1    0    0  501  503 -0.00000000000E+00 -0.00000000000E+00 -0.59252232815E+03  0.59252232815E+03  0.00000000000E+00 0. -1.
    9000007    1    1    2  501    0  0.98036274881E+02  0.10757026239E+03 -0.39820544269E+03  0.58288081726E+03  0.40000000000E+03 0. -1.
   -9000007    1    1    2    0  502 -0.98036274881E+02 -0.10757026239E+03  0.34218607227E+03  0.54614446861E+03  0.40000000000E+03 0. -1.
<mgrwt>
<rscale>  2 0.42565534E+03</rscale>
<asrwt>0</asrwt>
<pdfrwt beam="1">  1       21 0.82538917E-01 0.42565534E+03</pdfrwt>
<pdfrwt beam="2">  1       21 0.91157281E-01 0.42565534E+03</pdfrwt>
<totfact> 0.11253945E+03</totfact>
</mgrwt>
</event>
<event>
 4    1  0.4821294E-002  0.4883882E+03  0.7818608E-02  0.1016855E+00
         21   -1    0    0  503  502  0.00000000000E+00  0.00000000000E+00  0.12584633045E+03  0.12584633045E+03  0.00000000000E+00 0.  1.
         21   -1    0    0  501  503 -0.00000000000E+00 -0.00000000000E+00 -0.20345968265E+04  0.20345968265E+04  0.00000000000E+00 0.  1.
    9000007    1    1    2  501    0 -0.25796401801E+03 -0.10944202208E+03 -0.67178024265E+03  0.83054902637E+03  0.40000000000E+03 0. -1.
   -9000007    1    1    2    0  502  0.25796401801E+03  0.10944202208E+03 -0.12369702534E+04  0.13298941306E+04  0.40000000000E+03 0. -1.
<mgrwt>
<rscale>  2 0.48838816E+03</rscale>
<asrwt>0</asrwt>
<pdfrwt beam="1">  1       21 0.19360976E-01 0.48838816E+03</pdfrwt>
<pdfrwt beam="2">  1       21 0.31301486E+00 0.48838816E+03</pdfrwt>
<totfact> 0.54848933E+02</totfact>
</mgrwt>
</event>
<event>
 4    1  0.4821294E-002  0.5259436E+03  0.7818608E-02  0.1007221E+00
         21   -1    0    0  501  502  0.00000000000E+00  0.00000000000E+00  0.61321024068E+03  0.61321024068E+03  0.00000000000E+00 0. -1.
         21   -1    0    0  502  503 -0.00000000000E+00 -0.00000000000E+00 -0.57237906189E+03  0.57237906189E+03  0.00000000000E+00 0. -1.
    9000007    1    1    2  501    0 -0.31213312433E+03  0.13852657552E+03  0.29328977108E+03  0.60219231916E+03  0.40000000000E+03 0.  1.
   -9000007    1    1    2    0  503  0.31213312433E+03 -0.13852657552E+03 -0.25245859229E+03  0.58339698341E+03  0.40000000000E+03 0.  1.
<mgrwt>
<rscale>  2 0.52594363E+03</rscale>
<asrwt>0</asrwt>
<pdfrwt beam="1">  1       21 0.94340037E-01 0.52594363E+03</pdfrwt>
<pdfrwt beam="2">  1       21 0.88058317E-01 0.52594363E+03</pdfrwt>
<totfact> 0.85667100E+02</totfact>
</mgrwt>
</event>
<event>
 4    1  0.4821294E-002  0.4599899E+03  0.7818608E-02  0.1024784E+00
         21   -1    0    0  501  502  0.00000000000E+00  0.00000000000E+00  0.53713853439E+03  0.53713853439E+03  0.00000000000E+00 0. -1.
         21   -1    0    0  502  503 -0.00000000000E+00 -0.00000000000E+00 -0.98588245731E+03  0.98588245731E+03  0.00000000000E+00 0. -1.
    9000007    1    1    2  501    0 -0.68987685209E+02  0.21640562131E+03  0.36570637032E+03  0.58764942179E+03  0.40000000000E+03 0. -1.
   -9000007    1    1    2    0  503  0.68987685209E+02 -0.21640562131E+03 -0.81445029324E+03  0.93537156991E+03  0.40000000000E+03 0. -1.
<mgrwt>
<rscale>  2 0.45998988E+03</rscale>
<asrwt>0</asrwt>
<pdfrwt beam="1">  1       21 0.82636698E-01 0.45998988E+03</pdfrwt>
<pdfrwt beam="2">  1       21 0.15167422E+00 0.45998988E+03</pdfrwt>
<totfact> 0.30418243E+02</totfact>
</mgrwt>
</event>
<event>
 4    1  0.4821294E-002  0.4457707E+03  0.7818608E-02  0.1028991E+00
         21   -1    0    0  501  502  0.00000000000E+00  0.00000000000E+00  0.12904030707E+03  0.12904030707E+03  0.00000000000E+00 0. -1.
         21   -1    0    0  502  503 -0.00000000000E+00 -0.00000000000E+00 -0.16310444365E+04  0.16310444365E+04  0.00000000000E+00 0. -1.
    9000007    1    1    2  501    0  0.17544080899E+03  0.89062163419E+02 -0.54298839899E+03  0.70252967756E+03  0.40000000000E+03 0. -1.
   -9000007    1    1    2    0  503 -0.17544080899E+03 -0.89062163419E+02 -0.95901573043E+03  0.10575550660E+04  0.40000000000E+03 0. -1.
<mgrwt>
<rscale>  2 0.44577073E+03</rscale>
<asrwt>0</asrwt>
<pdfrwt beam="1">  1       21 0.19852356E-01 0.44577073E+03</pdfrwt>
<pdfrwt beam="2">  1       21 0.25092991E+00 0.44577073E+03</pdfrwt>
<totfact> 0.12701483E+03</totfact>
</mgrwt>
</event>
<event>
 4    1  0.4821294E-002  0.4272221E+03  0.7818608E-02  0.1034741E+00
         21   -1    0    0  501  502  0.00000000000E+00  0.00000000000E+00  0.11944809306E+04  0.11944809306E+04  0.00000000000E+00 0. -1.
         21   -1    0    0  502  503 -0.00000000000E+00 -0.00000000000E+00 -0.26339857051E+03  0.26339857051E+03  0.00000000000E+00 0. -1.
    9000007    1    1    2  501    0 -0.76194060327E+02 -0.12927961442E+03  0.93788287723E+03  0.10306032432E+04  0.40000000000E+03 0. -1.
   -9000007    1    1    2    0  503  0.76194060327E+02  0.12927961442E+03 -0.68005171305E+01  0.42727625790E+03  0.40000000000E+03 0. -1.
<mgrwt>
<rscale>  2 0.42722214E+03</rscale>
<asrwt>0</asrwt>
<pdfrwt beam="1">  1       21 0.18376629E+00 0.42722214E+03</pdfrwt>
<pdfrwt beam="2">  1       21 0.40522858E-01 0.42722214E+03</pdfrwt>
<totfact> 0.85008680E+02</totfact>
</mgrwt>
</event>
<event>
 4    1  0.4821294E-002  0.4381341E+03  0.7818608E-02  0.1031321E+00
         21   -1    0    0  503  502  0.00000000000E+00  0.00000000000E+00  0.30453760530E+03  0.30453760530E+03  0.00000000000E+00 0.  1.
         21   -1    0    0  501  503 -0.00000000000E+00 -0.00000000000E+00 -0.63245584727E+03  0.63245584727E+03  0.00000000000E+00 0. -1.
    9000007    1    1    2  501    0 -0.66438539938E+02  0.16597403409E+03 -0.13684506580E+03  0.45900765965E+03  0.40000000000E+03 0.  1.
   -9000007    1    1    2    0  502  0.66438539938E+02 -0.16597403409E+03 -0.19107317617E+03  0.47798579292E+03  0.40000000000E+03 0.  1.
<mgrwt>
<rscale>  2 0.43813407E+03</rscale>
<asrwt>0</asrwt>
<pdfrwt beam="1">  1       21 0.46851940E-01 0.43813407E+03</pdfrwt>
<pdfrwt beam="2">  1       21 0.97300899E-01 0.43813407E+03</pdfrwt>
<totfact> 0.33423943E+03</totfact>
</mgrwt>
</event>
<event>
 4    1  0.4821294E-002  0.4068775E+03  0.7818608E-02  0.1041424E+00
         21   -1    0    0  501  502  0.00000000000E+00  0.00000000000E+00  0.10053438967E+04  0.10053438967E+04  0.00000000000E+00 0.  1.
         21   -1    0    0  502  503 -0.00000000000E+00 -0.00000000000E+00 -0.18029199559E+03  0.18029199559E+03  0.00000000000E+00 0.  1.
    9000007    1    1    2  501    0  0.58594033815E+02 -0.45999984051E+02  0.58703233941E+03  0.71425221515E+03  0.40000000000E+03 0.  1.
   -9000007    1    1    2    0  503 -0.58594033815E+02  0.45999984051E+02  0.23801956171E+03  0.47138367715E+03  0.40000000000E+03 0.  1.
<mgrwt>
<rscale>  2 0.40687745E+03</rscale>
<asrwt>0</asrwt>
<pdfrwt beam="1">  1       21 0.15466829E+00 0.40687745E+03</pdfrwt>
<pdfrwt beam="2">  1       21 0.27737231E-01 0.40687745E+03</pdfrwt>
<totfact> 0.29981338E+03</totfact>
</mgrwt>
</event>
<event>
 4    1  0.4821294E-002  0.4658132E+03  0.7818608E-02  0.1023109E+00
         21   -1    0    0  501  502  0.00000000000E+00  0.00000000000E+00  0.17824801489E+04  0.17824801489E+04  0.00000000000E+00 0.  1.
         21   -1    0    0  502  503 -0.00000000000E+00 -0.00000000000E+00 -0.16090230048E+03  0.16090230048E+03  0.00000000000E+00 0.  1.
    9000007    1    1    2  501    0 -0.23288181770E+03 -0.52421698843E+02  0.12902293145E+04  0.13717411051E+04  0.40000000000E+03 0.  1.
   -9000007    1    1    2    0  503  0.23288181770E+03  0.52421698843E+02  0.33134853392E+03  0.57164134425E+03  0.40000000000E+03 0.  1.
<mgrwt>
<rscale>  2 0.46581324E+03</rscale>
<asrwt>0</asrwt>
<pdfrwt beam="1">  1       21 0.27422770E+00 0.46581324E+03</pdfrwt>
<pdfrwt beam="2">  1       21 0.24754201E-01 0.46581324E+03</pdfrwt>
<totfact> 0.59335105E+02</totfact>
</mgrwt>
</event>
<event>
 4    1  0.4821294E-002  0.5869643E+03  0.7818608E-02  0.9932826E-01
         21   -1    0    0  501  502  0.00000000000E+00  0.00000000000E+00  0.31682097485E+03  0.31682097485E+03  0.00000000000E+00 0. -1.
         21   -1    0    0  502  503 -0.00000000000E+00 -0.00000000000E+00 -0.13143674491E+04  0.13143674491E+04  0.00000000000E+00 0. -1.
    9000007    1    1    2  501    0  0.35391061173E+03 -0.24346332396E+03 -0.15989064946E+03  0.60835197953E+03  0.40000000000E+03 0. -1.
   -9000007    1    1    2    0  503 -0.35391061173E+03  0.24346332396E+03 -0.83765582479E+03  0.10228364444E+04  0.40000000000E+03 0. -1.
<mgrwt>
<rscale>  2 0.58696432E+03</rscale>
<asrwt>0</asrwt>
<pdfrwt beam="1">  1       21 0.48741688E-01 0.58696432E+03</pdfrwt>
<pdfrwt beam="2">  1       21 0.20221038E+00 0.58696432E+03</pdfrwt>
<totfact> 0.40364138E+02</totfact>
</mgrwt>
</event>
<event>
 4    1  0.4821294E-002  0.5624073E+03  0.7818608E-02  0.9986622E-01
         21   -1    0    0  501  502  0.00000000000E+00  0.00000000000E+00  0.22807581993E+04  0.22807581993E+04  0.00000000000E+00 0. -1.
         21   -1    0    0  502  503 -0.00000000000E+00 -0.00000000000E+00 -0.16484743834E+03  0.16484743834E+03  0.00000000000E+00 0. -1.
    9000007    1    1    2  501    0  0.16031599421E+03  0.36138733313E+03  0.15451162229E+04  0.16442889542E+04  0.40000000000E+03 0. -1.
   -9000007    1    1    2    0  503 -0.16031599421E+03 -0.36138733313E+03  0.57079453810E+03  0.80131668351E+03  0.40000000000E+03 0. -1.
<mgrwt>
<rscale>  2 0.56240735E+03</rscale>
<asrwt>0</asrwt>
<pdfrwt beam="1">  1       21 0.35088585E+00 0.56240735E+03</pdfrwt>
<pdfrwt beam="2">  1       21 0.25361146E-01 0.56240735E+03</pdfrwt>
<totfact> 0.18411368E+02</totfact>
</mgrwt>
</event>
<event>
 4    1  0.4821294E-002  0.4351442E+03  0.7818608E-02  0.1032247E+00
         21   -1    0    0  503  502  0.00000000000E+00  0.00000000000E+00  0.68483434090E+03  0.68483434090E+03  0.00000000000E+00 0.  1.
         21   -1    0    0  501  503 -0.00000000000E+00 -0.00000000000E+00 -0.34472447544E+03  0.34472447544E+03  0.00000000000E+00 0.  1.
    9000007    1    1    2  501    0  0.16242648937E+03  0.54480714539E+02 -0.58970620687E+02  0.43912190427E+03  0.40000000000E+03 0.  1.
   -9000007    1    1    2    0  502 -0.16242648937E+03 -0.54480714539E+02  0.39908048615E+03  0.59043691207E+03  0.40000000000E+03 0.  1.
<mgrwt>
<rscale>  2 0.43514424E+03</rscale>
<asrwt>0</asrwt>
<pdfrwt beam="1">  1       21 0.10535913E+00 0.43514424E+03</pdfrwt>
<pdfrwt beam="2">  1       21 0.53034535E-01 0.43514424E+03</pdfrwt>
<totfact> 0.21180904E+03</totfact>
</mgrwt>
</event>
<event>
 4    1  0.4821294E-002  0.4637908E+03  0.7818608E-02  0.1023687E+00
         21   -1    0    0  501  502  0.00000000000E+00  0.00000000000E+00  0.72598388545E+03  0.72598388545E+03  0.00000000000E+00 0. -1.
         21   -1    0    0  502  503 -0.00000000000E+00 -0.00000000000E+00 -0.32117642960E+03  0.32117642960E+03  0.00000000000E+00 0. -1.
    9000007    1    1    2  501    0 -0.21551437572E+03 -0.93034538432E+02  0.56659498415E+02  0.46723887921E+03  0.40000000000E+03 0. -1.
   -9000007    1    1    2    0  503  0.21551437572E+03  0.93034538432E+02  0.34814795743E+03  0.57992143584E+03  0.40000000000E+03 0. -1.
<mgrwt>
<rscale>  2 0.46379076E+03</rscale>
<asrwt>0</asrwt>
<pdfrwt beam="1">  1       21 0.11168983E+00 0.46379076E+03</pdfrwt>
<pdfrwt beam="2">  1       21 0.49411759E-01 0.46379076E+03</pdfrwt>
<totfact> 0.21091718E+03</totfact>
</mgrwt>
</event>
<event>
 4    1  0.4821294E-002  0.4345930E+03  0.7818608E-02  0.1032419E+00
         21   -1    0    0  503  502  0.00000000000E+00  0.00000000000E+00  0.54588086604E+03  0.54588086604E+03  0.00000000000E+00 0. -1.
         21   -1    0    0  501  503 -0.00000000000E+00 -0.00000000000E+00 -0.56006336188E+03  0.56006336188E+03  0.00000000000E+00 0. -1.
    9000007    1    1    2  501    0  0.76924327121E+02 -0.15150479294E+03 -0.34896262595E+03  0.55735623141E+03  0.40000000000E+03 0. -1.
   -9000007    1    1    2    0  502 -0.76924327121E+02  0.15150479294E+03  0.33478013011E+03  0.54858799650E+03  0.40000000000E+03 0. -1.
<mgrwt>
<rscale>  2 0.43459298E+03</rscale>
<asrwt>0</asrwt>
<pdfrwt beam="1">  1       21 0.83981672E-01 0.43459298E+03</pdfrwt>
<pdfrwt beam="2">  1       21 0.86163594E-01 0.43459298E+03</pdfrwt>
<totfact> 0.12298537E+03</totfact>
</mgrwt>
</event>
<event>
 4    1  0.4821294E-002  0.4461495E+03  0.7818608E-02  0.1028877E+00
         21   -1    0    0  503  502  0.00000000000E+00  0.00000000000E+00  0.52237433754E+03  0.52237433754E+03  0.00000000000E+00 0.  1.
         21   -1    0    0  501  503 -0.00000000000E+00 -0.00000000000E+00 -0.41487655087E+03  0.41487655087E+03  0.00000000000E+00 0.  1.
    9000007    1    1    2  501    0  0.16477053864E+03  0.10908746009E+03 -0.80068235820E+02  0.45327731770E+03  0.40000000000E+03 0.  1.
   -9000007    1    1    2    0  502 -0.16477053864E+03 -0.10908746009E+03  0.18756602250E+03  0.48397357071E+03  0.40000000000E+03 0.  1.
<mgrwt>
<rscale>  2 0.44614953E+03</rscale>
<asrwt>0</asrwt>
<pdfrwt beam="1">  1       21 0.80365283E-01 0.44614953E+03</pdfrwt>
<pdfrwt beam="2">  1       21 0.63827161E-01 0.44614953E+03</pdfrwt>
<totfact> 0.26851663E+03</totfact>
</mgrwt>
</event>
<event>
 4    1  0.4821294E-002  0.4989816E+03  0.7818608E-02  0.1014045E+00
         21   -1    0    0  503  502  0.00000000000E+00  0.00000000000E+00  0.24304112646E+03  0.24304112646E+03  0.00000000000E+00 0.  1.
         21   -1    0    0  501  503 -0.00000000000E+00 -0.00000000000E+00 -0.11010463253E+04  0.11010463253E+04  0.00000000000E+00 0.  1.
    9000007    1    1    2  501    0 -0.26519408094E+03  0.13658240327E+03 -0.25174357004E+03  0.55888950474E+03  0.40000000000E+03 0.  1.
   -9000007    1    1    2    0  502  0.26519408094E+03 -0.13658240327E+03 -0.60626162877E+03  0.78519794699E+03  0.40000000000E+03 0.  1.
<mgrwt>
<rscale>  2 0.49898162E+03</rscale>
<asrwt>0</asrwt>
<pdfrwt beam="1">  1       21 0.37390942E-01 0.49898162E+03</pdfrwt>
<pdfrwt beam="2">  1       21 0.16939174E+00 0.49898162E+03</pdfrwt>
<totfact> 0.12310666E+03</totfact>
</mgrwt>
</event>
<event>
 4    1  0.4821294E-002  0.4605529E+03  0.7818608E-02  0.1024621E+00
         21   -1    0    0  503  502  0.00000000000E+00  0.00000000000E+00  0.23722011341E+04  0.23722011341E+04  0.00000000000E+00 0.  1.
         21   -1    0    0  501  503 -0.00000000000E+00 -0.00000000000E+00 -0.91670300161E+02  0.91670300161E+02  0.00000000000E+00 0. -1.
    9000007    1    1    2  501    0  0.22808490662E+03 -0.92872401793E+01  0.94700977500E+03  0.10530605355E+04  0.40000000000E+03 0. -1.
   -9000007    1    1    2    0  502 -0.22808490662E+03  0.92872401793E+01  0.13335210590E+04  0.14108108988E+04  0.40000000000E+03 0.  1.
<mgrwt>
<rscale>  2 0.46055290E+03</rscale>
<asrwt>0</asrwt>
<pdfrwt beam="1">  1       21 0.36495397E+00 0.46055290E+03</pdfrwt>
<pdfrwt beam="2">  1       21 0.14103125E-01 0.46055290E+03</pdfrwt>
<totfact> 0.48554792E+02</totfact>
</mgrwt>
</event>
<event>
 4    1  0.4821294E-002  0.5036638E+03  0.7818608E-02  0.1012827E+00
         21   -1    0    0  503  502  0.00000000000E+00  0.00000000000E+00  0.71609844690E+03  0.71609844690E+03  0.00000000000E+00 0.  1.
         21   -1    0    0  501  503 -0.00000000000E+00 -0.00000000000E+00 -0.38705848485E+03  0.38705848485E+03  0.00000000000E+00 0. -1.
    9000007    1    1    2  501    0  0.22696977736E+03  0.20533362654E+03  0.39299678287E+01  0.50367908699E+03  0.40000000000E+03 0.  1.
   -9000007    1    1    2    0  502 -0.22696977736E+03 -0.20533362654E+03  0.32510999422E+03  0.59947784476E+03  0.40000000000E+03 0.  1.
<mgrwt>
<rscale>  2 0.50366375E+03</rscale>
<asrwt>0</asrwt>
<pdfrwt beam="1">  1       21 0.11016899E+00 0.50366375E+03</pdfrwt>
<pdfrwt beam="2">  1       21 0.59547460E-01 0.50366375E+03</pdfrwt>
<totfact> 0.14381815E+03</totfact>
</mgrwt>
</event>
<event>
 4    1  0.4821294E-002  0.4741648E+03  0.7818608E-02  0.1020751E+00
         21   -1    0    0  501  502  0.00000000000E+00  0.00000000000E+00  0.23898669160E+04  0.23898669160E+04  0.00000000000E+00 0.  1.
         21   -1    0    0  502  503 -0.00000000000E+00 -0.00000000000E+00 -0.94750658017E+02  0.94750658017E+02  0.00000000000E+00 0.  1.
    9000007    1    1    2  501    0  0.23968007739E+03  0.85939945312E+02  0.12522862296E+04  0.13390492950E+04  0.40000000000E+03 0.  1.
   -9000007    1    1    2    0  503 -0.23968007739E+03 -0.85939945312E+02  0.10428300284E+04  0.11455682789E+04  0.40000000000E+03 0.  1.
<mgrwt>
<rscale>  2 0.47416475E+03</rscale>
<asrwt>0</asrwt>
<pdfrwt beam="1">  1       21 0.36767179E+00 0.47416475E+03</pdfrwt>
<pdfrwt beam="2">  1       21 0.14577026E-01 0.47416475E+03</pdfrwt>
<totfact> 0.43571812E+02</totfact>
</mgrwt>
</event>
<event>
 4    1  0.4821294E-002  0.4445252E+03  0.7818608E-02  0.1029367E+00
         21   -1    0    0  503  502  0.00000000000E+00  0.00000000000E+00  0.63059858153E+03  0.63059858153E+03  0.00000000000E+00 0.  1.
         21   -1    0    0  501  503 -0.00000000000E+00 -0.00000000000E+00 -0.32408015878E+03  0.32408015878E+03  0.00000000000E+00 0.  1.
    9000007    1    1    2  501    0  0.10331802045E+03  0.16409761346E+03  0.66431720257E+02  0.44946169309E+03  0.40000000000E+03 0. -1.
   -9000007    1    1    2    0  502 -0.10331802045E+03 -0.16409761346E+03  0.24008670249E+03  0.50521704723E+03  0.40000000000E+03 0. -1.
<mgrwt>
<rscale>  2 0.44452518E+03</rscale>
<asrwt>0</asrwt>
<pdfrwt beam="1">  1       21 0.97015166E-01 0.44452518E+03</pdfrwt>
<pdfrwt beam="2">  1       21 0.49858486E-01 0.44452518E+03</pdfrwt>
<totfact> 0.29442967E+03</totfact>
</mgrwt>
</event>
<event>
 4    1  0.4821294E-002  0.4471438E+03  0.7818608E-02  0.1028577E+00
         21   -1    0    0  503  502  0.00000000000E+00  0.00000000000E+00  0.21554756659E+03  0.21554756659E+03  0.00000000000E+00 0. -1.
         21   -1    0    0  501  503 -0.00000000000E+00 -0.00000000000E+00 -0.10197582149E+04  0.10197582149E+04  0.00000000000E+00 0. -1.
    9000007    1    1    2  501    0 -0.19449542250E+03  0.45924553819E+02 -0.58780488178E+03  0.73854729914E+03  0.40000000000E+03 0. -1.
   -9000007    1    1    2    0  502  0.19449542250E+03 -0.45924553819E+02 -0.21640576656E+03  0.49675848238E+03  0.40000000000E+03 0. -1.
<mgrwt>
<rscale>  2 0.44714375E+03</rscale>
<asrwt>0</asrwt>
<pdfrwt beam="1">  1       21 0.33161164E-01 0.44714375E+03</pdfrwt>
<pdfrwt beam="2">  1       21 0.15688588E+00 0.44714375E+03</pdfrwt>
<totfact> 0.19883624E+03</totfact>
</mgrwt>
</event>
<event>
 4    1  0.4821294E-002  0.4294594E+03  0.7818608E-02  0.1034031E+00
         21   -1    0    0  501  502  0.00000000000E+00  0.00000000000E+00  0.21646792610E+03  0.21646792610E+03  0.00000000000E+00 0. -1.
         21   -1    0    0  502  503 -0.00000000000E+00 -0.00000000000E+00 -0.94979532291E+03  0.94979532291E+03  0.00000000000E+00 0. -1.
    9000007    1    1    2  501    0  0.71243803001E+02  0.13913914111E+03 -0.17956863171E+03  0.46548928403E+03  0.40000000000E+03 0. -1.
   -9000007    1    1    2    0  503 -0.71243803001E+02 -0.13913914111E+03 -0.55375876510E+03  0.70077396497E+03  0.40000000000E+03 0. -1.
<mgrwt>
<rscale>  2 0.42945940E+03</rscale>
<asrwt>0</asrwt>
<pdfrwt beam="1">  1       21 0.33302758E-01 0.42945940E+03</pdfrwt>
<pdfrwt beam="2">  1       21 0.14612236E+00 0.42945940E+03</pdfrwt>
<totfact> 0.24094414E+03</totfact>
</mgrwt>
</event>
<event>
 4    1  0.4821294E-002  0.4743604E+03  0.7818608E-02  0.1020697E+00
         21   -1    0    0  503  502  0.00000000000E+00  0.00000000000E+00  0.19820135617E+04  0.19820135617E+04  0.00000000000E+00 0. -1.
         21   -1    0    0  501  503 -0.00000000000E+00 -0.00000000000E+00 -0.11592682828E+03  0.11592682828E+03  0.00000000000E+00 0.  1.
    9000007    1    1    2  501    0  0.93470374085E+02  0.23723636126E+03  0.10838771659E+04  0.11831346131E+04  0.40000000000E+03 0. -1.
   -9000007    1    1    2    0  502 -0.93470374085E+02 -0.23723636126E+03  0.78220956759E+03  0.91480577696E+03  0.40000000000E+03 0.  1.
<mgrwt>
<rscale>  2 0.47436041E+03</rscale>
<asrwt>0</asrwt>
<pdfrwt beam="1">  1       21 0.30492514E+00 0.47436041E+03</pdfrwt>
<pdfrwt beam="2">  1       21 0.17834898E-01 0.47436041E+03</pdfrwt>
<totfact> 0.72237622E+02</totfact>
</mgrwt>
</event>
<event>
 4    1  0.4821294E-002  0.4931900E+03  0.7818608E-02  0.1015572E+00
         21   -1    0    0  501  502  0.00000000000E+00  0.00000000000E+00  0.60002069694E+03  0.60002069694E+03  0.00000000000E+00 0.  1.
         21   -1    0    0  502  503 -0.00000000000E+00 -0.00000000000E+00 -0.79560843132E+03  0.79560843132E+03  0.00000000000E+00 0. -1.
    9000007    1    1    2  501    0  0.27925602319E+03 -0.72473833708E+02  0.39091453029E+03  0.62932547466E+03  0.40000000000E+03 0.  1.
   -9000007    1    1    2    0  503 -0.27925602319E+03  0.72473833708E+02 -0.58650226467E+03  0.76630365360E+03  0.40000000000E+03 0. -1.
<mgrwt>
<rscale>  2 0.49319001E+03</rscale>
<asrwt>0</asrwt>
<pdfrwt beam="1">  1       21 0.92310876E-01 0.49319001E+03</pdfrwt>
<pdfrwt beam="2">  1       21 0.12240130E+00 0.49319001E+03</pdfrwt>
<totfact> 0.40665201E+02</totfact>
</mgrwt>
</event>
<event>
 4    1  0.4821294E-002  0.6386988E+03  0.7818608E-02  0.9828219E-01
         21   -1    0    0  501  502  0.00000000000E+00  0.00000000000E+00  0.36099144994E+03  0.36099144994E+03  0.00000000000E+00 0.  1.
         21   -1    0    0  502  503 -0.00000000000E+00 -0.00000000000E+00 -0.11993414054E+04  0.11993414054E+04  0.00000000000E+00 0. -1.
    9000007    1    1    2  501    0  0.35403940214E+03  0.35013183443E+03 -0.60670660606E+03  0.88092514187E+03  0.40000000000E+03 0. -1.
   -9000007    1    1    2    0  503 -0.35403940214E+03 -0.35013183443E+03 -0.23164334936E+03  0.67940771342E+03  0.40000000000E+03 0.  1.
<mgrwt>
<rscale>  2 0.63869883E+03</rscale>
<asrwt>0</asrwt>
<pdfrwt beam="1">  1       21 0.55537145E-01 0.63869883E+03</pdfrwt>
<pdfrwt beam="2">  1       21 0.18451407E+00 0.63869883E+03</pdfrwt>
<totfact> 0.39581272E+02</totfact>
</mgrwt>
</event>
<event>
 4    1  0.4821294E-002  0.4101145E+03  0.7818608E-02  0.1040333E+00
         21   -1    0    0  503  502  0.00000000000E+00  0.00000000000E+00  0.33925184076E+03  0.33925184076E+03  0.00000000000E+00 0.  1.
         21   -1    0    0  501  503 -0.00000000000E+00 -0.00000000000E+00 -0.50789694029E+03  0.50789694029E+03  0.00000000000E+00 0.  1.
    9000007    1    1    2  501    0 -0.85364880933E+02  0.30111990129E+02 -0.18895309987E+02  0.41054954340E+03  0.40000000000E+03 0. -1.
   -9000007    1    1    2    0  502  0.85364880933E+02 -0.30111990129E+02 -0.14974978954E+03  0.43659923765E+03  0.40000000000E+03 0. -1.
<mgrwt>
<rscale>  2 0.41011449E+03</rscale>
<asrwt>0</asrwt>
<pdfrwt beam="1">  1       21 0.52192591E-01 0.41011449E+03</pdfrwt>
<pdfrwt beam="2">  1       21 0.78137991E-01 0.41011449E+03</pdfrwt>
<totfact> 0.44962011E+03</totfact>
</mgrwt>
</event>
<event>
 4    1  0.4821294E-002  0.4974177E+03  0.7818608E-02  0.1014455E+00
         21   -1    0    0  501  502  0.00000000000E+00  0.00000000000E+00  0.59665151872E+03  0.59665151872E+03  0.00000000000E+00 0.  1.
         21   -1    0    0  502  503 -0.00000000000E+00 -0.00000000000E+00 -0.41655653294E+03  0.41655653294E+03  0.00000000000E+00 0.  1.
    9000007    1    1    2  501    0  0.27789986964E+03 -0.10097533949E+03  0.56119639712E+02  0.50057344186E+03  0.40000000000E+03 0.  1.
   -9000007    1    1    2    0  503 -0.27789986964E+03  0.10097533949E+03  0.12397534608E+03  0.51263460980E+03  0.40000000000E+03 0.  1.
<mgrwt>
<rscale>  2 0.49741769E+03</rscale>
<asrwt>0</asrwt>
<pdfrwt beam="1">  1       21 0.91792542E-01 0.49741769E+03</pdfrwt>
<pdfrwt beam="2">  1       21 0.64085620E-01 0.49741769E+03</pdfrwt>
<totfact> 0.19127633E+03</totfact>
</mgrwt>
</event>
<event>
 4    1  0.4821294E-002  0.4074419E+03  0.7818608E-02  0.1041233E+00
         21   -1    0    0  501  502  0.00000000000E+00  0.00000000000E+00  0.26027943777E+03  0.26027943777E+03  0.00000000000E+00 0. -1.
         21   -1    0    0  502  503 -0.00000000000E+00 -0.00000000000E+00 -0.10659476053E+04  0.10659476053E+04  0.00000000000E+00 0. -1.
    9000007    1    1    2  501    0 -0.51265877333E+02 -0.58143582497E+02  0.17419637759E+02  0.40781406320E+03  0.40000000000E+03 0. -1.
   -9000007    1    1    2    0  503  0.51265877333E+02  0.58143582497E+02 -0.82308780524E+03  0.91841297982E+03  0.40000000000E+03 0. -1.
<mgrwt>
<rscale>  2 0.40744186E+03</rscale>
<asrwt>0</asrwt>
<pdfrwt beam="1">  1       21 0.40042990E-01 0.40744186E+03</pdfrwt>
<pdfrwt beam="2">  1       21 0.16399194E+00 0.40744186E+03</pdfrwt>
<totfact> 0.12190328E+03</totfact>
</mgrwt>
</event>
<event>
 4    1  0.4821294E-002  0.4077548E+03  0.7818608E-02  0.1041127E+00
         21   -1    0    0  501  502  0.00000000000E+00  0.00000000000E+00  0.60665200670E+03  0.60665200670E+03  0.00000000000E+00 0.  1.
         21   -1    0    0  502  503 -0.00000000000E+00 -0.00000000000E+00 -0.29079360528E+03  0.29079360528E+03  0.00000000000E+00 0.  1.
    9000007    1    1    2  501    0 -0.21444169348E+02  0.76184612079E+02  0.26554490893E+03  0.48659844448E+03  0.40000000000E+03 0.  1.
   -9000007    1    1    2    0  503  0.21444169348E+02 -0.76184612079E+02  0.50313492493E+02  0.41084716750E+03  0.40000000000E+03 0.  1.
<mgrwt>
<rscale>  2 0.40775476E+03</rscale>
<asrwt>0</asrwt>
<pdfrwt beam="1">  1       21 0.93331077E-01 0.40775476E+03</pdfrwt>
<pdfrwt beam="2">  1       21 0.44737478E-01 0.40775476E+03</pdfrwt>
<totfact> 0.41143013E+03</totfact>
</mgrwt>
</event>
<event>
 4    1  0.4821294E-002  0.4118149E+03  0.7818608E-02  0.1039764E+00
         21   -1    0    0  503  502  0.00000000000E+00  0.00000000000E+00  0.75776417388E+03  0.75776417388E+03  0.00000000000E+00 0. -1.
         21   -1    0    0  501  503 -0.00000000000E+00 -0.00000000000E+00 -0.43058473646E+03  0.43058473646E+03  0.00000000000E+00 0. -1.
    9000007    1    1    2  501    0 -0.58661588449E+02  0.78424089416E+02 -0.24816491876E+03  0.48080905426E+03  0.40000000000E+03 0. -1.
   -9000007    1    1    2    0  502  0.58661588449E+02 -0.78424089416E+02  0.57534435618E+03  0.70753985608E+03  0.40000000000E+03 0. -1.
<mgrwt>
<rscale>  2 0.41181491E+03</rscale>
<asrwt>0</asrwt>
<pdfrwt beam="1">  1       21 0.11657910E+00 0.41181491E+03</pdfrwt>
<pdfrwt beam="2">  1       21 0.66243805E-01 0.41181491E+03</pdfrwt>
<totfact> 0.10237812E+03</totfact>
</mgrwt>
</event>
<event>
 4    1  0.4821294E-002  0.6090093E+03  0.7818608E-02  0.9886889E-01
         21   -1    0    0  501  502  0.00000000000E+00  0.00000000000E+00  0.81099579115E+03  0.81099579115E+03  0.00000000000E+00 0.  1.
         21   -1    0    0  502  503 -0.00000000000E+00 -0.00000000000E+00 -0.10092097649E+04  0.10092097649E+04  0.00000000000E+00 0. -1.
    9000007    1    1    2  501    0 -0.39979309071E+03  0.22595981809E+03  0.57390395228E+03  0.83681425730E+03  0.40000000000E+03 0.  1.
   -9000007    1    1    2    0  503  0.39979309071E+03 -0.22595981809E+03 -0.77211792606E+03  0.98339129878E+03  0.40000000000E+03 0. -1.
<mgrwt>
<rscale>  2 0.60900932E+03</rscale>
<asrwt>0</asrwt>
<pdfrwt beam="1">  1       21 0.12476858E+00 0.60900932E+03</pdfrwt>
<pdfrwt beam="2">  1       21 0.15526304E+00 0.60900932E+03</pdfrwt>
<totfact> 0.97389794E+01</totfact>
</mgrwt>
</event>
<event>
 4    1  0.4821294E-002  0.8626611E+03  0.7818608E-02  0.9473499E-01
         21   -1    0    0  503  502  0.00000000000E+00  0.00000000000E+00  0.60920755725E+03  0.60920755725E+03  0.00000000000E+00 0. -1.
         21   -1    0    0  501  503 -0.00000000000E+00 -0.00000000000E+00 -0.12259649601E+04  0.12259649601E+04  0.00000000000E+00 0.  1.
    9000007    1    1    2  501    0 -0.45554336733E+02 -0.76296070766E+03 -0.36337403238E+03  0.93606886842E+03  0.40000000000E+03 0.  1.
   -9000007    1    1    2    0  502  0.45554336733E+02  0.76296070766E+03 -0.25338337045E+03  0.89910364889E+03  0.40000000000E+03 0.  1.
<mgrwt>
<rscale>  2 0.86266114E+03</rscale>
<asrwt>0</asrwt>
<pdfrwt beam="1">  1       21 0.93724239E-01 0.86266114E+03</pdfrwt>
<pdfrwt beam="2">  1       21 0.18860999E+00 0.86266114E+03</pdfrwt>
<totfact> 0.10412929E+02</totfact>
</mgrwt>
</event>
<event>
 4    1  0.4821294E-002  0.4148930E+03  0.7818608E-02  0.1038741E+00
         21   -1    0    0  501  502  0.00000000000E+00  0.00000000000E+00  0.47216487598E+03  0.47216487598E+03  0.00000000000E+00 0.  1.
         21   -1    0    0  502  503 -0.00000000000E+00 -0.00000000000E+00 -0.96448314162E+03  0.96448314162E+03  0.00000000000E+00 0.  1.
    9000007    1    1    2  501    0  0.41772240859E+02 -0.10193780688E+03  0.32036439246E+03  0.52418468171E+03  0.40000000000E+03 0.  1.
   -9000007    1    1    2    0  503 -0.41772240859E+02  0.10193780688E+03 -0.81268265810E+03  0.91246333590E+03  0.40000000000E+03 0.  1.
<mgrwt>
<rscale>  2 0.41489304E+03</rscale>
<asrwt>0</asrwt>
<pdfrwt beam="1">  1       21 0.72640750E-01 0.41489304E+03</pdfrwt>
<pdfrwt beam="2">  1       21 0.14838202E+00 0.41489304E+03</pdfrwt>
<totfact> 0.44371563E+02</totfact>
</mgrwt>
</event>
<event>
 4    1  0.4821294E-002  0.4186701E+03  0.7818608E-02  0.1037500E+00
         21   -1    0    0  503  502  0.00000000000E+00  0.00000000000E+00  0.75350983563E+03  0.75350983563E+03  0.00000000000E+00 0. -1.
         21   -1    0    0  501  503 -0.00000000000E+00 -0.00000000000E+00 -0.26815080066E+03  0.26815080066E+03  0.00000000000E+00 0. -1.
    9000007    1    1    2  501    0 -0.11859383584E+03 -0.34930457097E+02  0.56743362583E+02  0.42249786263E+03  0.40000000000E+03 0. -1.
   -9000007    1    1    2    0  502  0.11859383584E+03  0.34930457097E+02  0.42861567239E+03  0.59916277367E+03  0.40000000000E+03 0. -1.
<mgrwt>
<rscale>  2 0.41867008E+03</rscale>
<asrwt>0</asrwt>
<pdfrwt beam="1">  1       21 0.11592459E+00 0.41867008E+03</pdfrwt>
<pdfrwt beam="2">  1       21 0.41253970E-01 0.41867008E+03</pdfrwt>
<totfact> 0.28536271E+03</totfact>
</mgrwt>
</event>
<event>
 4    1  0.4821294E-002  0.8589197E+03  0.7818608E-02  0.9478443E-01
         21   -1    0    0  501  502  0.00000000000E+00  0.00000000000E+00  0.66097426638E+03  0.66097426638E+03  0.00000000000E+00 0. -1.
         21   -1    0    0  502  503 -0.00000000000E+00 -0.00000000000E+00 -0.12482624568E+04  0.12482624568E+04  0.00000000000E+00 0.  1.
    9000007    1    1    2  501    0  0.65091030269E+03  0.39250330104E+03  0.16924171792E+02  0.85908642817E+03  0.40000000000E+03 0. -1.
   -9000007    1    1    2    0  503 -0.65091030269E+03 -0.39250330104E+03 -0.60421236223E+03  0.10501502950E+04  0.40000000000E+03 0.  1.
<mgrwt>
<rscale>  2 0.85891971E+03</rscale>
<asrwt>0</asrwt>
<pdfrwt beam="1">  1       21 0.10168835E+00 0.85891971E+03</pdfrwt>
<pdfrwt beam="2">  1       21 0.19204038E+00 0.85891971E+03</pdfrwt>
<totfact> 0.80744551E+01</totfact>
</mgrwt>
</event>
<event>
 4    1  0.4821294E-002  0.4482463E+03  0.7818608E-02  0.1028246E+00
         21   -1    0    0  501  502  0.00000000000E+00  0.00000000000E+00  0.12228034687E+03  0.12228034687E+03  0.00000000000E+00 0. -1.
         21   -1    0    0  502  503 -0.00000000000E+00 -0.00000000000E+00 -0.18239620610E+04  0.18239620610E+04  0.00000000000E+00 0.  1.
    9000007    1    1    2  501    0  0.19089970851E+03 -0.66948089453E+02 -0.54445073303E+03  0.70523141315E+03  0.40000000000E+03 0. -1.
   -9000007    1    1    2    0  503 -0.19089970851E+03  0.66948089453E+02 -0.11572309811E+04  0.12410109947E+04  0.40000000000E+03 0.  1.
<mgrwt>
<rscale>  2 0.44824630E+03</rscale>
<asrwt>0</asrwt>
<pdfrwt beam="1">  1       21 0.18812363E-01 0.44824630E+03</pdfrwt>
<pdfrwt beam="2">  1       21 0.28060952E+00 0.44824630E+03</pdfrwt>
<totfact> 0.92786385E+02</totfact>
</mgrwt>
</event>
<event>
 4    1  0.4821294E-002  0.1688536E+04  0.7818608E-02  0.8767930E-01
         21   -1    0    0  503  502  0.00000000000E+00  0.00000000000E+00  0.11007315514E+04  0.11007315514E+04  0.00000000000E+00 0. -1.
         21   -1    0    0  501  503 -0.00000000000E+00 -0.00000000000E+00 -0.27668672229E+04  0.27668672229E+04  0.00000000000E+00 0.  1.
    9000007    1    1    2  501    0  0.29612380826E+03  0.16135254814E+04 -0.34446972792E+03  0.17233145918E+04  0.40000000000E+03 0.  1.
   -9000007    1    1    2    0  502 -0.29612380826E+03 -0.16135254814E+04 -0.13216659437E+04  0.21442841825E+04  0.40000000000E+03 0. -1.
<mgrwt>
<rscale>  2 0.16885360E+04</rscale>
<asrwt>0</asrwt>
<pdfrwt beam="1">  1       21 0.16934332E+00 0.16885360E+04</pdfrwt>
<pdfrwt beam="2">  1       21 0.42567188E+00 0.16885360E+04</pdfrwt>
<totfact> 0.51218759E-01</totfact>
</mgrwt>
</event>
<event>
 4    1  0.4821294E-002  0.4384241E+03  0.7818608E-02  0.1031231E+00
         21   -1    0    0  503  502  0.00000000000E+00  0.00000000000E+00  0.45311822714E+03  0.45311822714E+03  0.00000000000E+00 0.  1.
         21   -1    0    0  501  503 -0.00000000000E+00 -0.00000000000E+00 -0.48842299257E+03  0.48842299257E+03  0.00000000000E+00 0. -1.
    9000007    1    1    2  501    0  0.13184550188E+03 -0.12178866530E+03 -0.18835274671E+03  0.47717132412E+03  0.40000000000E+03 0. -1.
   -9000007    1    1    2    0  502 -0.13184550188E+03  0.12178866530E+03  0.15304798129E+03  0.46436989560E+03  0.40000000000E+03 0.  1.
<mgrwt>
<rscale>  2 0.43842413E+03</rscale>
<asrwt>0</asrwt>
<pdfrwt beam="1">  1       21 0.69710496E-01 0.43842413E+03</pdfrwt>
<pdfrwt beam="2">  1       21 0.75141999E-01 0.43842413E+03</pdfrwt>
<totfact> 0.25808212E+03</totfact>
</mgrwt>
</event>
<event>
 4    1  0.4821294E-002  0.4224816E+03  0.7818608E-02  0.1036262E+00
         21   -1    0    0  501  502  0.00000000000E+00  0.00000000000E+00  0.21725701685E+03  0.21725701685E+03  0.00000000000E+00 0. -1.
         21   -1    0    0  502  503 -0.00000000000E+00 -0.00000000000E+00 -0.15573816776E+04  0.15573816776E+04  0.00000000000E+00 0. -1.
    9000007    1    1    2  501    0  0.91769960298E+02  0.10034432740E+03 -0.60150153803E+02  0.42674201886E+03  0.40000000000E+03 0. -1.
   -9000007    1    1    2    0  503 -0.91769960298E+02 -0.10034432740E+03 -0.12799745070E+04  0.13478966756E+04  0.40000000000E+03 0. -1.
<mgrwt>
<rscale>  2 0.42248161E+03</rscale>
<asrwt>0</asrwt>
<pdfrwt beam="1">  1       21 0.33424155E-01 0.42248161E+03</pdfrwt>
<pdfrwt beam="2">  1       21 0.23959719E+00 0.42248161E+03</pdfrwt>
<totfact> 0.54591072E+02</totfact>
</mgrwt>
</event>
<event>
 4    1  0.4821294E-002  0.4596029E+03  0.7818608E-02  0.1024896E+00
         21   -1    0    0  501  502  0.00000000000E+00  0.00000000000E+00  0.55832156130E+03  0.55832156130E+03  0.00000000000E+00 0.  1.
         21   -1    0    0  502  503 -0.00000000000E+00 -0.00000000000E+00 -0.47049074111E+03  0.47049074111E+03  0.00000000000E+00 0.  1.
    9000007    1    1    2  501    0 -0.12658138183E+02 -0.22599682996E+03  0.27157318827E+03  0.53384154222E+03  0.40000000000E+03 0.  1.
   -9000007    1    1    2    0  503  0.12658138183E+02  0.22599682996E+03 -0.18374236807E+03  0.49497076019E+03  0.40000000000E+03 0.  1.
<mgrwt>
<rscale>  2 0.45960287E+03</rscale>
<asrwt>0</asrwt>
<pdfrwt beam="1">  1       21 0.85895625E-01 0.45960287E+03</pdfrwt>
<pdfrwt beam="2">  1       21 0.72383191E-01 0.45960287E+03</pdfrwt>
<totfact> 0.17262386E+03</totfact>
</mgrwt>
</event>
<event>
 4    1  0.4821294E-002  0.5721334E+03  0.7818608E-02  0.9964969E-01
         21   -1    0    0  501  502  0.00000000000E+00  0.00000000000E+00  0.39653583558E+03  0.39653583558E+03  0.00000000000E+00 0.  1.
         21   -1    0    0  502  503 -0.00000000000E+00 -0.00000000000E+00 -0.85191583241E+03  0.85191583241E+03  0.00000000000E+00 0. -1.
    9000007    1    1    2  501    0  0.40694474491E+03 -0.41624939558E+02 -0.33762896170E+03  0.66432670937E+03  0.40000000000E+03 0.  1.
   -9000007    1    1    2    0  503 -0.40694474491E+03  0.41624939558E+02 -0.11775103513E+03  0.58412495861E+03  0.40000000000E+03 0.  1.
<mgrwt>
<rscale>  2 0.57213343E+03</rscale>
<asrwt>0</asrwt>
<pdfrwt beam="1">  1       21 0.61005514E-01 0.57213343E+03</pdfrwt>
<pdfrwt beam="2">  1       21 0.13106397E+00 0.57213343E+03</pdfrwt>
<totfact> 0.85511608E+02</totfact>
</mgrwt>
</event>
<event>
 4    1  0.4821294E-002  0.4391688E+03  0.7818608E-02  0.1031002E+00
         21   -1    0    0  503  502  0.00000000000E+00  0.00000000000E+00  0.19780409454E+03  0.19780409454E+03  0.00000000000E+00 0.  1.
         21   -1    0    0  501  503 -0.00000000000E+00 -0.00000000000E+00 -0.16191288382E+04  0.16191288382E+04  0.00000000000E+00 0.  1.
    9000007    1    1    2  501    0 -0.62325119538E+02 -0.17024938509E+03 -0.12836391820E+04  0.13566867079E+04  0.40000000000E+03 0.  1.
   -9000007    1    1    2    0  502  0.62325119538E+02  0.17024938509E+03 -0.13768556167E+03  0.46024622491E+03  0.40000000000E+03 0.  1.
<mgrwt>
<rscale>  2 0.43916884E+03</rscale>
<asrwt>0</asrwt>
<pdfrwt beam="1">  1       21 0.30431400E-01 0.43916884E+03</pdfrwt>
<pdfrwt beam="2">  1       21 0.24909674E+00 0.43916884E+03</pdfrwt>
<totfact> 0.57029733E+02</totfact>
</mgrwt>
</event>
<event>
 4    1  0.4821294E-002  0.6224899E+03  0.7818608E-02  0.9859815E-01
         21   -1    0    0  501  502  0.00000000000E+00  0.00000000000E+00  0.17118000411E+04  0.17118000411E+04  0.00000000000E+00 0. -1.
         21   -1    0    0  502  503 -0.00000000000E+00 -0.00000000000E+00 -0.27932480650E+03  0.27932480650E+03  0.00000000000E+00 0.  1.
    9000007    1    1    2  501    0 -0.26051501020E+03 -0.39953172652E+03  0.28274468989E+03  0.68369454488E+03  0.40000000000E+03 0.  1.
   -9000007    1    1    2    0  503  0.26051501020E+03  0.39953172652E+03  0.11497305448E+04  0.13074303028E+04  0.40000000000E+03 0. -1.
<mgrwt>
<rscale>  2 0.62248990E+03</rscale>
<asrwt>0</asrwt>
<pdfrwt beam="1">  1       21 0.26335385E+00 0.62248990E+03</pdfrwt>
<pdfrwt beam="2">  1       21 0.42973048E-01 0.62248990E+03</pdfrwt>
<totfact> 0.21165561E+02</totfact>
</mgrwt>
</event>
<event>
 4    1  0.4821294E-002  0.4682264E+03  0.7818608E-02  0.1022422E+00
         21   -1    0    0  503  502  0.00000000000E+00  0.00000000000E+00  0.52232187595E+03  0.52232187595E+03  0.00000000000E+00 0.  1.
         21   -1    0    0  501  503 -0.00000000000E+00 -0.00000000000E+00 -0.57062781220E+03  0.57062781220E+03  0.00000000000E+00 0. -1.
    9000007    1    1    2  501    0  0.92750159733E+02 -0.22501854897E+03 -0.30516847060E+03  0.55889510193E+03  0.40000000000E+03 0. -1.
   -9000007    1    1    2    0  502 -0.92750159733E+02  0.22501854897E+03  0.25686253435E+03  0.53405458622E+03  0.40000000000E+03 0.  1.
<mgrwt>
<rscale>  2 0.46822638E+03</rscale>
<asrwt>0</asrwt>
<pdfrwt beam="1">  1       21 0.80357212E-01 0.46822638E+03</pdfrwt>
<pdfrwt beam="2">  1       21 0.87788894E-01 0.46822638E+03</pdfrwt>
<totfact> 0.12866265E+03</totfact>
</mgrwt>
</event>
<event>
 4    1  0.4821294E-002  0.4579763E+03  0.7818608E-02  0.1025370E+00
         21   -1    0    0  501  502  0.00000000000E+00  0.00000000000E+00  0.15214567416E+04  0.15214567416E+04  0.00000000000E+00 0.  1.
         21   -1    0    0  502  503 -0.00000000000E+00 -0.00000000000E+00 -0.19029759970E+03  0.19029759970E+03  0.00000000000E+00 0.  1.
    9000007    1    1    2  501    0 -0.96526608471E+02 -0.20105944660E+03  0.11148748024E+04  0.12052751189E+04  0.40000000000E+03 0.  1.
   -9000007    1    1    2    0  503  0.96526608471E+02  0.20105944660E+03  0.21628433949E+03  0.50647922239E+03  0.40000000000E+03 0.  1.
<mgrwt>
<rscale>  2 0.45797630E+03</rscale>
<asrwt>0</asrwt>
<pdfrwt beam="1">  1       21 0.23407026E+00 0.45797630E+03</pdfrwt>
<pdfrwt beam="2">  1       21 0.29276555E-01 0.45797630E+03</pdfrwt>
<totfact> 0.75577434E+02</totfact>
</mgrwt>
</event>
<event>
 4    1  0.4821294E-002  0.4398401E+03  0.7818608E-02  0.1030796E+00
         21   -1    0    0  503  502  0.00000000000E+00  0.00000000000E+00  0.52744895557E+03  0.52744895557E+03  0.00000000000E+00 0.  1.
         21   -1    0    0  501  503 -0.00000000000E+00 -0.00000000000E+00 -0.37360780248E+03  0.37360780248E+03  0.00000000000E+00 0.  1.
    9000007    1    1    2  501    0 -0.26730854374E+02  0.18095516311E+03  0.13781244014E+03  0.46092469915E+03  0.40000000000E+03 0.  1.
   -9000007    1    1    2    0  502  0.26730854374E+02 -0.18095516311E+03  0.16028712947E+02  0.44013205890E+03  0.40000000000E+03 0.  1.
<mgrwt>
<rscale>  2 0.43984010E+03</rscale>
<asrwt>0</asrwt>
<pdfrwt beam="1">  1       21 0.81145994E-01 0.43984010E+03</pdfrwt>
<pdfrwt beam="2">  1       21 0.57478123E-01 0.43984010E+03</pdfrwt>
<totfact> 0.33121356E+03</totfact>
</mgrwt>
</event>
<event>
 4    1  0.4821294E-002  0.4098362E+03  0.7818608E-02  0.1040426E+00
         21   -1    0    0  503  502  0.00000000000E+00  0.00000000000E+00  0.46876268002E+03  0.46876268002E+03  0.00000000000E+00 0.  1.
         21   -1    0    0  501  503 -0.00000000000E+00 -0.00000000000E+00 -0.35902552611E+03  0.35902552611E+03  0.00000000000E+00 0.  1.
    9000007    1    1    2  501    0  0.61147380946E+02  0.65013131397E+02  0.73253307669E+02  0.41633130622E+03  0.40000000000E+03 0.  1.
   -9000007    1    1    2    0  502 -0.61147380946E+02 -0.65013131397E+02  0.36483846244E+02  0.41145689991E+03  0.40000000000E+03 0.  1.
<mgrwt>
<rscale>  2 0.40983620E+03</rscale>
<asrwt>0</asrwt>
<pdfrwt beam="1">  1       21 0.72117336E-01 0.40983620E+03</pdfrwt>
<pdfrwt beam="2">  1       21 0.55234696E-01 0.40983620E+03</pdfrwt>
<totfact> 0.47793297E+03</totfact>
</mgrwt>
</event>
<event>
 4    1  0.4821294E-002  0.5551175E+03  0.7818608E-02  0.1000316E+00
         21   -1    0    0  501  502  0.00000000000E+00  0.00000000000E+00  0.28119146035E+03  0.28119146035E+03  0.00000000000E+00 0.  1.
         21   -1    0    0  502  503 -0.00000000000E+00 -0.00000000000E+00 -0.12128604099E+04  0.12128604099E+04  0.00000000000E+00 0.  1.
    9000007    1    1    2  501    0  0.38248216344E+03  0.43160154573E+02 -0.23384674820E+03  0.60236177331E+03  0.40000000000E+03 0.  1.
   -9000007    1    1    2    0  503 -0.38248216344E+03 -0.43160154573E+02 -0.69782220138E+03  0.89169009697E+03  0.40000000000E+03 0.  1.
<mgrwt>
<rscale>  2 0.55511747E+03</rscale>
<asrwt>0</asrwt>
<pdfrwt beam="1">  1       21 0.43260224E-01 0.55511747E+03</pdfrwt>
<pdfrwt beam="2">  1       21 0.18659391E+00 0.55511747E+03</pdfrwt>
<totfact> 0.67192712E+02</totfact>
</mgrwt>
</event>
<event>
 4    1  0.4821294E-002  0.4387373E+03  0.7818608E-02  0.1031135E+00
         21   -1    0    0  503  502  0.00000000000E+00  0.00000000000E+00  0.10049875207E+04  0.10049875207E+04  0.00000000000E+00 0.  1.
         21   -1    0    0  501  503 -0.00000000000E+00 -0.00000000000E+00 -0.24507535715E+03  0.24507535715E+03  0.00000000000E+00 0.  1.
    9000007    1    1    2  501    0  0.53194866643E+02  0.17222293961E+03  0.87815380570E+02  0.44743935436E+03  0.40000000000E+03 0.  1.
   -9000007    1    1    2    0  502 -0.53194866643E+02 -0.17222293961E+03  0.67209678293E+03  0.80262352345E+03  0.40000000000E+03 0.  1.
<mgrwt>
<rscale>  2 0.43873732E+03</rscale>
<asrwt>0</asrwt>
<pdfrwt beam="1">  1       21 0.15461346E+00 0.43873732E+03</pdfrwt>
<pdfrwt beam="2">  1       21 0.37703902E-01 0.43873732E+03</pdfrwt>
<totfact> 0.16014511E+03</totfact>
</mgrwt>
</event>
<event>
 4    1  0.4821294E-002  0.5228530E+03  0.7818608E-02  0.1007980E+00
         21   -1    0    0  503  502  0.00000000000E+00  0.00000000000E+00  0.37255667063E+03  0.37255667063E+03  0.00000000000E+00 0.  1.
         21   -1    0    0  501  503 -0.00000000000E+00 -0.00000000000E+00 -0.11018205047E+04  0.11018205047E+04  0.00000000000E+00 0.  1.
    9000007    1    1    2  501    0  0.19003916071E+03  0.27795747497E+03 -0.79069119417E+03  0.94792816449E+03  0.40000000000E+03 0.  1.
   -9000007    1    1    2    0  502 -0.19003916071E+03 -0.27795747497E+03  0.61427360059E+02  0.52644901088E+03  0.40000000000E+03 0.  1.
<mgrwt>
<rscale>  2 0.52285298E+03</rscale>
<asrwt>0</asrwt>
<pdfrwt beam="1">  1       21 0.57316411E-01 0.52285298E+03</pdfrwt>
<pdfrwt beam="2">  1       21 0.16951085E+00 0.52285298E+03</pdfrwt>
<totfact> 0.49418690E+02</totfact>
</mgrwt>
</event>
<event>
 4    1  0.4821294E-002  0.4214790E+03  0.7818608E-02  0.1036586E+00
         21   -1    0    0  501  502  0.00000000000E+00  0.00000000000E+00  0.33148296613E+03  0.33148296613E+03  0.00000000000E+00 0.  1.
         21   -1    0    0  502  503 -0.00000000000E+00 -0.00000000000E+00 -0.59291770032E+03  0.59291770032E+03  0.00000000000E+00 0. -1.
    9000007    1    1    2  501    0  0.11555363328E+03  0.65512922250E+02  0.12602036622E+02  0.42166740030E+03  0.40000000000E+03 0.  1.
   -9000007    1    1    2    0  503 -0.11555363328E+03 -0.65512922250E+02 -0.27403677081E+03  0.50273326616E+03  0.40000000000E+03 0. -1.
<mgrwt>
<rscale>  2 0.42147904E+03</rscale>
<asrwt>0</asrwt>
<pdfrwt beam="1">  1       21 0.50997380E-01 0.42147904E+03</pdfrwt>
<pdfrwt beam="2">  1       21 0.91218106E-01 0.42147904E+03</pdfrwt>
<totfact> 0.32788794E+03</totfact>
</mgrwt>
</event>
<event>
 4    1  0.4821294E-002  0.4033982E+03  0.7818608E-02  0.1042609E+00
         21   -1    0    0  501  502  0.00000000000E+00  0.00000000000E+00  0.26325182611E+03  0.26325182611E+03  0.00000000000E+00 0. -1.
         21   -1    0    0  502  503 -0.00000000000E+00 -0.00000000000E+00 -0.12260053592E+04  0.12260053592E+04  0.00000000000E+00 0. -1.
    9000007    1    1    2  501    0 -0.47446401885E+02  0.21884130875E+02  0.42938310772E+02  0.40567693399E+03  0.40000000000E+03 0. -1.
   -9000007    1    1    2    0  503  0.47446401885E+02 -0.21884130875E+02 -0.10056918439E+04  0.10835802513E+04  0.40000000000E+03 0. -1.
<mgrwt>
<rscale>  2 0.40339816E+03</rscale>
<asrwt>0</asrwt>
<pdfrwt beam="1">  1       21 0.40500281E-01 0.40339816E+03</pdfrwt>
<pdfrwt beam="2">  1       21 0.18861621E+00 0.40339816E+03</pdfrwt>
<totfact> 0.79744487E+02</totfact>
</mgrwt>
</event>
<event>
 4    1  0.4821294E-002  0.4344071E+03  0.7818608E-02  0.1032477E+00
         21   -1    0    0  503  502  0.00000000000E+00  0.00000000000E+00  0.18258180423E+03  0.18258180423E+03  0.00000000000E+00 0. -1.
         21   -1    0    0  501  503 -0.00000000000E+00 -0.00000000000E+00 -0.15405783724E+04  0.15405783724E+04  0.00000000000E+00 0. -1.
    9000007    1    1    2  501    0  0.90437180626E+02  0.14328505408E+03 -0.11732691802E+04  0.12511075331E+04  0.40000000000E+03 0. -1.
   -9000007    1    1    2    0  502 -0.90437180626E+02 -0.14328505408E+03 -0.18472738804E+03  0.47205264352E+03  0.40000000000E+03 0. -1.
<mgrwt>
<rscale>  2 0.43440706E+03</rscale>
<asrwt>0</asrwt>
<pdfrwt beam="1">  1       21 0.28089507E-01 0.43440706E+03</pdfrwt>
<pdfrwt beam="2">  1       21 0.23701206E+00 0.43440706E+03</pdfrwt>
<totfact> 0.79559815E+02</totfact>
</mgrwt>
</event>
<event>
 4    1  0.4821294E-002  0.4067997E+03  0.7818608E-02  0.1041450E+00
         21   -1    0    0  503  502  0.00000000000E+00  0.00000000000E+00  0.88012795849E+03  0.88012795849E+03  0.00000000000E+00 0.  1.
         21   -1    0    0  501  503 -0.00000000000E+00 -0.00000000000E+00 -0.21900330504E+03  0.21900330504E+03  0.00000000000E+00 0.  1.
    9000007    1    1    2  501    0 -0.43501336779E+02 -0.59947020230E+02  0.53725421747E+03  0.67389027722E+03  0.40000000000E+03 0.  1.
   -9000007    1    1    2    0  502  0.43501336779E+02  0.59947020230E+02  0.12387043597E+03  0.42524098632E+03  0.40000000000E+03 0.  1.
<mgrwt>
<rscale>  2 0.40679972E+03</rscale>
<asrwt>0</asrwt>
<pdfrwt beam="1">  1       21 0.13540430E+00 0.40679972E+03</pdfrwt>
<pdfrwt beam="2">  1       21 0.33692817E-01 0.40679972E+03</pdfrwt>
<totfact> 0.29084860E+03</totfact>
</mgrwt>
</event>
<event>
 4    1  0.4821294E-002  0.6119363E+03  0.7818608E-02  0.9880947E-01
         21   -1    0    0  501  502  0.00000000000E+00  0.00000000000E+00  0.33625665437E+03  0.33625665437E+03  0.00000000000E+00 0.  1.
         21   -1    0    0  502  503 -0.00000000000E+00 -0.00000000000E+00 -0.16474839378E+04  0.16474839378E+04  0.00000000000E+00 0.  1.
    9000007    1    1    2  501    0  0.31932423800E+03 -0.33540724151E+03 -0.12202319079E+04  0.13650757839E+04  0.40000000000E+03 0.  1.
   -9000007    1    1    2    0  503 -0.31932423800E+03  0.33540724151E+03 -0.90995375495E+02  0.61866480827E+03  0.40000000000E+03 0.  1.
<mgrwt>
<rscale>  2 0.61193626E+03</rscale>
<asrwt>0</asrwt>
<pdfrwt beam="1">  1       21 0.51731792E-01 0.61193626E+03</pdfrwt>
<pdfrwt beam="2">  1       21 0.25345907E+00 0.61193626E+03</pdfrwt>
<totfact> 0.16505164E+02</totfact>
</mgrwt>
</event>
<event>
 4    1  0.4821294E-002  0.4657629E+03  0.7818608E-02  0.1023123E+00
         21   -1    0    0  501  502  0.00000000000E+00  0.00000000000E+00  0.53694724103E+03  0.53694724103E+03  0.00000000000E+00 0.  1.
         21   -1    0    0  502  503 -0.00000000000E+00 -0.00000000000E+00 -0.52209412722E+03  0.52209412722E+03  0.00000000000E+00 0.  1.
    9000007    1    1    2  501    0 -0.12838363898E+03  0.20112851687E+03  0.25924878760E+03  0.53305250485E+03  0.40000000000E+03 0.  1.
   -9000007    1    1    2    0  503  0.12838363898E+03 -0.20112851687E+03 -0.24439567379E+03  0.52598886340E+03  0.40000000000E+03 0.  1.
<mgrwt>
<rscale>  2 0.46576286E+03</rscale>
<asrwt>0</asrwt>
<pdfrwt beam="1">  1       21 0.82607268E-01 0.46576286E+03</pdfrwt>
<pdfrwt beam="2">  1       21 0.80322173E-01 0.46576286E+03</pdfrwt>
<totfact> 0.14866357E+03</totfact>
</mgrwt>
</event>
<event>
 4    1  0.4821294E-002  0.4254522E+03  0.7818608E-02  0.1035306E+00
         21   -1    0    0  503  502  0.00000000000E+00  0.00000000000E+00  0.13052757471E+03  0.13052757471E+03  0.00000000000E+00 0.  1.
         21   -1    0    0  501  503 -0.00000000000E+00 -0.00000000000E+00 -0.20110132518E+04  0.20110132518E+04  0.00000000000E+00 0. -1.
    9000007    1    1    2  501    0 -0.10069623104E+03  0.10425858413E+03 -0.15368267420E+04  0.15946303704E+04  0.40000000000E+03 0. -1.
   -9000007    1    1    2    0  502  0.10069623104E+03 -0.10425858413E+03 -0.34365893504E+03  0.54691045605E+03  0.40000000000E+03 0.  1.
<mgrwt>
<rscale>  2 0.42545221E+03</rscale>
<asrwt>0</asrwt>
<pdfrwt beam="1">  1       21 0.20081164E-01 0.42545221E+03</pdfrwt>
<pdfrwt beam="2">  1       21 0.30938667E+00 0.42545221E+03</pdfrwt>
<totfact> 0.55768024E+02</totfact>
</mgrwt>
</event>
<event>
 4    1  0.4821294E-002  0.5299919E+03  0.7818608E-02  0.1006234E+00
         21   -1    0    0  503  502  0.00000000000E+00  0.00000000000E+00  0.47574334348E+03  0.47574334348E+03  0.00000000000E+00 0.  1.
         21   -1    0    0  501  503 -0.00000000000E+00 -0.00000000000E+00 -0.84933343345E+03  0.84933343345E+03  0.00000000000E+00 0. -1.
    9000007    1    1    2  501    0  0.31758809937E+03  0.14152457497E+03  0.17900512467E+03  0.55940525636E+03  0.40000000000E+03 0.  1.
   -9000007    1    1    2    0  502 -0.31758809937E+03 -0.14152457497E+03 -0.55259521464E+03  0.76567152058E+03  0.40000000000E+03 0. -1.
<mgrwt>
<rscale>  2 0.52999189E+03</rscale>
<asrwt>0</asrwt>
<pdfrwt beam="1">  1       21 0.73191284E-01 0.52999189E+03</pdfrwt>
<pdfrwt beam="2">  1       21 0.13066668E+00 0.52999189E+03</pdfrwt>
<totfact> 0.58139251E+02</totfact>
</mgrwt>
</event>
<event>
 4    1  0.4821294E-002  0.7663169E+03  0.7818608E-02  0.9610094E-01
         21   -1    0    0  503  502  0.00000000000E+00  0.00000000000E+00  0.11634406371E+04  0.11634406371E+04  0.00000000000E+00 0. -1.
         21   -1    0    0  501  503 -0.00000000000E+00 -0.00000000000E+00 -0.50915924000E+03  0.50915924000E+03  0.00000000000E+00 0.  1.
    9000007    1    1    2  501    0  0.27091489028E+03  0.59485017884E+03  0.40500362401E+03  0.86675806804E+03  0.40000000000E+03 0. -1.
   -9000007    1    1    2    0  502 -0.27091489028E+03 -0.59485017884E+03  0.24927777305E+03  0.80584180903E+03  0.40000000000E+03 0. -1.
<mgrwt>
<rscale>  2 0.76631691E+03</rscale>
<asrwt>0</asrwt>
<pdfrwt beam="1">  1       21 0.17899087E+00 0.76631691E+03</pdfrwt>
<pdfrwt beam="2">  1       21 0.78332191E-01 0.76631691E+03</pdfrwt>
<totfact> 0.19198107E+02</totfact>
</mgrwt>
</event>
<event>
 4    1  0.4821294E-002  0.4038788E+03  0.7818608E-02  0.1042445E+00
         21   -1    0    0  501  502  0.00000000000E+00  0.00000000000E+00  0.59032696532E+03  0.59032696532E+03  0.00000000000E+00 0. -1.
         21   -1    0    0  502  503 -0.00000000000E+00 -0.00000000000E+00 -0.27636238048E+03  0.27636238048E+03  0.00000000000E+00 0. -1.
    9000007    1    1    2  501    0 -0.48199121941E+02 -0.28194019211E+02  0.16246416391E+03  0.43533052113E+03  0.40000000000E+03 0. -1.
   -9000007    1    1    2    0  503  0.48199121941E+02  0.28194019211E+02  0.15150042094E+03  0.43135882467E+03  0.40000000000E+03 0. -1.
<mgrwt>
<rscale>  2 0.40387877E+03</rscale>
<asrwt>0</asrwt>
<pdfrwt beam="1">  1       21 0.90819533E-01 0.40387877E+03</pdfrwt>
<pdfrwt beam="2">  1       21 0.42517289E-01 0.40387877E+03</pdfrwt>
<totfact> 0.48872170E+03</totfact>
</mgrwt>
</event>
<event>
 4    1  0.4821294E-002  0.5384458E+03  0.7818608E-02  0.1004204E+00
         21   -1    0    0  501  502  0.00000000000E+00  0.00000000000E+00  0.19001490291E+03  0.19001490291E+03  0.00000000000E+00 0. -1.
         21   -1    0    0  502  503 -0.00000000000E+00 -0.00000000000E+00 -0.15890082311E+04  0.15890082311E+04  0.00000000000E+00 0.  1.
    9000007    1    1    2  501    0  0.41151846878E+02 -0.35809276929E+03 -0.52208163632E+03  0.74999542725E+03  0.40000000000E+03 0. -1.
   -9000007    1    1    2    0  503 -0.41151846878E+02  0.35809276929E+03 -0.87691169188E+03  0.10290277068E+04  0.40000000000E+03 0.  1.
<mgrwt>
<rscale>  2 0.53844582E+03</rscale>
<asrwt>0</asrwt>
<pdfrwt beam="1">  1       21 0.29233062E-01 0.53844582E+03</pdfrwt>
<pdfrwt beam="2">  1       21 0.24446280E+00 0.53844582E+03</pdfrwt>
<totfact> 0.62942081E+02</totfact>
</mgrwt>
</event>
<event>
 4    1  0.4821294E-002  0.4458708E+03  0.7818608E-02  0.1028961E+00
         21   -1    0    0  503  502  0.00000000000E+00  0.00000000000E+00  0.30316979762E+03  0.30316979762E+03  0.00000000000E+00 0.  1.
         21   -1    0    0  501  503 -0.00000000000E+00 -0.00000000000E+00 -0.66642895685E+03  0.66642895685E+03  0.00000000000E+00 0.  1.
    9000007    1    1    2  501    0 -0.52938048861E+02  0.18973220950E+03 -0.24302562127E+03  0.50780134003E+03  0.40000000000E+03 0.  1.
   -9000007    1    1    2    0  502  0.52938048861E+02 -0.18973220950E+03 -0.12023353795E+03  0.46179741445E+03  0.40000000000E+03 0.  1.
<mgrwt>
<rscale>  2 0.44587078E+03</rscale>
<asrwt>0</asrwt>
<pdfrwt beam="1">  1       21 0.46641508E-01 0.44587078E+03</pdfrwt>
<pdfrwt beam="2">  1       21 0.10252753E+00 0.44587078E+03</pdfrwt>
<totfact> 0.29632615E+03</totfact>
</mgrwt>
</event>
<event>
 4    1  0.4821294E-002  0.4588213E+03  0.7818608E-02  0.1025124E+00
         21   -1    0    0  501  502  0.00000000000E+00  0.00000000000E+00  0.57899803477E+03  0.57899803477E+03  0.00000000000E+00 0. -1.
         21   -1    0    0  502  503 -0.00000000000E+00 -0.00000000000E+00 -0.97772046437E+03  0.97772046437E+03  0.00000000000E+00 0.  1.
    9000007    1    1    2  501    0 -0.17517001974E+02 -0.22407615898E+03  0.41752295204E+03  0.62035666020E+03  0.40000000000E+03 0. -1.
   -9000007    1    1    2    0  503  0.17517001974E+02  0.22407615898E+03 -0.81624538164E+03  0.93636183894E+03  0.40000000000E+03 0.  1.
<mgrwt>
<rscale>  2 0.45882128E+03</rscale>
<asrwt>0</asrwt>
<pdfrwt beam="1">  1       21 0.89076620E-01 0.45882128E+03</pdfrwt>
<pdfrwt beam="2">  1       21 0.15041853E+00 0.45882128E+03</pdfrwt>
<totfact> 0.26107132E+02</totfact>
</mgrwt>
</event>
<event>
 4    1  0.4821294E-002  0.4140110E+03  0.7818608E-02  0.1039033E+00
         21   -1    0    0  501  502  0.00000000000E+00  0.00000000000E+00  0.39354808984E+03  0.39354808984E+03  0.00000000000E+00 0. -1.
         21   -1    0    0  502  503 -0.00000000000E+00 -0.00000000000E+00 -0.12276256125E+04  0.12276256125E+04  0.00000000000E+00 0.  1.
    9000007    1    1    2  501    0 -0.52745409978E+02 -0.92860294582E+02  0.23406952073E+03  0.47559820554E+03  0.40000000000E+03 0. -1.
   -9000007    1    1    2    0  503  0.52745409978E+02  0.92860294582E+02 -0.10681470434E+04  0.11455754968E+04  0.40000000000E+03 0.  1.
<mgrwt>
<rscale>  2 0.41401101E+03</rscale>
<asrwt>0</asrwt>
<pdfrwt beam="1">  1       21 0.60545861E-01 0.41401101E+03</pdfrwt>
<pdfrwt beam="2">  1       21 0.18886548E+00 0.41401101E+03</pdfrwt>
<totfact> 0.33654747E+02</totfact>
</mgrwt>
</event>
<event>
 4    1  0.4821294E-002  0.5451156E+03  0.7818608E-02  0.1002631E+00
         21   -1    0    0  503  502  0.00000000000E+00  0.00000000000E+00  0.36290257541E+03  0.36290257541E+03  0.00000000000E+00 0. -1.
         21   -1    0    0  501  503 -0.00000000000E+00 -0.00000000000E+00 -0.84084971760E+03  0.84084971760E+03  0.00000000000E+00 0.  1.
    9000007    1    1    2  501    0  0.23077011176E+01  0.37033182141E+03 -0.33640003519E+03  0.64055910508E+03  0.40000000000E+03 0.  1.
   -9000007    1    1    2    0  502 -0.23077011176E+01 -0.37033182141E+03 -0.14154710700E+03  0.56319318793E+03  0.40000000000E+03 0.  1.
<mgrwt>
<rscale>  2 0.54511557E+03</rscale>
<asrwt>0</asrwt>
<pdfrwt beam="1">  1       21 0.55831166E-01 0.54511557E+03</pdfrwt>
<pdfrwt beam="2">  1       21 0.12936149E+00 0.54511557E+03</pdfrwt>
<totfact> 0.10843218E+03</totfact>
</mgrwt>
</event>
<event>
 4    1  0.4821294E-002  0.4774003E+03  0.7818608E-02  0.1019852E+00
         21   -1    0    0  501  502  0.00000000000E+00  0.00000000000E+00  0.58332184574E+03  0.58332184574E+03  0.00000000000E+00 0.  1.
         21   -1    0    0  502  503 -0.00000000000E+00 -0.00000000000E+00 -0.42413084267E+03  0.42413084267E+03  0.00000000000E+00 0.  1.
    9000007    1    1    2  501    0  0.13781552934E+03  0.22117394425E+03  0.22099189656E+03  0.52606886630E+03  0.40000000000E+03 0. -1.
   -9000007    1    1    2    0  503 -0.13781552934E+03 -0.22117394425E+03 -0.61800893494E+02  0.48138382210E+03  0.40000000000E+03 0. -1.
<mgrwt>
<rscale>  2 0.47740029E+03</rscale>
<asrwt>0</asrwt>
<pdfrwt beam="1">  1       21 0.89741822E-01 0.47740029E+03</pdfrwt>
<pdfrwt beam="2">  1       21 0.65250899E-01 0.47740029E+03</pdfrwt>
<totfact> 0.19526295E+03</totfact>
</mgrwt>
</event>
<event>
 4    1  0.4821294E-002  0.5087906E+03  0.7818608E-02  0.1011510E+00
         21   -1    0    0  503  502  0.00000000000E+00  0.00000000000E+00  0.88840724095E+03  0.88840724095E+03  0.00000000000E+00 0.  1.
         21   -1    0    0  501  503 -0.00000000000E+00 -0.00000000000E+00 -0.34048542670E+03  0.34048542670E+03  0.00000000000E+00 0.  1.
    9000007    1    1    2  501    0  0.69203496719E+02 -0.30672258421E+03  0.40625474370E+02  0.51040993015E+03  0.40000000000E+03 0.  1.
   -9000007    1    1    2    0  502 -0.69203496719E+02  0.30672258421E+03  0.50729633989E+03  0.71848273750E+03  0.40000000000E+03 0.  1.
<mgrwt>
<rscale>  2 0.50879059E+03</rscale>
<asrwt>0</asrwt>
<pdfrwt beam="1">  1       21 0.13667804E+00 0.50879059E+03</pdfrwt>
<pdfrwt beam="2">  1       21 0.52382374E-01 0.50879059E+03</pdfrwt>
<totfact> 0.10911526E+03</totfact>
</mgrwt>
</event>
<event>
 4    1  0.4821294E-002  0.5094191E+03  0.7818608E-02  0.1011349E+00
         21   -1    0    0  503  502  0.00000000000E+00  0.00000000000E+00  0.30350291070E+03  0.30350291070E+03  0.00000000000E+00 0. -1.
         21   -1    0    0  501  503 -0.00000000000E+00 -0.00000000000E+00 -0.12024844829E+04  0.12024844829E+04  0.00000000000E+00 0.  1.
    9000007    1    1    2  501    0  0.22386419335E+03  0.22224457394E+03 -0.85424639065E+03  0.99460782405E+03  0.40000000000E+03 0.  1.
   -9000007    1    1    2    0  502 -0.22386419335E+03 -0.22224457394E+03 -0.44735181581E+02  0.51137956958E+03  0.40000000000E+03 0. -1.
<mgrwt>
<rscale>  2 0.50941911E+03</rscale>
<asrwt>0</asrwt>
<pdfrwt beam="1">  1       21 0.46692756E-01 0.50941911E+03</pdfrwt>
<pdfrwt beam="2">  1       21 0.18499761E+00 0.50941911E+03</pdfrwt>
<totfact> 0.59772669E+02</totfact>
</mgrwt>
</event>
<event>
 4    1  0.4821294E-002  0.4261104E+03  0.7818608E-02  0.1035096E+00
         21   -1    0    0  501  502  0.00000000000E+00  0.00000000000E+00  0.17386172666E+03  0.17386172666E+03  0.00000000000E+00 0. -1.
         21   -1    0    0  502  503 -0.00000000000E+00 -0.00000000000E+00 -0.15067581649E+04  0.15067581649E+04  0.00000000000E+00 0. -1.
    9000007    1    1    2  501    0  0.37987022414E+02  0.14186976868E+03 -0.20092956459E+03  0.47110798663E+03  0.40000000000E+03 0. -1.
   -9000007    1    1    2    0  503 -0.37987022414E+02 -0.14186976868E+03 -0.11319668736E+04  0.12095119049E+04  0.40000000000E+03 0. -1.
<mgrwt>
<rscale>  2 0.42611037E+03</rscale>
<asrwt>0</asrwt>
<pdfrwt beam="1">  1       21 0.26747958E-01 0.42611037E+03</pdfrwt>
<pdfrwt beam="2">  1       21 0.23180895E+00 0.42611037E+03</pdfrwt>
<totfact> 0.94791764E+02</totfact>
</mgrwt>
</event>
<event>
 4    1  0.4821294E-002  0.4167919E+03  0.7818608E-02  0.1038116E+00
         21   -1    0    0  503  502  0.00000000000E+00  0.00000000000E+00  0.11788498808E+04  0.11788498808E+04  0.00000000000E+00 0. -1.
         21   -1    0    0  501  503 -0.00000000000E+00 -0.00000000000E+00 -0.14812564578E+03  0.14812564578E+03  0.00000000000E+00 0. -1.
    9000007    1    1    2  501    0 -0.32169060868E+02  0.11260841920E+03  0.46766556914E+03  0.62643961330E+03  0.40000000000E+03 0.  1.
   -9000007    1    1    2    0  502  0.32169060868E+02 -0.11260841920E+03  0.56305866585E+03  0.70053591324E+03  0.40000000000E+03 0.  1.
<mgrwt>
<rscale>  2 0.41679192E+03</rscale>
<asrwt>0</asrwt>
<pdfrwt beam="1">  1       21 0.18136151E+00 0.41679192E+03</pdfrwt>
<pdfrwt beam="2">  1       21 0.22788562E-01 0.41679192E+03</pdfrwt>
<totfact> 0.27888727E+03</totfact>
</mgrwt>
</event>
<event>
 4    1  0.4821294E-002  0.4332733E+03  0.7818608E-02  0.1032831E+00
         21   -1    0    0  501  502  0.00000000000E+00  0.00000000000E+00  0.12170821086E+04  0.12170821086E+04  0.00000000000E+00 0.  1.
         21   -1    0    0  502  503 -0.00000000000E+00 -0.00000000000E+00 -0.41236250897E+03  0.41236250897E+03  0.00000000000E+00 0.  1.
    9000007    1    1    2  501    0  0.16418414740E+03  0.27736867210E+02  0.10469458027E+04  0.11330583753E+04  0.40000000000E+03 0.  1.
   -9000007    1    1    2    0  503 -0.16418414740E+03 -0.27736867210E+02 -0.24222620306E+03  0.49638624226E+03  0.40000000000E+03 0.  1.
<mgrwt>
<rscale>  2 0.43327332E+03</rscale>
<asrwt>0</asrwt>
<pdfrwt beam="1">  1       21 0.18724340E+00 0.43327332E+03</pdfrwt>
<pdfrwt beam="2">  1       21 0.63440387E-01 0.43327332E+03</pdfrwt>
<totfact> 0.30836013E+02</totfact>
</mgrwt>
</event>
<event>
 4    1  0.4821294E-002  0.4352929E+03  0.7818608E-02  0.1032201E+00
         21   -1    0    0  503  502  0.00000000000E+00  0.00000000000E+00  0.15791893203E+04  0.15791893203E+04  0.00000000000E+00 0.  1.
         21   -1    0    0  501  503 -0.00000000000E+00 -0.00000000000E+00 -0.12766836499E+03  0.12766836499E+03  0.00000000000E+00 0.  1.
    9000007    1    1    2  501    0  0.12584959652E+03  0.11679823248E+03  0.51640468581E+03  0.67539155131E+03  0.40000000000E+03 0.  1.
   -9000007    1    1    2    0  502 -0.12584959652E+03 -0.11679823248E+03  0.93511626955E+03  0.10314661340E+04  0.40000000000E+03 0.  1.
<mgrwt>
<rscale>  2 0.43529295E+03</rscale>
<asrwt>0</asrwt>
<pdfrwt beam="1">  1       21 0.24295219E+00 0.43529295E+03</pdfrwt>
<pdfrwt beam="2">  1       21 0.19641288E-01 0.43529295E+03</pdfrwt>
<totfact> 0.14588339E+03</totfact>
</mgrwt>
</event>
<event>
 4    1  0.4821294E-002  0.5702093E+03  0.7818608E-02  0.9969216E-01
         21   -1    0    0  501  502  0.00000000000E+00  0.00000000000E+00  0.16565562527E+04  0.16565562527E+04  0.00000000000E+00 0. -1.
         21   -1    0    0  502  503 -0.00000000000E+00 -0.00000000000E+00 -0.22800959809E+03  0.22800959809E+03  0.00000000000E+00 0.  1.
    9000007    1    1    2  501    0 -0.36182089745E+03  0.18499812972E+03  0.10658168838E+04  0.12087614735E+04  0.40000000000E+03 0. -1.
   -9000007    1    1    2    0  503  0.36182089745E+03 -0.18499812972E+03  0.36272977079E+03  0.67580437735E+03  0.40000000000E+03 0.  1.
<mgrwt>
<rscale>  2 0.57020932E+03</rscale>
<asrwt>0</asrwt>
<pdfrwt beam="1">  1       21 0.25485480E+00 0.57020932E+03</pdfrwt>
<pdfrwt beam="2">  1       21 0.35078401E-01 0.57020932E+03</pdfrwt>
<totfact> 0.37103813E+02</totfact>
</mgrwt>
</event>
<event>
 4    1  0.4821294E-002  0.4219922E+03  0.7818608E-02  0.1036420E+00
         21   -1    0    0  503  502  0.00000000000E+00  0.00000000000E+00  0.13213787222E+04  0.13213787222E+04  0.00000000000E+00 0. -1.
         21   -1    0    0  501  503 -0.00000000000E+00 -0.00000000000E+00 -0.37206341350E+03  0.37206341350E+03  0.00000000000E+00 0. -1.
    9000007    1    1    2  501    0 -0.38095237421E+02 -0.12894239251E+03 -0.20154685803E+03  0.46765213961E+03  0.40000000000E+03 0. -1.
   -9000007    1    1    2    0  502  0.38095237421E+02  0.12894239251E+03  0.11508621667E+04  0.12257899961E+04  0.40000000000E+03 0. -1.
<mgrwt>
<rscale>  2 0.42199217E+03</rscale>
<asrwt>0</asrwt>
<pdfrwt beam="1">  1       21 0.20328903E+00 0.42199217E+03</pdfrwt>
<pdfrwt beam="2">  1       21 0.57240526E-01 0.42199217E+03</pdfrwt>
<totfact> 0.30299783E+02</totfact>
</mgrwt>
</event>
<event>
 4    1  0.4821294E-002  0.4517998E+03  0.7818608E-02  0.1027187E+00
         21   -1    0    0  503  502  0.00000000000E+00  0.00000000000E+00  0.43902063989E+03  0.43902063989E+03  0.00000000000E+00 0.  1.
         21   -1    0    0  501  503 -0.00000000000E+00 -0.00000000000E+00 -0.54697970562E+03  0.54697970562E+03  0.00000000000E+00 0.  1.
    9000007    1    1    2  501    0  0.20211320029E+03 -0.57212884354E+02  0.13693744408E+03  0.47209630740E+03  0.40000000000E+03 0.  1.
   -9000007    1    1    2    0  502 -0.20211320029E+03  0.57212884354E+02 -0.24489650981E+03  0.51390403811E+03  0.40000000000E+03 0.  1.
<mgrwt>
<rscale>  2 0.45179980E+03</rscale>
<asrwt>0</asrwt>
<pdfrwt beam="1">  1       21 0.67541637E-01 0.45179980E+03</pdfrwt>
<pdfrwt beam="2">  1       21 0.84150724E-01 0.45179980E+03</pdfrwt>
<totfact> 0.21229701E+03</totfact>
</mgrwt>
</event>
<event>
 4    1  0.4821294E-002  0.5113492E+03  0.7818608E-02  0.1010858E+00
         21   -1    0    0  501  502  0.00000000000E+00  0.00000000000E+00  0.30200780704E+03  0.30200780704E+03  0.00000000000E+00 0.  1.
         21   -1    0    0  502  503 -0.00000000000E+00 -0.00000000000E+00 -0.87164325061E+03  0.87164325061E+03  0.00000000000E+00 0. -1.
    9000007    1    1    2  501    0  0.27042915566E+03  0.16836307425E+03 -0.23676648604E+03  0.56350370177E+03  0.40000000000E+03 0. -1.
   -9000007    1    1    2    0  503 -0.27042915566E+03 -0.16836307425E+03 -0.33286895753E+03  0.61014735588E+03  0.40000000000E+03 0. -1.
<mgrwt>
<rscale>  2 0.51134925E+03</rscale>
<asrwt>0</asrwt>
<pdfrwt beam="1">  1       21 0.46462740E-01 0.51134925E+03</pdfrwt>
<pdfrwt beam="2">  1       21 0.13409896E+00 0.51134925E+03</pdfrwt>
<totfact> 0.14795233E+03</totfact>
</mgrwt>
</event>
<event>
 4    1  0.4821294E-002  0.4138202E+03  0.7818608E-02  0.1039097E+00
         21   -1    0    0  503  502  0.00000000000E+00  0.00000000000E+00  0.19785309215E+03  0.19785309215E+03  0.00000000000E+00 0. -1.
         21   -1    0    0  501  503 -0.00000000000E+00 -0.00000000000E+00 -0.12896668540E+04  0.12896668540E+04  0.00000000000E+00 0. -1.
    9000007    1    1    2  501    0  0.63279022265E+02 -0.85105433807E+02 -0.97243595107E+03  0.10568248902E+04  0.40000000000E+03 0. -1.
   -9000007    1    1    2    0  502 -0.63279022265E+02  0.85105433807E+02 -0.11937781073E+03  0.43069505595E+03  0.40000000000E+03 0. -1.
<mgrwt>
<rscale>  2 0.41382021E+03</rscale>
<asrwt>0</asrwt>
<pdfrwt beam="1">  1       21 0.30438938E-01 0.41382021E+03</pdfrwt>
<pdfrwt beam="2">  1       21 0.19841028E+00 0.41382021E+03</pdfrwt>
<totfact> 0.12131611E+03</totfact>
</mgrwt>
</event>
<event>
 4    1  0.4821294E-002  0.5302255E+03  0.7818608E-02  0.1006177E+00
         21   -1    0    0  503  502  0.00000000000E+00  0.00000000000E+00  0.68437385528E+03  0.68437385528E+03  0.00000000000E+00 0. -1.
         21   -1    0    0  501  503 -0.00000000000E+00 -0.00000000000E+00 -0.49012623512E+03  0.49012623512E+03  0.00000000000E+00 0. -1.
    9000007    1    1    2  501    0  0.13607624770E+03 -0.32034729116E+03 -0.13913286925E+03  0.54817614637E+03  0.40000000000E+03 0. -1.
   -9000007    1    1    2    0  502 -0.13607624770E+03  0.32034729116E+03  0.33338048942E+03  0.62632394403E+03  0.40000000000E+03 0. -1.
<mgrwt>
<rscale>  2 0.53022555E+03</rscale>
<asrwt>0</asrwt>
<pdfrwt beam="1">  1       21 0.10528829E+00 0.53022555E+03</pdfrwt>
<pdfrwt beam="2">  1       21 0.75404036E-01 0.53022555E+03</pdfrwt>
<totfact> 0.93922974E+02</totfact>
</mgrwt>
</event>
<event>
 4    1  0.4821294E-002  0.4007083E+03  0.7818608E-02  0.1043535E+00
         21   -1    0    0  503  502  0.00000000000E+00  0.00000000000E+00  0.83063548945E+02  0.83063548945E+02  0.00000000000E+00 0.  1.
         21   -1    0    0  501  503 -0.00000000000E+00 -0.00000000000E+00 -0.21602222712E+04  0.21602222712E+04  0.00000000000E+00 0.  1.
    9000007    1    1    2  501    0 -0.18302197689E+02 -0.15237750677E+02 -0.67485730688E+03  0.78485638440E+03  0.40000000000E+03 0. -1.
   -9000007    1    1    2    0  502  0.18302197689E+02  0.15237750677E+02 -0.14023014154E+04  0.14584294358E+04  0.40000000000E+03 0. -1.
<mgrwt>
<rscale>  2 0.40070832E+03</rscale>
<asrwt>0</asrwt>
<pdfrwt beam="1">  1       21 0.12779010E-01 0.40070832E+03</pdfrwt>
<pdfrwt beam="2">  1       21 0.33234182E+00 0.40070832E+03</pdfrwt>
<totfact> 0.95631160E+02</totfact>
</mgrwt>
</event>
<event>
 4    1  0.4821294E-002  0.4291228E+03  0.7818608E-02  0.1034137E+00
         21   -1    0    0  503  502  0.00000000000E+00  0.00000000000E+00  0.22622893555E+03  0.22622893555E+03  0.00000000000E+00 0.  1.
         21   -1    0    0  501  503 -0.00000000000E+00 -0.00000000000E+00 -0.10910019673E+04  0.10910019673E+04  0.00000000000E+00 0.  1.
    9000007    1    1    2  501    0  0.96001521136E+02  0.12218884322E+03 -0.76426129956E+03  0.87649400424E+03  0.40000000000E+03 0.  1.
   -9000007    1    1    2    0  502 -0.96001521136E+02 -0.12218884322E+03 -0.10051173215E+03  0.44073689858E+03  0.40000000000E+03 0.  1.
<mgrwt>
<rscale>  2 0.42912283E+03</rscale>
<asrwt>0</asrwt>
<pdfrwt beam="1">  1       21 0.34804452E-01 0.42912283E+03</pdfrwt>
<pdfrwt beam="2">  1       21 0.16784645E+00 0.42912283E+03</pdfrwt>
<totfact> 0.15045370E+03</totfact>
</mgrwt>
</event>
<event>
 4    1  0.4821294E-002  0.4140187E+03  0.7818608E-02  0.1039031E+00
         21   -1    0    0  503  502  0.00000000000E+00  0.00000000000E+00  0.29212714193E+03  0.29212714193E+03  0.00000000000E+00 0.  1.
         21   -1    0    0  501  503 -0.00000000000E+00 -0.00000000000E+00 -0.68728450164E+03  0.68728450164E+03  0.00000000000E+00 0.  1.
    9000007    1    1    2  501    0 -0.83610670778E+02 -0.66488702852E+02 -0.38485419169E+03  0.56526475278E+03  0.40000000000E+03 0.  1.
   -9000007    1    1    2    0  502  0.83610670778E+02  0.66488702852E+02 -0.10303168024E+02  0.41414689078E+03  0.40000000000E+03 0.  1.
<mgrwt>
<rscale>  2 0.41401871E+03</rscale>
<asrwt>0</asrwt>
<pdfrwt beam="1">  1       21 0.44942638E-01 0.41401871E+03</pdfrwt>
<pdfrwt beam="2">  1       21 0.10573608E+00 0.41401871E+03</pdfrwt>
<totfact> 0.30055520E+03</totfact>
</mgrwt>
</event>
<event>
 4    1  0.4821294E-002  0.4375229E+03  0.7818608E-02  0.1031510E+00
         21   -1    0    0  503  502  0.00000000000E+00  0.00000000000E+00  0.43521570649E+03  0.43521570649E+03  0.00000000000E+00 0. -1.
         21   -1    0    0  501  503 -0.00000000000E+00 -0.00000000000E+00 -0.74307851617E+03  0.74307851617E+03  0.00000000000E+00 0. -1.
    9000007    1    1    2  501    0 -0.60494192646E+02  0.16663356381E+03  0.22242291944E+03  0.49081386189E+03  0.40000000000E+03 0. -1.
   -9000007    1    1    2    0  502  0.60494192646E+02 -0.16663356381E+03 -0.53028572912E+03  0.68748036076E+03  0.40000000000E+03 0. -1.
<mgrwt>
<rscale>  2 0.43752290E+03</rscale>
<asrwt>0</asrwt>
<pdfrwt beam="1">  1       21 0.66956263E-01 0.43752290E+03</pdfrwt>
<pdfrwt beam="2">  1       21 0.11431977E+00 0.43752290E+03</pdfrwt>
<totfact> 0.10380039E+03</totfact>
</mgrwt>
</event>
<event>
 4    1  0.4821294E-002  0.4063171E+03  0.7818608E-02  0.1041614E+00
         21   -1    0    0  503  502  0.00000000000E+00  0.00000000000E+00  0.53686302085E+03  0.53686302085E+03  0.00000000000E+00 0. -1.
         21   -1    0    0  501  503 -0.00000000000E+00 -0.00000000000E+00 -0.58630128157E+03  0.58630128157E+03  0.00000000000E+00 0. -1.
    9000007    1    1    2  501    0  0.48803047993E+02 -0.52075477679E+02 -0.41196637868E+03  0.57862759183E+03  0.40000000000E+03 0. -1.
   -9000007    1    1    2    0  502 -0.48803047993E+02  0.52075477679E+02  0.36252811796E+03  0.54453671059E+03  0.40000000000E+03 0. -1.
<mgrwt>
<rscale>  2 0.40631711E+03</rscale>
<asrwt>0</asrwt>
<pdfrwt beam="1">  1       21 0.82594311E-01 0.40631711E+03</pdfrwt>
<pdfrwt beam="2">  1       21 0.90200197E-01 0.40631711E+03</pdfrwt>
<totfact> 0.11618840E+03</totfact>
</mgrwt>
</event>
<event>
 4    1  0.4821294E-002  0.4462475E+03  0.7818608E-02  0.1028847E+00
         21   -1    0    0  501  502  0.00000000000E+00  0.00000000000E+00  0.66672830427E+03  0.66672830427E+03  0.00000000000E+00 0.  1.
         21   -1    0    0  502  503 -0.00000000000E+00 -0.00000000000E+00 -0.32762641615E+03  0.32762641615E+03  0.00000000000E+00 0.  1.
    9000007    1    1    2  501    0 -0.10664876336E+03  0.16662200046E+03  0.21763736706E+02  0.44677792022E+03  0.40000000000E+03 0.  1.
   -9000007    1    1    2    0  503  0.10664876336E+03 -0.16662200046E+03  0.31733815142E+03  0.54757680019E+03  0.40000000000E+03 0.  1.
<mgrwt>
<rscale>  2 0.44624752E+03</rscale>
<asrwt>0</asrwt>
<pdfrwt beam="1">  1       21 0.10257359E+00 0.44624752E+03</pdfrwt>
<pdfrwt beam="2">  1       21 0.50404064E-01 0.44624752E+03</pdfrwt>
<totfact> 0.25112978E+03</totfact>
</mgrwt>
</event>
<event>
 4    1  0.4821294E-002  0.5754620E+03  0.7818608E-02  0.9957664E-01
         21   -1    0    0  501  502  0.00000000000E+00  0.00000000000E+00  0.12264938034E+04  0.12264938034E+04  0.00000000000E+00 0. -1.
         21   -1    0    0  502  503 -0.00000000000E+00 -0.00000000000E+00 -0.32810738030E+03  0.32810738030E+03  0.00000000000E+00 0.  1.
    9000007    1    1    2  501    0  0.32462031374E+03  0.25647248904E+03  0.12208833250E+03  0.58827038567E+03  0.40000000000E+03 0. -1.
   -9000007    1    1    2    0  503 -0.32462031374E+03 -0.25647248904E+03  0.77629809056E+03  0.96633079799E+03  0.40000000000E+03 0.  1.
<mgrwt>
<rscale>  2 0.57546198E+03</rscale>
<asrwt>0</asrwt>
<pdfrwt beam="1">  1       21 0.18869135E+00 0.57546198E+03</pdfrwt>
<pdfrwt beam="2">  1       21 0.50478059E-01 0.57546198E+03</pdfrwt>
<totfact> 0.46514823E+02</totfact>
</mgrwt>
</event>
<event>
 4    1  0.4821294E-002  0.6662861E+03  0.7818608E-02  0.9776690E-01
         21   -1    0    0  503  502  0.00000000000E+00  0.00000000000E+00  0.17462010334E+04  0.17462010334E+04  0.00000000000E+00 0.  1.
         21   -1    0    0  501  503 -0.00000000000E+00 -0.00000000000E+00 -0.42707338610E+03  0.42707338610E+03  0.00000000000E+00 0.  1.
    9000007    1    1    2  501    0 -0.50454513794E+03 -0.17138082892E+03 -0.31724695711E+02  0.66704095906E+03  0.40000000000E+03 0.  1.
   -9000007    1    1    2    0  502  0.50454513794E+03  0.17138082892E+03  0.13508523430E+04  0.15062334604E+04  0.40000000000E+03 0.  1.
<mgrwt>
<rscale>  2 0.66628611E+03</rscale>
<asrwt>0</asrwt>
<pdfrwt beam="1">  1       21 0.26864631E+00 0.66628611E+03</pdfrwt>
<pdfrwt beam="2">  1       21 0.65703598E-01 0.66628611E+03</pdfrwt>
<totfact> 0.76882636E+01</totfact>
</mgrwt>
</event>
<event>
 4    1  0.4821294E-002  0.4049299E+03  0.7818608E-02  0.1042086E+00
         21   -1    0    0  503  502  0.00000000000E+00  0.00000000000E+00  0.83718290754E+03  0.83718290754E+03  0.00000000000E+00 0. -1.
         21   -1    0    0  501  503 -0.00000000000E+00 -0.00000000000E+00 -0.21134119050E+03  0.21134119050E+03  0.00000000000E+00 0. -1.
    9000007    1    1    2  501    0  0.39450743222E+02 -0.49110312825E+02  0.17101519124E+03  0.43956157657E+03  0.40000000000E+03 0. -1.
   -9000007    1    1    2    0  502 -0.39450743222E+02  0.49110312825E+02  0.45482652581E+03  0.60896252146E+03  0.40000000000E+03 0. -1.
<mgrwt>
<rscale>  2 0.40492985E+03</rscale>
<asrwt>0</asrwt>
<pdfrwt beam="1">  1       21 0.12879737E+00 0.40492985E+03</pdfrwt>
<pdfrwt beam="2">  1       21 0.32514030E-01 0.40492985E+03</pdfrwt>
<totfact> 0.35597277E+03</totfact>
</mgrwt>
</event>
<event>
 4    1  0.4821294E-002  0.5192659E+03  0.7818608E-02  0.1008869E+00
         21   -1    0    0  501  502  0.00000000000E+00  0.00000000000E+00  0.45976816786E+03  0.45976816786E+03  0.00000000000E+00 0. -1.
         21   -1    0    0  502  503 -0.00000000000E+00 -0.00000000000E+00 -0.58729097598E+03  0.58729097598E+03  0.00000000000E+00 0.  1.
    9000007    1    1    2  501    0 -0.28424572746E+03  0.16982773452E+03 -0.83416774228E+02  0.52592342714E+03  0.40000000000E+03 0. -1.
   -9000007    1    1    2    0  503  0.28424572746E+03 -0.16982773452E+03 -0.44106033899E+02  0.52113571670E+03  0.40000000000E+03 0. -1.
<mgrwt>
<rscale>  2 0.51926592E+03</rscale>
<asrwt>0</asrwt>
<pdfrwt beam="1">  1       21 0.70733565E-01 0.51926592E+03</pdfrwt>
<pdfrwt beam="2">  1       21 0.90352457E-01 0.51926592E+03</pdfrwt>
<totfact> 0.15803050E+03</totfact>
</mgrwt>
</event>
<event>
 4    1  0.4821294E-002  0.4254787E+03  0.7818608E-02  0.1035298E+00
         21   -1    0    0  503  502  0.00000000000E+00  0.00000000000E+00  0.13912784048E+04  0.13912784048E+04  0.00000000000E+00 0.  1.
         21   -1    0    0  501  503 -0.00000000000E+00 -0.00000000000E+00 -0.17448806073E+03  0.17448806073E+03  0.00000000000E+00 0.  1.
    9000007    1    1    2  501    0 -0.14175943005E+03 -0.30600023696E+02  0.21361707817E+03  0.47609279930E+03  0.40000000000E+03 0.  1.
   -9000007    1    1    2    0  502  0.14175943005E+03  0.30600023696E+02  0.10031732659E+04  0.10896736662E+04  0.40000000000E+03 0.  1.
<mgrwt>
<rscale>  2 0.42547867E+03</rscale>
<asrwt>0</asrwt>
<pdfrwt beam="1">  1       21 0.21404282E+00 0.42547867E+03</pdfrwt>
<pdfrwt beam="2">  1       21 0.26844318E-01 0.42547867E+03</pdfrwt>
<totfact> 0.12208549E+03</totfact>
</mgrwt>
</event>
<event>
 4    1  0.4821294E-002  0.4717193E+03  0.7818608E-02  0.1021436E+00
         21   -1    0    0  503  502  0.00000000000E+00  0.00000000000E+00  0.31339056605E+03  0.31339056605E+03  0.00000000000E+00 0. -1.
         21   -1    0    0  501  503 -0.00000000000E+00 -0.00000000000E+00 -0.76952228339E+03  0.76952228339E+03  0.00000000000E+00 0. -1.
    9000007    1    1    2  501    0  0.88259864435E+02  0.23394297678E+03 -0.77524758914E+02  0.47804728668E+03  0.40000000000E+03 0. -1.
   -9000007    1    1    2    0  502 -0.88259864435E+02 -0.23394297678E+03 -0.37860695843E+03  0.60486556277E+03  0.40000000000E+03 0. -1.
<mgrwt>
<rscale>  2 0.47171932E+03</rscale>
<asrwt>0</asrwt>
<pdfrwt beam="1">  1       21 0.48213934E-01 0.47171932E+03</pdfrwt>
<pdfrwt beam="2">  1       21 0.11838804E+00 0.47171932E+03</pdfrwt>
<totfact> 0.19147850E+03</totfact>
</mgrwt>
</event>
<event>
 4    1  0.4821294E-002  0.5096300E+03  0.7818608E-02  0.1011295E+00
         21   -1    0    0  501  502  0.00000000000E+00  0.00000000000E+00  0.11662146898E+04  0.11662146898E+04  0.00000000000E+00 0.  1.
         21   -1    0    0  502  503 -0.00000000000E+00 -0.00000000000E+00 -0.38698879931E+03  0.38698879931E+03  0.00000000000E+00 0.  1.
    9000007    1    1    2  501    0  0.54641559591E+02 -0.31102577520E+03  0.89560712813E+03  0.10304537160E+04  0.40000000000E+03 0.  1.
   -9000007    1    1    2    0  503 -0.54641559591E+02  0.31102577520E+03 -0.11638123758E+03  0.52274977316E+03  0.40000000000E+03 0.  1.
<mgrwt>
<rscale>  2 0.50963000E+03</rscale>
<asrwt>0</asrwt>
<pdfrwt beam="1">  1       21 0.17941764E+00 0.50963000E+03</pdfrwt>
<pdfrwt beam="2">  1       21 0.59536739E-01 0.50963000E+03</pdfrwt>
<totfact> 0.38786723E+02</totfact>
</mgrwt>
</event>
<event>
 4    1  0.4821294E-002  0.4175366E+03  0.7818608E-02  0.1037871E+00
         21   -1    0    0  501  502  0.00000000000E+00  0.00000000000E+00  0.15762781160E+03  0.15762781160E+03  0.00000000000E+00 0. -1.
         21   -1    0    0  502  503 -0.00000000000E+00 -0.00000000000E+00 -0.11970861253E+04  0.11970861253E+04  0.00000000000E+00 0.  1.
    9000007    1    1    2  501    0 -0.33786182016E+02 -0.11487064671E+03 -0.33288703604E+03  0.53399489729E+03  0.40000000000E+03 0.  1.
   -9000007    1    1    2    0  503  0.33786182016E+02  0.11487064671E+03 -0.70657127770E+03  0.82071903965E+03  0.40000000000E+03 0.  1.
<mgrwt>
<rscale>  2 0.41753655E+03</rscale>
<asrwt>0</asrwt>
<pdfrwt beam="1">  1       21 0.24250432E-01 0.41753655E+03</pdfrwt>
<pdfrwt beam="2">  1       21 0.18416710E+00 0.41753655E+03</pdfrwt>
<totfact> 0.23637833E+03</totfact>
</mgrwt>
</event>
<event>
 4    1  0.4821294E-002  0.4297844E+03  0.7818608E-02  0.1033928E+00
         21   -1    0    0  501  502  0.00000000000E+00  0.00000000000E+00  0.16885991346E+03  0.16885991346E+03  0.00000000000E+00 0. -1.
         21   -1    0    0  502  503 -0.00000000000E+00 -0.00000000000E+00 -0.22606038261E+04  0.22606038261E+04  0.00000000000E+00 0. -1.
    9000007    1    1    2  501    0  0.32050442058E+02 -0.15390704310E+03 -0.17320227833E+03  0.46337202977E+03  0.40000000000E+03 0. -1.
   -9000007    1    1    2    0  503 -0.32050442058E+02  0.15390704310E+03 -0.19185416343E+04  0.19660917098E+04  0.40000000000E+03 0. -1.
<mgrwt>
<rscale>  2 0.42978437E+03</rscale>
<asrwt>0</asrwt>
<pdfrwt beam="1">  1       21 0.25978451E-01 0.42978437E+03</pdfrwt>
<pdfrwt beam="2">  1       21 0.34778517E+00 0.42978437E+03</pdfrwt>
<totfact> 0.19837170E+02</totfact>
</mgrwt>
</event>
<event>
 4    1  0.4821294E-002  0.6569895E+03  0.7818608E-02  0.9793751E-01
         21   -1    0    0  503  502  0.00000000000E+00  0.00000000000E+00  0.46145472375E+03  0.46145472375E+03  0.00000000000E+00 0.  1.
         21   -1    0    0  501  503 -0.00000000000E+00 -0.00000000000E+00 -0.12587079173E+04  0.12587079173E+04  0.00000000000E+00 0.  1.
    9000007    1    1    2  501    0  0.22429386478E+03 -0.47045459859E+03 -0.83453877624E+03  0.10621159241E+04  0.40000000000E+03 0.  1.
   -9000007    1    1    2    0  502 -0.22429386478E+03  0.47045459859E+03  0.37285582660E+02  0.65804671702E+03  0.40000000000E+03 0.  1.
<mgrwt>
<rscale>  2 0.65698955E+03</rscale>
<asrwt>0</asrwt>
<pdfrwt beam="1">  1       21 0.70993034E-01 0.65698955E+03</pdfrwt>
<pdfrwt beam="2">  1       21 0.19364737E+00 0.65698955E+03</pdfrwt>
<totfact> 0.19667562E+02</totfact>
</mgrwt>
</event>
<event>
 4    1  0.4821294E-002  0.5440563E+03  0.7818608E-02  0.1002879E+00
         21   -1    0    0  503  502  0.00000000000E+00  0.00000000000E+00  0.23562267600E+03  0.23562267600E+03  0.00000000000E+00 0. -1.
         21   -1    0    0  501  503 -0.00000000000E+00 -0.00000000000E+00 -0.15025472748E+04  0.15025472748E+04  0.00000000000E+00 0.  1.
    9000007    1    1    2  501    0  0.34988450292E+03  0.11652501901E+03 -0.28158441572E+03  0.61260674875E+03  0.40000000000E+03 0. -1.
   -9000007    1    1    2    0  502 -0.34988450292E+03 -0.11652501901E+03 -0.98534018308E+03  0.11255632021E+04  0.40000000000E+03 0.  1.
<mgrwt>
<rscale>  2 0.54405629E+03</rscale>
<asrwt>0</asrwt>
<pdfrwt beam="1">  1       21 0.36249644E-01 0.54405629E+03</pdfrwt>
<pdfrwt beam="2">  1       21 0.23116111E+00 0.54405629E+03</pdfrwt>
<totfact> 0.49347476E+02</totfact>
</mgrwt>
</event>
<event>
 4    1  0.4821294E-002  0.4131260E+03  0.7818608E-02  0.1039327E+00
         21   -1    0    0  503  502  0.00000000000E+00  0.00000000000E+00  0.25087804251E+03  0.25087804251E+03  0.00000000000E+00 0. -1.
         21   -1    0    0  501  503 -0.00000000000E+00 -0.00000000000E+00 -0.10109644636E+04  0.10109644636E+04  0.00000000000E+00 0. -1.
    9000007    1    1    2  501    0 -0.10329006067E+03  0.20699726992E+01 -0.74087011177E+03  0.84826979430E+03  0.40000000000E+03 0.  1.
   -9000007    1    1    2    0  502  0.10329006067E+03 -0.20699726992E+01 -0.19216309348E+02  0.41357271182E+03  0.40000000000E+03 0.  1.
<mgrwt>
<rscale>  2 0.41312604E+03</rscale>
<asrwt>0</asrwt>
<pdfrwt beam="1">  1       21 0.38596622E-01 0.41312604E+03</pdfrwt>
<pdfrwt beam="2">  1       21 0.15553299E+00 0.41312604E+03</pdfrwt>
<totfact> 0.15187477E+03</totfact>
</mgrwt>
</event>
<event>
 4    1  0.4821294E-002  0.6174868E+03  0.7818608E-02  0.9869776E-01
         21   -1    0    0  503  502  0.00000000000E+00  0.00000000000E+00  0.10353133368E+04  0.10353133368E+04  0.00000000000E+00 0.  1.
         21   -1    0    0  501  503 -0.00000000000E+00 -0.00000000000E+00 -0.56947099417E+03  0.56947099417E+03  0.00000000000E+00 0.  1.
    9000007    1    1    2  501    0 -0.12052386931E+03  0.45471302396E+03 -0.24400395201E+03  0.66394869217E+03  0.40000000000E+03 0.  1.
   -9000007    1    1    2    0  502  0.12052386931E+03 -0.45471302396E+03  0.70984629467E+03  0.94083563883E+03  0.40000000000E+03 0.  1.
<mgrwt>
<rscale>  2 0.61748679E+03</rscale>
<asrwt>0</asrwt>
<pdfrwt beam="1">  1       21 0.15927897E+00 0.61748679E+03</pdfrwt>
<pdfrwt beam="2">  1       21 0.87610922E-01 0.61748679E+03</pdfrwt>
<totfact> 0.21689192E+02</totfact>
</mgrwt>
</event>
<event>
 4    1  0.4821294E-002  0.5305853E+03  0.7818608E-02  0.1006090E+00
         21   -1    0    0  503  502  0.00000000000E+00  0.00000000000E+00  0.22809509143E+03  0.22809509143E+03  0.00000000000E+00 0.  1.
         21   -1    0    0  501  503 -0.00000000000E+00 -0.00000000000E+00 -0.23323292287E+04  0.23323292287E+04  0.00000000000E+00 0.  1.
    9000007    1    1    2  501    0  0.64027232604E+02 -0.34266781613E+03 -0.19305502968E+04  0.20021351521E+04  0.40000000000E+03 0.  1.
   -9000007    1    1    2    0  502 -0.64027232604E+02  0.34266781613E+03 -0.17368384049E+03  0.55828916806E+03  0.40000000000E+03 0.  1.
<mgrwt>
<rscale>  2 0.53058526E+03</rscale>
<asrwt>0</asrwt>
<pdfrwt beam="1">  1       21 0.35091553E-01 0.53058526E+03</pdfrwt>
<pdfrwt beam="2">  1       21 0.35881988E+00 0.53058526E+03</pdfrwt>
<totfact> 0.87525049E+01</totfact>
</mgrwt>
</event>
<event>
 4    1  0.4821294E-002  0.4992980E+03  0.7818608E-02  0.1013962E+00
         21   -1    0    0  501  502  0.00000000000E+00  0.00000000000E+00  0.32962080027E+03  0.32962080027E+03  0.00000000000E+00 0.  1.
         21   -1    0    0  502  503 -0.00000000000E+00 -0.00000000000E+00 -0.14076940212E+04  0.14076940212E+04  0.00000000000E+00 0.  1.
    9000007    1    1    2  501    0 -0.24580577940E+03  0.16993529175E+03  0.51857873114E+02  0.50198378816E+03  0.40000000000E+03 0. -1.
   -9000007    1    1    2    0  503  0.24580577940E+03 -0.16993529175E+03 -0.11299310940E+04  0.12353310333E+04  0.40000000000E+03 0. -1.
<mgrwt>
<rscale>  2 0.49929799E+03</rscale>
<asrwt>0</asrwt>
<pdfrwt beam="1">  1       21 0.50710892E-01 0.49929799E+03</pdfrwt>
<pdfrwt beam="2">  1       21 0.21656831E+00 0.49929799E+03</pdfrwt>
<totfact> 0.30958715E+02</totfact>
</mgrwt>
</event>
<event>
 4    1  0.4821294E-002  0.4777345E+03  0.7818608E-02  0.1019760E+00
         21   -1    0    0  503  502  0.00000000000E+00  0.00000000000E+00  0.14385883249E+04  0.14385883249E+04  0.00000000000E+00 0.  1.
         21   -1    0    0  501  503 -0.00000000000E+00 -0.00000000000E+00 -0.16893952583E+03  0.16893952583E+03  0.00000000000E+00 0. -1.
    9000007    1    1    2  501    0 -0.37436862422E+02  0.25851249162E+03  0.43644931843E+03  0.64708441068E+03  0.40000000000E+03 0. -1.
   -9000007    1    1    2    0  502  0.37436862422E+02 -0.25851249162E+03  0.83319948061E+03  0.96044344002E+03  0.40000000000E+03 0. -1.
<mgrwt>
<rscale>  2 0.47773447E+03</rscale>
<asrwt>0</asrwt>
<pdfrwt beam="1">  1       21 0.22132127E+00 0.47773447E+03</pdfrwt>
<pdfrwt beam="2">  1       21 0.25990697E-01 0.47773447E+03</pdfrwt>
<totfact> 0.11398216E+03</totfact>
</mgrwt>
</event>
<event>
 4    1  0.4821294E-002  0.4382687E+03  0.7818608E-02  0.1031279E+00
         21   -1    0    0  501  502  0.00000000000E+00  0.00000000000E+00  0.10043275517E+04  0.10043275517E+04  0.00000000000E+00 0.  1.
         21   -1    0    0  502  503 -0.00000000000E+00 -0.00000000000E+00 -0.33553201463E+03  0.33553201463E+03  0.00000000000E+00 0.  1.
    9000007    1    1    2  501    0  0.94497947740E+01  0.17885779687E+03  0.77370237394E+03  0.88921019650E+03  0.40000000000E+03 0.  1.
   -9000007    1    1    2    0  503 -0.94497947740E+01 -0.17885779687E+03 -0.10490683686E+03  0.45064936984E+03  0.40000000000E+03 0.  1.
<mgrwt>
<rscale>  2 0.43826865E+03</rscale>
<asrwt>0</asrwt>
<pdfrwt beam="1">  1       21 0.15451193E+00 0.43826865E+03</pdfrwt>
<pdfrwt beam="2">  1       21 0.51620310E-01 0.43826865E+03</pdfrwt>
<totfact> 0.83269108E+02</totfact>
</mgrwt>
</event>
<event>
 4    1  0.4821294E-002  0.4160116E+03  0.7818608E-02  0.1038372E+00
         21   -1    0    0  501  502  0.00000000000E+00  0.00000000000E+00  0.14544933664E+04  0.14544933664E+04  0.00000000000E+00 0.  1.
         21   -1    0    0  502  503 -0.00000000000E+00 -0.00000000000E+00 -0.23251857088E+03  0.23251857088E+03  0.00000000000E+00 0.  1.
    9000007    1    1    2  501    0 -0.10417364454E+03 -0.47047527053E+02  0.12003979451E+04  0.12704412008E+04  0.40000000000E+03 0.  1.
   -9000007    1    1    2    0  503  0.10417364454E+03  0.47047527053E+02  0.21576850391E+02  0.41657073648E+03  0.40000000000E+03 0.  1.
<mgrwt>
<rscale>  2 0.41601156E+03</rscale>
<asrwt>0</asrwt>
<pdfrwt beam="1">  1       21 0.22376821E+00 0.41601156E+03</pdfrwt>
<pdfrwt beam="2">  1       21 0.35772089E-01 0.41601156E+03</pdfrwt>
<totfact> 0.60010493E+02</totfact>
</mgrwt>
</event>
<event>
 4    1  0.4821294E-002  0.4649904E+03  0.7818608E-02  0.1023344E+00
         21   -1    0    0  503  502  0.00000000000E+00  0.00000000000E+00  0.38061781635E+03  0.38061781635E+03  0.00000000000E+00 0. -1.
         21   -1    0    0  501  503 -0.00000000000E+00 -0.00000000000E+00 -0.59195639847E+03  0.59195639847E+03  0.00000000000E+00 0.  1.
    9000007    1    1    2  501    0  0.27151548373E+02  0.23553957895E+03 -0.79774768319E+01  0.46505885646E+03  0.40000000000E+03 0.  1.
   -9000007    1    1    2    0  502 -0.27151548373E+02 -0.23553957895E+03 -0.20336110529E+03  0.50751535836E+03  0.40000000000E+03 0.  1.
<mgrwt>
<rscale>  2 0.46499043E+03</rscale>
<asrwt>0</asrwt>
<pdfrwt beam="1">  1       21 0.58556587E-01 0.46499043E+03</pdfrwt>
<pdfrwt beam="2">  1       21 0.91070215E-01 0.46499043E+03</pdfrwt>
<totfact> 0.24047508E+03</totfact>
</mgrwt>
</event>
<event>
 4    1  0.4821294E-002  0.4053025E+03  0.7818608E-02  0.1041959E+00
         21   -1    0    0  503  502  0.00000000000E+00  0.00000000000E+00  0.11312685508E+04  0.11312685508E+04  0.00000000000E+00 0. -1.
         21   -1    0    0  501  503 -0.00000000000E+00 -0.00000000000E+00 -0.14885155679E+03  0.14885155679E+03  0.00000000000E+00 0. -1.
    9000007    1    1    2  501    0 -0.41546153127E+02  0.50438500611E+02  0.39107938557E+03  0.56321684190E+03  0.40000000000E+03 0.  1.
   -9000007    1    1    2    0  502  0.41546153127E+02 -0.50438500611E+02  0.59133760839E+03  0.71690326564E+03  0.40000000000E+03 0.  1.
<mgrwt>
<rscale>  2 0.40530251E+03</rscale>
<asrwt>0</asrwt>
<pdfrwt beam="1">  1       21 0.17404131E+00 0.40530251E+03</pdfrwt>
<pdfrwt beam="2">  1       21 0.22900240E-01 0.40530251E+03</pdfrwt>
<totfact> 0.31285528E+03</totfact>
</mgrwt>
</event>
<event>
 4    1  0.4821294E-002  0.5376370E+03  0.7818608E-02  0.1004397E+00
         21   -1    0    0  501  502  0.00000000000E+00  0.00000000000E+00  0.63408688781E+03  0.63408688781E+03  0.00000000000E+00 0.  1.
         21   -1    0    0  502  503 -0.00000000000E+00 -0.00000000000E+00 -0.48435666616E+03  0.48435666616E+03  0.00000000000E+00 0. -1.
    9000007    1    1    2  501    0  0.35815079968E+03  0.27955821390E+02 -0.60783199794E+02  0.54106203030E+03  0.40000000000E+03 0.  1.
   -9000007    1    1    2    0  503 -0.35815079968E+03 -0.27955821390E+02  0.21051342145E+03  0.57738152367E+03  0.40000000000E+03 0.  1.
<mgrwt>
<rscale>  2 0.53763698E+03</rscale>
<asrwt>0</asrwt>
<pdfrwt beam="1">  1       21 0.97551829E-01 0.53763698E+03</pdfrwt>
<pdfrwt beam="2">  1       21 0.74516410E-01 0.53763698E+03</pdfrwt>
<totfact> 0.11605957E+03</totfact>
</mgrwt>
</event>
<event>
 4    1  0.4821294E-002  0.4000509E+03  0.7818608E-02  0.1043762E+00
         21   -1    0    0  501  502  0.00000000000E+00  0.00000000000E+00  0.70162206990E+03  0.70162206990E+03  0.00000000000E+00 0. -1.
         21   -1    0    0  502  503 -0.00000000000E+00 -0.00000000000E+00 -0.28869579720E+03  0.28869579720E+03  0.00000000000E+00 0. -1.
    9000007    1    1    2  501    0 -0.61515427906E+01 -0.16973723115E+01  0.43331477436E+03  0.58974775644E+03  0.40000000000E+03 0. -1.
   -9000007    1    1    2    0  503  0.61515427906E+01  0.16973723115E+01 -0.20388501651E+02  0.40057011066E+03  0.40000000000E+03 0. -1.
<mgrwt>
<rscale>  2 0.40005090E+03</rscale>
<asrwt>0</asrwt>
<pdfrwt beam="1">  1       21 0.10794186E+00 0.40005090E+03</pdfrwt>
<pdfrwt beam="2">  1       21 0.44414738E-01 0.40005090E+03</pdfrwt>
<totfact> 0.29444835E+03</totfact>
</mgrwt>
</event>
<event>
 4    1  0.4821294E-002  0.7059054E+03  0.7818608E-02  0.9707186E-01
         21   -1    0    0  501  502  0.00000000000E+00  0.00000000000E+00  0.41288699786E+03  0.41288699786E+03  0.00000000000E+00 0.  1.
         21   -1    0    0  502  503 -0.00000000000E+00 -0.00000000000E+00 -0.13413801487E+04  0.13413801487E+04  0.00000000000E+00 0. -1.
    9000007    1    1    2  501    0 -0.18992708656E+03 -0.54975467782E+03 -0.18649203087E+03  0.73012449731E+03  0.40000000000E+03 0. -1.
   -9000007    1    1    2    0  503  0.18992708656E+03  0.54975467782E+03 -0.74200112000E+03  0.10241426493E+04  0.40000000000E+03 0. -1.
<mgrwt>
<rscale>  2 0.70590545E+03</rscale>
<asrwt>0</asrwt>
<pdfrwt beam="1">  1       21 0.63521078E-01 0.70590545E+03</pdfrwt>
<pdfrwt beam="2">  1       21 0.20636617E+00 0.70590545E+03</pdfrwt>
<totfact> 0.20377046E+02</totfact>
</mgrwt>
</event>
<event>
 4    1  0.4821294E-002  0.5405332E+03  0.7818608E-02  0.1003709E+00
         21   -1    0    0  501  502  0.00000000000E+00  0.00000000000E+00  0.13291494028E+04  0.13291494028E+04  0.00000000000E+00 0. -1.
         21   -1    0    0  502  503 -0.00000000000E+00 -0.00000000000E+00 -0.36790642236E+03  0.36790642236E+03  0.00000000000E+00 0. -1.
    9000007    1    1    2  501    0 -0.13995799082E+01  0.36355770423E+03  0.10189560549E+04  0.11534503045E+04  0.40000000000E+03 0. -1.
   -9000007    1    1    2    0  503  0.13995799082E+01 -0.36355770423E+03 -0.57713074460E+02  0.54360552066E+03  0.40000000000E+03 0. -1.
<mgrwt>
<rscale>  2 0.54053322E+03</rscale>
<asrwt>0</asrwt>
<pdfrwt beam="1">  1       21 0.20448452E+00 0.54053322E+03</pdfrwt>
<pdfrwt beam="2">  1       21 0.56600989E-01 0.54053322E+03</pdfrwt>
<totfact> 0.28782077E+02</totfact>
</mgrwt>
</event>
<event>
 4    1  0.4821294E-002  0.4348195E+03  0.7818608E-02  0.1032348E+00
         21   -1    0    0  503  502  0.00000000000E+00  0.00000000000E+00  0.82449167206E+03  0.82449167206E+03  0.00000000000E+00 0.  1.
         21   -1    0    0  501  503 -0.00000000000E+00 -0.00000000000E+00 -0.34600227260E+03  0.34600227260E+03  0.00000000000E+00 0.  1.
    9000007    1    1    2  501    0 -0.22967009037E+02  0.16893948652E+03 -0.10062469905E+03  0.44631083750E+03  0.40000000000E+03 0.  1.
   -9000007    1    1    2    0  502  0.22967009037E+02 -0.16893948652E+03  0.57911409851E+03  0.72418310716E+03  0.40000000000E+03 0.  1.
<mgrwt>
<rscale>  2 0.43481954E+03</rscale>
<asrwt>0</asrwt>
<pdfrwt beam="1">  1       21 0.12684487E+00 0.43481954E+03</pdfrwt>
<pdfrwt beam="2">  1       21 0.53231119E-01 0.43481954E+03</pdfrwt>
<totfact> 0.13183880E+03</totfact>
</mgrwt>
</event>
<event>
 4    1  0.4821294E-002  0.5116581E+03  0.7818608E-02  0.1010780E+00
         21   -1    0    0  503  502  0.00000000000E+00  0.00000000000E+00  0.15317336614E+04  0.15317336614E+04  0.00000000000E+00 0. -1.
         21   -1    0    0  501  503 -0.00000000000E+00 -0.00000000000E+00 -0.18034192755E+03  0.18034192755E+03  0.00000000000E+00 0. -1.
    9000007    1    1    2  501    0 -0.30002534656E+03 -0.10853019878E+03  0.87142859345E+03  0.10105354057E+04  0.40000000000E+03 0. -1.
   -9000007    1    1    2    0  502  0.30002534656E+03  0.10853019878E+03  0.47996314040E+03  0.70154018329E+03  0.40000000000E+03 0. -1.
<mgrwt>
<rscale>  2 0.51165810E+03</rscale>
<asrwt>0</asrwt>
<pdfrwt beam="1">  1       21 0.23565132E+00 0.51165810E+03</pdfrwt>
<pdfrwt beam="2">  1       21 0.27744913E-01 0.51165810E+03</pdfrwt>
<totfact> 0.80150575E+02</totfact>
</mgrwt>
</event>
<event>
 4    1  0.4821294E-002  0.4039033E+03  0.7818608E-02  0.1042436E+00
         21   -1    0    0  501  502  0.00000000000E+00  0.00000000000E+00  0.16083435115E+03  0.16083435115E+03  0.00000000000E+00 0. -1.
         21   -1    0    0  502  503 -0.00000000000E+00 -0.00000000000E+00 -0.17776752732E+04  0.17776752732E+04  0.00000000000E+00 0.  1.
    9000007    1    1    2  501    0 -0.47964705306E+02 -0.28935933755E+02 -0.17327325237E+03  0.43950144619E+03  0.40000000000E+03 0. -1.
   -9000007    1    1    2    0  503  0.47964705306E+02  0.28935933755E+02 -0.14435676697E+04  0.14990081782E+04  0.40000000000E+03 0.  1.
<mgrwt>
<rscale>  2 0.40390333E+03</rscale>
<asrwt>0</asrwt>
<pdfrwt beam="1">  1       21 0.24743748E-01 0.40390333E+03</pdfrwt>
<pdfrwt beam="2">  1       21 0.27348849E+00 0.40390333E+03</pdfrwt>
<totfact> 0.62112274E+02</totfact>
</mgrwt>
</event>
<event>
 4    1  0.4821294E-002  0.5063117E+03  0.7818608E-02  0.1012144E+00
         21   -1    0    0  503  502  0.00000000000E+00  0.00000000000E+00  0.25939813569E+03  0.25939813569E+03  0.00000000000E+00 0. -1.
         21   -1    0    0  501  503 -0.00000000000E+00 -0.00000000000E+00 -0.10766159062E+04  0.10766159062E+04  0.00000000000E+00 0.  1.
    9000007    1    1    2  501    0  0.31007665041E+03 -0.14283075447E+02 -0.21723599322E+03  0.55094737691E+03  0.40000000000E+03 0.  1.
   -9000007    1    1    2    0  502 -0.31007665041E+03  0.14283075447E+02 -0.59998177729E+03  0.78506666497E+03  0.40000000000E+03 0.  1.
<mgrwt>
<rscale>  2 0.50631170E+03</rscale>
<asrwt>0</asrwt>
<pdfrwt beam="1">  1       21 0.39907405E-01 0.50631170E+03</pdfrwt>
<pdfrwt beam="2">  1       21 0.16563322E+00 0.50631170E+03</pdfrwt>
<totfact> 0.11446487E+03</totfact>
</mgrwt>
</event>
<event>
 4    1  0.4821294E-002  0.4178436E+03  0.7818608E-02  0.1037770E+00
         21   -1    0    0  501  502  0.00000000000E+00  0.00000000000E+00  0.40283431720E+03  0.40283431720E+03  0.00000000000E+00 0. -1.
         21   -1    0    0  502  503 -0.00000000000E+00 -0.00000000000E+00 -0.44269870696E+03  0.44269870696E+03  0.00000000000E+00 0. -1.
    9000007    1    1    2  501    0  0.76908887456E+02 -0.93157194831E+02 -0.81163931686E+02  0.42565340798E+03  0.40000000000E+03 0. -1.
   -9000007    1    1    2    0  503 -0.76908887456E+02  0.93157194831E+02  0.41299541927E+02  0.41987961618E+03  0.40000000000E+03 0. -1.
<mgrwt>
<rscale>  2 0.41784356E+03</rscale>
<asrwt>0</asrwt>
<pdfrwt beam="1">  1       21 0.61974511E-01 0.41784356E+03</pdfrwt>
<pdfrwt beam="2">  1       21 0.68107493E-01 0.41784356E+03</pdfrwt>
<totfact> 0.42175560E+03</totfact>
</mgrwt>
</event>
<event>
 4    1  0.4821294E-002  0.4489622E+03  0.7818608E-02  0.1028032E+00
         21   -1    0    0  501  502  0.00000000000E+00  0.00000000000E+00  0.69433515087E+03  0.69433515087E+03  0.00000000000E+00 0. -1.
         21   -1    0    0  502  503 -0.00000000000E+00 -0.00000000000E+00 -0.46149082265E+03  0.46149082265E+03  0.00000000000E+00 0.  1.
    9000007    1    1    2  501    0 -0.11791385498E+03  0.16632308481E+03  0.46840243783E+03  0.64882038308E+03  0.40000000000E+03 0. -1.
   -9000007    1    1    2    0  503  0.11791385498E+03 -0.16632308481E+03 -0.23555810961E+03  0.50700559044E+03  0.40000000000E+03 0.  1.
<mgrwt>
<rscale>  2 0.44896219E+03</rscale>
<asrwt>0</asrwt>
<pdfrwt beam="1">  1       21 0.10682079E+00 0.44896219E+03</pdfrwt>
<pdfrwt beam="2">  1       21 0.70998588E-01 0.44896219E+03</pdfrwt>
<totfact> 0.10717937E+03</totfact>
</mgrwt>
</event>
<event>
 4    1  0.4821294E-002  0.4818812E+03  0.7818608E-02  0.1018619E+00
         21   -1    0    0  503  502  0.00000000000E+00  0.00000000000E+00  0.40949057694E+03  0.40949057694E+03  0.00000000000E+00 0. -1.
         21   -1    0    0  501  503 -0.00000000000E+00 -0.00000000000E+00 -0.70248044990E+03  0.70248044990E+03  0.00000000000E+00 0.  1.
    9000007    1    1    2  501    0  0.57534109488E+02  0.26248680686E+03 -0.39059827202E+03  0.62030356087E+03  0.40000000000E+03 0.  1.
   -9000007    1    1    2    0  502 -0.57534109488E+02 -0.26248680686E+03  0.97608399058E+02  0.49166746597E+03  0.40000000000E+03 0.  1.
<mgrwt>
<rscale>  2 0.48188121E+03</rscale>
<asrwt>0</asrwt>
<pdfrwt beam="1">  1       21 0.62998551E-01 0.48188121E+03</pdfrwt>
<pdfrwt beam="2">  1       21 0.10807391E+00 0.48188121E+03</pdfrwt>
<totfact> 0.13428272E+03</totfact>
</mgrwt>
</event>
<event>
 4    1  0.4821294E-002  0.4145202E+03  0.7818608E-02  0.1038865E+00
         21   -1    0    0  501  502  0.00000000000E+00  0.00000000000E+00  0.17845238788E+03  0.17845238788E+03  0.00000000000E+00 0. -1.
         21   -1    0    0  502  503 -0.00000000000E+00 -0.00000000000E+00 -0.10351050506E+04  0.10351050506E+04  0.00000000000E+00 0.  1.
    9000007    1    1    2  501    0 -0.75745437309E+02  0.78036113351E+02 -0.26803768579E+03  0.49363063850E+03  0.40000000000E+03 0. -1.
   -9000007    1    1    2    0  503  0.75745437309E+02 -0.78036113351E+02 -0.58861497691E+03  0.71992679996E+03  0.40000000000E+03 0.  1.
<mgrwt>
<rscale>  2 0.41452021E+03</rscale>
<asrwt>0</asrwt>
<pdfrwt beam="1">  1       21 0.27454213E-01 0.41452021E+03</pdfrwt>
<pdfrwt beam="2">  1       21 0.15924693E+00 0.41452021E+03</pdfrwt>
<totfact> 0.28135860E+03</totfact>
</mgrwt>
</event>
<event>
 4    1  0.4821294E-002  0.4626367E+03  0.7818608E-02  0.1024019E+00
         21   -1    0    0  503  502  0.00000000000E+00  0.00000000000E+00  0.26461809198E+03  0.26461809198E+03  0.00000000000E+00 0. -1.
         21   -1    0    0  501  503 -0.00000000000E+00 -0.00000000000E+00 -0.13655208790E+04  0.13655208790E+04  0.00000000000E+00 0. -1.
    9000007    1    1    2  501    0 -0.20823789392E+03 -0.10329443527E+03 -0.30036167013E+02  0.46361075500E+03  0.40000000000E+03 0. -1.
   -9000007    1    1    2    0  502  0.20823789392E+03  0.10329443527E+03 -0.10708666200E+04  0.11665282160E+04  0.40000000000E+03 0. -1.
<mgrwt>
<rscale>  2 0.46263675E+03</rscale>
<asrwt>0</asrwt>
<pdfrwt beam="1">  1       21 0.40710475E-01 0.46263675E+03</pdfrwt>
<pdfrwt beam="2">  1       21 0.21008014E+00 0.46263675E+03</pdfrwt>
<totfact> 0.55083775E+02</totfact>
</mgrwt>
</event>
<event>
 4    1  0.4821294E-002  0.4278929E+03  0.7818608E-02  0.1034528E+00
         21   -1    0    0  501  502  0.00000000000E+00  0.00000000000E+00  0.43426666853E+03  0.43426666853E+03  0.00000000000E+00 0. -1.
         21   -1    0    0  502  503 -0.00000000000E+00 -0.00000000000E+00 -0.42170666641E+03  0.42170666641E+03  0.00000000000E+00 0. -1.
    9000007    1    1    2  501    0  0.11145607530E+03  0.10329494064E+03  0.12671904931E+02  0.42808045816E+03  0.40000000000E+03 0. -1.
   -9000007    1    1    2    0  503 -0.11145607530E+03 -0.10329494064E+03 -0.11190281020E+00  0.42789287679E+03  0.40000000000E+03 0. -1.
<mgrwt>
<rscale>  2 0.42789286E+03</rscale>
<asrwt>0</asrwt>
<pdfrwt beam="1">  1       21 0.66810257E-01 0.42789286E+03</pdfrwt>
<pdfrwt beam="2">  1       21 0.64877949E-01 0.42789286E+03</pdfrwt>
<totfact> 0.39647630E+03</totfact>
</mgrwt>
</event>
<event>
 4    1  0.4821294E-002  0.4483929E+03  0.7818608E-02  0.1028202E+00
         21   -1    0    0  501  502  0.00000000000E+00  0.00000000000E+00  0.18331525740E+03  0.18331525740E+03  0.00000000000E+00 0. -1.
         21   -1    0    0  502  503 -0.00000000000E+00 -0.00000000000E+00 -0.14280093866E+04  0.14280093866E+04  0.00000000000E+00 0. -1.
    9000007    1    1    2  501    0 -0.32227309181E+02  0.20004388487E+03 -0.23432786630E+03  0.50593053303E+03  0.40000000000E+03 0. -1.
   -9000007    1    1    2    0  503  0.32227309181E+02 -0.20004388487E+03 -0.10103662629E+04  0.11053941110E+04  0.40000000000E+03 0. -1.
<mgrwt>
<rscale>  2 0.44839286E+03</rscale>
<asrwt>0</asrwt>
<pdfrwt beam="1">  1       21 0.28202348E-01 0.44839286E+03</pdfrwt>
<pdfrwt beam="2">  1       21 0.21969375E+00 0.44839286E+03</pdfrwt>
<totfact> 0.10079544E+03</totfact>
</mgrwt>
</event>
<event>
 4    1  0.4821294E-002  0.4160933E+03  0.7818608E-02  0.1038345E+00
         21   -1    0    0  501  502  0.00000000000E+00  0.00000000000E+00  0.15672400372E+03  0.15672400372E+03  0.00000000000E+00 0.  1.
         21   -1    0    0  502  503 -0.00000000000E+00 -0.00000000000E+00 -0.13548074820E+04  0.13548074820E+04  0.00000000000E+00 0.  1.
    9000007    1    1    2  501    0  0.76267231977E+02  0.85539116214E+02 -0.27432229606E+03  0.49838374090E+03  0.40000000000E+03 0.  1.
   -9000007    1    1    2    0  503 -0.76267231977E+02 -0.85539116214E+02 -0.92376118227E+03  0.10131477449E+04  0.40000000000E+03 0.  1.
<mgrwt>
<rscale>  2 0.41609330E+03</rscale>
<asrwt>0</asrwt>
<pdfrwt beam="1">  1       21 0.24111385E-01 0.41609330E+03</pdfrwt>
<pdfrwt beam="2">  1       21 0.20843192E+00 0.41609330E+03</pdfrwt>
<totfact> 0.16435720E+03</totfact>
</mgrwt>
</event>
<event>
 4    1  0.4821294E-002  0.4027026E+03  0.7818608E-02  0.1042848E+00
         21   -1    0    0  501  502  0.00000000000E+00  0.00000000000E+00  0.65309424574E+03  0.65309424574E+03  0.00000000000E+00 0. -1.
         21   -1    0    0  502  503 -0.00000000000E+00 -0.00000000000E+00 -0.36832662479E+03  0.36832662479E+03  0.00000000000E+00 0. -1.
    9000007    1    1    2  501    0 -0.10345350346E+02  0.45412769150E+02  0.43391177936E+03  0.59198714356E+03  0.40000000000E+03 0. -1.
   -9000007    1    1    2    0  503  0.10345350346E+02 -0.45412769150E+02 -0.14914415841E+03  0.42943372697E+03  0.40000000000E+03 0. -1.
<mgrwt>
<rscale>  2 0.40270255E+03</rscale>
<asrwt>0</asrwt>
<pdfrwt beam="1">  1       21 0.10047604E+00 0.40270255E+03</pdfrwt>
<pdfrwt beam="2">  1       21 0.56665635E-01 0.40270255E+03</pdfrwt>
<totfact> 0.20898374E+03</totfact>
</mgrwt>
</event>
<event>
 4    1  0.4821294E-002  0.4806667E+03  0.7818608E-02  0.1018952E+00
         21   -1    0    0  503  502  0.00000000000E+00  0.00000000000E+00  0.72309466480E+03  0.72309466480E+03  0.00000000000E+00 0.  1.
         21   -1    0    0  501  503 -0.00000000000E+00 -0.00000000000E+00 -0.32020679493E+03  0.32020679493E+03  0.00000000000E+00 0.  1.
    9000007    1    1    2  501    0 -0.57028207086E+02  0.26036184292E+03  0.22566851103E+03  0.53100544491E+03  0.40000000000E+03 0.  1.
   -9000007    1    1    2    0  502  0.57028207086E+02 -0.26036184292E+03  0.17721935885E+03  0.51229601482E+03  0.40000000000E+03 0.  1.
<mgrwt>
<rscale>  2 0.48066673E+03</rscale>
<asrwt>0</asrwt>
<pdfrwt beam="1">  1       21 0.11124533E+00 0.48066673E+03</pdfrwt>
<pdfrwt beam="2">  1       21 0.49262584E-01 0.48066673E+03</pdfrwt>
<totfact> 0.21309141E+03</totfact>
</mgrwt>
</event>
<event>
 4    1  0.4821294E-002  0.5279591E+03  0.7818608E-02  0.1006728E+00
         21   -1    0    0  503  502  0.00000000000E+00  0.00000000000E+00  0.87207383592E+03  0.87207383592E+03  0.00000000000E+00 0.  1.
         21   -1    0    0  501  503 -0.00000000000E+00 -0.00000000000E+00 -0.39871416144E+03  0.39871416144E+03  0.00000000000E+00 0. -1.
    9000007    1    1    2  501    0 -0.94099306428E+02 -0.33149073325E+03 -0.46301363072E+02  0.52998547331E+03  0.40000000000E+03 0.  1.
   -9000007    1    1    2    0  502  0.94099306428E+02  0.33149073325E+03  0.51966103755E+03  0.74080252405E+03  0.40000000000E+03 0.  1.
<mgrwt>
<rscale>  2 0.52795908E+03</rscale>
<asrwt>0</asrwt>
<pdfrwt beam="1">  1       21 0.13416521E+00 0.52795908E+03</pdfrwt>
<pdfrwt beam="2">  1       21 0.61340640E-01 0.52795908E+03</pdfrwt>
<totfact> 0.80685910E+02</totfact>
</mgrwt>
</event>
<event>
 4    1  0.4821294E-002  0.4076726E+03  0.7818608E-02  0.1041155E+00
         21   -1    0    0  501  502  0.00000000000E+00  0.00000000000E+00  0.14414254629E+04  0.14414254629E+04  0.00000000000E+00 0.  1.
         21   -1    0    0  502  503 -0.00000000000E+00 -0.00000000000E+00 -0.12634704570E+03  0.12634704570E+03  0.00000000000E+00 0. -1.
    9000007    1    1    2  501    0 -0.32217031937E+02  0.71826506381E+02  0.88932403956E+03  0.97831192956E+03  0.40000000000E+03 0.  1.
   -9000007    1    1    2    0  503  0.32217031937E+02 -0.71826506381E+02  0.42575437766E+03  0.58946057905E+03  0.40000000000E+03 0. -1.
<mgrwt>
<rscale>  2 0.40767264E+03</rscale>
<asrwt>0</asrwt>
<pdfrwt beam="1">  1       21 0.22175775E+00 0.40767264E+03</pdfrwt>
<pdfrwt beam="2">  1       21 0.19438008E-01 0.40767264E+03</pdfrwt>
<totfact> 0.20464195E+03</totfact>
</mgrwt>
</event>
<event>
 4    1  0.4821294E-002  0.4225209E+03  0.7818608E-02  0.1036249E+00
         21   -1    0    0  501  502  0.00000000000E+00  0.00000000000E+00  0.15162902220E+03  0.15162902220E+03  0.00000000000E+00 0. -1.
         21   -1    0    0  502  503 -0.00000000000E+00 -0.00000000000E+00 -0.23498900372E+04  0.23498900372E+04  0.00000000000E+00 0. -1.
    9000007    1    1    2  501    0 -0.74165254975E+02 -0.11412040051E+03 -0.21562433127E+03  0.47436041476E+03  0.40000000000E+03 0. -1.
   -9000007    1    1    2    0  503  0.74165254975E+02  0.11412040051E+03 -0.19826366837E+04  0.20271586446E+04  0.40000000000E+03 0. -1.
<mgrwt>
<rscale>  2 0.42252095E+03</rscale>
<asrwt>0</asrwt>
<pdfrwt beam="1">  1       21 0.23327541E-01 0.42252095E+03</pdfrwt>
<pdfrwt beam="2">  1       21 0.36152156E+00 0.42252095E+03</pdfrwt>
<totfact> 0.20226925E+02</totfact>
</mgrwt>
</event>
<event>
 4    1  0.4821294E-002  0.5113762E+03  0.7818608E-02  0.1010851E+00
         21   -1    0    0  503  502  0.00000000000E+00  0.00000000000E+00  0.46692358137E+03  0.46692358137E+03  0.00000000000E+00 0. -1.
         21   -1    0    0  501  503 -0.00000000000E+00 -0.00000000000E+00 -0.63065200307E+03  0.63065200307E+03  0.00000000000E+00 0. -1.
    9000007    1    1    2  501    0  0.25649588640E+02 -0.31756536660E+03 -0.26546916260E+03  0.57617665672E+03  0.40000000000E+03 0. -1.
   -9000007    1    1    2    0  502 -0.25649588640E+02  0.31756536660E+03  0.10174074090E+03  0.52139892771E+03  0.40000000000E+03 0. -1.
<mgrwt>
<rscale>  2 0.51137624E+03</rscale>
<asrwt>0</asrwt>
<pdfrwt beam="1">  1       21 0.71834397E-01 0.51137624E+03</pdfrwt>
<pdfrwt beam="2">  1       21 0.97023385E-01 0.51137624E+03</pdfrwt>
<totfact> 0.12898024E+03</totfact>
</mgrwt>
</event>
<event>
 4    1  0.4821294E-002  0.4322035E+03  0.7818608E-02  0.1033166E+00
         21   -1    0    0  503  502  0.00000000000E+00  0.00000000000E+00  0.11536934439E+03  0.11536934439E+03  0.00000000000E+00 0.  1.
         21   -1    0    0  501  503 -0.00000000000E+00 -0.00000000000E+00 -0.22979539192E+04  0.22979539192E+04  0.00000000000E+00 0. -1.
    9000007    1    1    2  501    0 -0.41603273831E+02 -0.15833200663E+03 -0.17471175977E+04  0.17997832528E+04  0.40000000000E+03 0. -1.
   -9000007    1    1    2    0  502  0.41603273831E+02  0.15833200663E+03 -0.43546697706E+03  0.61354001078E+03  0.40000000000E+03 0.  1.
<mgrwt>
<rscale>  2 0.43220349E+03</rscale>
<asrwt>0</asrwt>
<pdfrwt beam="1">  1       21 0.17749131E-01 0.43220349E+03</pdfrwt>
<pdfrwt beam="2">  1       21 0.35353136E+00 0.43220349E+03</pdfrwt>
<totfact> 0.37880321E+02</totfact>
</mgrwt>
</event>
<event>
 4    1  0.4821294E-002  0.4731508E+03  0.7818608E-02  0.1021035E+00
         21   -1    0    0  503  502  0.00000000000E+00  0.00000000000E+00  0.91814443539E+03  0.91814443539E+03  0.00000000000E+00 0. -1.
         21   -1    0    0  501  503 -0.00000000000E+00 -0.00000000000E+00 -0.38406876246E+03  0.38406876246E+03  0.00000000000E+00 0. -1.
    9000007    1    1    2  501    0 -0.21075823909E+03  0.13947269362E+03 -0.12640421806E+03  0.48974451906E+03  0.40000000000E+03 0. -1.
   -9000007    1    1    2    0  502  0.21075823909E+03 -0.13947269362E+03  0.66047989099E+03  0.81246867879E+03  0.40000000000E+03 0. -1.
<mgrwt>
<rscale>  2 0.47315079E+03</rscale>
<asrwt>0</asrwt>
<pdfrwt beam="1">  1       21 0.14125299E+00 0.47315079E+03</pdfrwt>
<pdfrwt beam="2">  1       21 0.59087502E-01 0.47315079E+03</pdfrwt>
<totfact> 0.78065980E+02</totfact>
</mgrwt>
</event>
<event>
 4    1  0.4821294E-002  0.4179533E+03  0.7818608E-02  0.1037734E+00
         21   -1    0    0  503  502  0.00000000000E+00  0.00000000000E+00  0.69509262376E+03  0.69509262376E+03  0.00000000000E+00 0.  1.
         21   -1    0    0  501  503 -0.00000000000E+00 -0.00000000000E+00 -0.43004579596E+03  0.43004579596E+03  0.00000000000E+00 0.  1.
    9000007    1    1    2  501    0  0.11986377403E+03  0.17822585030E+02 -0.23015541525E+03  0.47713361235E+03  0.40000000000E+03 0.  1.
   -9000007    1    1    2    0  502 -0.11986377403E+03 -0.17822585030E+02  0.49520224304E+03  0.64800480737E+03  0.40000000000E+03 0.  1.
<mgrwt>
<rscale>  2 0.41795331E+03</rscale>
<asrwt>0</asrwt>
<pdfrwt beam="1">  1       21 0.10693733E+00 0.41795331E+03</pdfrwt>
<pdfrwt beam="2">  1       21 0.66160892E-01 0.41795331E+03</pdfrwt>
<totfact> 0.12685605E+03</totfact>
</mgrwt>
</event>
<event>
 4    1  0.4821294E-002  0.5079257E+03  0.7818608E-02  0.1011731E+00
         21   -1    0    0  501  502  0.00000000000E+00  0.00000000000E+00  0.15167756141E+03  0.15167756141E+03  0.00000000000E+00 0.  1.
         21   -1    0    0  502  503 -0.00000000000E+00 -0.00000000000E+00 -0.20459503826E+04  0.20459503826E+04  0.00000000000E+00 0.  1.
    9000007    1    1    2  501    0  0.15554619236E+03  0.27165036665E+03 -0.49588647476E+03  0.70985346059E+03  0.40000000000E+03 0.  1.
   -9000007    1    1    2    0  503 -0.15554619236E+03 -0.27165036665E+03 -0.13983863464E+04  0.14877744834E+04  0.40000000000E+03 0.  1.
<mgrwt>
<rscale>  2 0.50792572E+03</rscale>
<asrwt>0</asrwt>
<pdfrwt beam="1">  1       21 0.23335012E-01 0.50792572E+03</pdfrwt>
<pdfrwt beam="2">  1       21 0.31476156E+00 0.50792572E+03</pdfrwt>
<totfact> 0.37036418E+02</totfact>
</mgrwt>
</event>
<event>
 4    1  0.4821294E-002  0.5085703E+03  0.7818608E-02  0.1011566E+00
         21   -1    0    0  501  502  0.00000000000E+00  0.00000000000E+00  0.45127293127E+03  0.45127293127E+03  0.00000000000E+00 0.  1.
         21   -1    0    0  502  503 -0.00000000000E+00 -0.00000000000E+00 -0.10431684545E+04  0.10431684545E+04  0.00000000000E+00 0.  1.
    9000007    1    1    2  501    0  0.18338875686E+03  0.25497504015E+03  0.20562342061E+03  0.54856603827E+03  0.40000000000E+03 0.  1.
   -9000007    1    1    2    0  503 -0.18338875686E+03 -0.25497504015E+03 -0.79751894388E+03  0.94587534754E+03  0.40000000000E+03 0.  1.
<mgrwt>
<rscale>  2 0.50857026E+03</rscale>
<asrwt>0</asrwt>
<pdfrwt beam="1">  1       21 0.69426605E-01 0.50857026E+03</pdfrwt>
<pdfrwt beam="2">  1       21 0.16048745E+00 0.50857026E+03</pdfrwt>
<totfact> 0.37933648E+02</totfact>
</mgrwt>
</event>
<event>
 4    1  0.4821294E-002  0.4085582E+03  0.7818608E-02  0.1040856E+00
         21   -1    0    0  503  502  0.00000000000E+00  0.00000000000E+00  0.28887702892E+03  0.28887702892E+03  0.00000000000E+00 0.  1.
         21   -1    0    0  501  503 -0.00000000000E+00 -0.00000000000E+00 -0.58119663567E+03  0.58119663567E+03  0.00000000000E+00 0. -1.
    9000007    1    1    2  501    0 -0.39460643284E+02  0.73230240374E+02 -0.11301546600E+03  0.42390129279E+03  0.40000000000E+03 0.  1.
   -9000007    1    1    2    0  502  0.39460643284E+02 -0.73230240374E+02 -0.17930414075E+03  0.44617237181E+03  0.40000000000E+03 0. -1.
<mgrwt>
<rscale>  2 0.40855821E+03</rscale>
<asrwt>0</asrwt>
<pdfrwt beam="1">  1       21 0.44442620E-01 0.40855821E+03</pdfrwt>
<pdfrwt beam="2">  1       21 0.89414866E-01 0.40855821E+03</pdfrwt>
<totfact> 0.46162169E+03</totfact>
</mgrwt>
</event>
<event>
 4    1  0.4821294E-002  0.4270764E+03  0.7818608E-02  0.1034788E+00
         21   -1    0    0  503  502  0.00000000000E+00  0.00000000000E+00  0.11750637303E+04  0.11750637303E+04  0.00000000000E+00 0. -1.
         21   -1    0    0  501  503 -0.00000000000E+00 -0.00000000000E+00 -0.15870789367E+03  0.15870789367E+03  0.00000000000E+00 0. -1.
    9000007    1    1    2  501    0  0.14882061491E+03 -0.15705296304E+02  0.40932503364E+03  0.59155829376E+03  0.40000000000E+03 0. -1.
   -9000007    1    1    2    0  502 -0.14882061491E+03  0.15705296304E+02  0.60703080301E+03  0.74221333022E+03  0.40000000000E+03 0. -1.
<mgrwt>
<rscale>  2 0.42707638E+03</rscale>
<asrwt>0</asrwt>
<pdfrwt beam="1">  1       21 0.18077903E+00 0.42707638E+03</pdfrwt>
<pdfrwt beam="2">  1       21 0.24416600E-01 0.42707638E+03</pdfrwt>
<totfact> 0.24531126E+03</totfact>
</mgrwt>
</event>
<event>
 4    1  0.4821294E-002  0.4044435E+03  0.7818608E-02  0.1042252E+00
         21   -1    0    0  503  502  0.00000000000E+00  0.00000000000E+00  0.66306572513E+03  0.66306572513E+03  0.00000000000E+00 0. -1.
         21   -1    0    0  501  503 -0.00000000000E+00 -0.00000000000E+00 -0.93848385172E+03  0.93848385172E+03  0.00000000000E+00 0. -1.
    9000007    1    1    2  501    0 -0.39536565695E+02  0.44848312992E+02 -0.82522694733E+03  0.91900708692E+03  0.40000000000E+03 0. -1.
   -9000007    1    1    2    0  502  0.39536565695E+02 -0.44848312992E+02  0.54980882074E+03  0.68254248993E+03  0.40000000000E+03 0. -1.
<mgrwt>
<rscale>  2 0.40444346E+03</rscale>
<asrwt>0</asrwt>
<pdfrwt beam="1">  1       21 0.10201011E+00 0.40444346E+03</pdfrwt>
<pdfrwt beam="2">  1       21 0.14438213E+00 0.40444346E+03</pdfrwt>
<totfact> 0.21674701E+02</totfact>
</mgrwt>
</event>
<event>
 4    1  0.4821294E-002  0.4070471E+03  0.7818608E-02  0.1041366E+00
         21   -1    0    0  501  502  0.00000000000E+00  0.00000000000E+00  0.66629375980E+03  0.66629375980E+03  0.00000000000E+00 0.  1.
         21   -1    0    0  502  503 -0.00000000000E+00 -0.00000000000E+00 -0.35583580644E+03  0.35583580644E+03  0.00000000000E+00 0.  1.
    9000007    1    1    2  501    0  0.73350890712E+02 -0.17521942649E+02  0.43569414861E+03  0.59625226437E+03  0.40000000000E+03 0.  1.
   -9000007    1    1    2    0  503 -0.73350890712E+02  0.17521942649E+02 -0.12523619525E+03  0.42587730186E+03  0.40000000000E+03 0.  1.
<mgrwt>
<rscale>  2 0.40704714E+03</rscale>
<asrwt>0</asrwt>
<pdfrwt beam="1">  1       21 0.10250673E+00 0.40704714E+03</pdfrwt>
<pdfrwt beam="2">  1       21 0.54743970E-01 0.40704714E+03</pdfrwt>
<totfact> 0.21402270E+03</totfact>
</mgrwt>
</event>
<event>
 4    1  0.4821294E-002  0.5571160E+03  0.7818608E-02  0.9998602E-01
         21   -1    0    0  501  502  0.00000000000E+00  0.00000000000E+00  0.99959926021E+03  0.99959926021E+03  0.00000000000E+00 0.  1.
         21   -1    0    0  502  503 -0.00000000000E+00 -0.00000000000E+00 -0.72143381503E+03  0.72143381503E+03  0.00000000000E+00 0. -1.
    9000007    1    1    2  501    0  0.15858052116E+03 -0.35387911743E+03  0.78853241821E+03  0.96548515577E+03  0.40000000000E+03 0.  1.
   -9000007    1    1    2    0  503 -0.15858052116E+03  0.35387911743E+03 -0.51036697303E+03  0.75554791947E+03  0.40000000000E+03 0. -1.
<mgrwt>
<rscale>  2 0.55711598E+03</rscale>
<asrwt>0</asrwt>
<pdfrwt beam="1">  1       21 0.15378450E+00 0.55711598E+03</pdfrwt>
<pdfrwt beam="2">  1       21 0.11098982E+00 0.55711598E+03</pdfrwt>
<totfact> 0.13758875E+02</totfact>
</mgrwt>
</event>
<event>
 4    1  0.4821294E-002  0.4050001E+03  0.7818608E-02  0.1042062E+00
         21   -1    0    0  501  502  0.00000000000E+00  0.00000000000E+00  0.34502274410E+03  0.34502274410E+03  0.00000000000E+00 0. -1.
         21   -1    0    0  502  503 -0.00000000000E+00 -0.00000000000E+00 -0.93795792320E+03  0.93795792320E+03  0.00000000000E+00 0. -1.
    9000007    1    1    2  501    0 -0.60119597821E+02 -0.20266834284E+02  0.15401678780E+03  0.43329699000E+03  0.40000000000E+03 0. -1.
   -9000007    1    1    2    0  503  0.60119597821E+02  0.20266834284E+02 -0.74695196690E+03  0.84968367730E+03  0.40000000000E+03 0. -1.
<mgrwt>
<rscale>  2 0.40500014E+03</rscale>
<asrwt>0</asrwt>
<pdfrwt beam="1">  1       21 0.53080422E-01 0.40500014E+03</pdfrwt>
<pdfrwt beam="2">  1       21 0.14430122E+00 0.40500014E+03</pdfrwt>
<totfact> 0.95855061E+02</totfact>
</mgrwt>
</event>
<event>
 4    1  0.4821294E-002  0.5612716E+03  0.7818608E-02  0.9989181E-01
         21   -1    0    0  501  502  0.00000000000E+00  0.00000000000E+00  0.61105450194E+03  0.61105450194E+03  0.00000000000E+00 0.  1.
         21   -1    0    0  502  503 -0.00000000000E+00 -0.00000000000E+00 -0.61451258340E+03  0.61451258340E+03  0.00000000000E+00 0.  1.
    9000007    1    1    2  501    0  0.30143440321E+03 -0.25330442728E+03 -0.24764636372E+03  0.61347742728E+03  0.40000000000E+03 0.  1.
   -9000007    1    1    2    0  503 -0.30143440321E+03  0.25330442728E+03  0.24418828226E+03  0.61208965807E+03  0.40000000000E+03 0.  1.
<mgrwt>
<rscale>  2 0.56127162E+03</rscale>
<asrwt>0</asrwt>
<pdfrwt beam="1">  1       21 0.94008384E-01 0.56127162E+03</pdfrwt>
<pdfrwt beam="2">  1       21 0.94540398E-01 0.56127162E+03</pdfrwt>
<totfact> 0.72034662E+02</totfact>
</mgrwt>
</event>
<event>
 4    1  0.4821294E-002  0.4785841E+03  0.7818608E-02  0.1019525E+00
         21   -1    0    0  503  502  0.00000000000E+00  0.00000000000E+00  0.12828077277E+04  0.12828077277E+04  0.00000000000E+00 0. -1.
         21   -1    0    0  501  503 -0.00000000000E+00 -0.00000000000E+00 -0.25088466426E+03  0.25088466426E+03  0.00000000000E+00 0.  1.
    9000007    1    1    2  501    0 -0.23119315144E+03  0.12486968037E+03  0.10419546740E+03  0.48979526925E+03  0.40000000000E+03 0.  1.
   -9000007    1    1    2    0  502  0.23119315144E+03 -0.12486968037E+03  0.92772759602E+03  0.10438971227E+04  0.40000000000E+03 0. -1.
<mgrwt>
<rscale>  2 0.47858407E+03</rscale>
<asrwt>0</asrwt>
<pdfrwt beam="1">  1       21 0.19735503E+00 0.47858407E+03</pdfrwt>
<pdfrwt beam="2">  1       21 0.38597641E-01 0.47858407E+03</pdfrwt>
<totfact> 0.74088335E+02</totfact>
</mgrwt>
</event>
<event>
 4    1  0.4821294E-002  0.5229383E+03  0.7818608E-02  0.1007959E+00
         21   -1    0    0  503  502  0.00000000000E+00  0.00000000000E+00  0.48780863331E+03  0.48780863331E+03  0.00000000000E+00 0.  1.
         21   -1    0    0  501  503 -0.00000000000E+00 -0.00000000000E+00 -0.10328561327E+04  0.10328561327E+04  0.00000000000E+00 0. -1.
    9000007    1    1    2  501    0 -0.23678676767E+03 -0.23957572897E+03 -0.78665420756E+03  0.94461068464E+03  0.40000000000E+03 0.  1.
   -9000007    1    1    2    0  502  0.23678676767E+03  0.23957572897E+03  0.24160670815E+03  0.57605408139E+03  0.40000000000E+03 0.  1.
<mgrwt>
<rscale>  2 0.52293834E+03</rscale>
<asrwt>0</asrwt>
<pdfrwt beam="1">  1       21 0.75047482E-01 0.52293834E+03</pdfrwt>
<pdfrwt beam="2">  1       21 0.15890094E+00 0.52293834E+03</pdfrwt>
<totfact> 0.32485795E+02</totfact>
</mgrwt>
</event>
<event>
 4    1  0.4821294E-002  0.5799157E+03  0.7818608E-02  0.9947973E-01
         21   -1    0    0  501  502  0.00000000000E+00  0.00000000000E+00  0.22536252241E+04  0.22536252241E+04  0.00000000000E+00 0. -1.
         21   -1    0    0  502  503 -0.00000000000E+00 -0.00000000000E+00 -0.15736183030E+03  0.15736183030E+03  0.00000000000E+00 0.  1.
    9000007    1    1    2  501    0 -0.41979735114E+03 -0.85109544303E+01  0.13222154298E+04  0.14437991187E+04  0.40000000000E+03 0. -1.
   -9000007    1    1    2    0  503  0.41979735114E+03  0.85109544303E+01  0.77404796393E+03  0.96718793563E+03  0.40000000000E+03 0. -1.
<mgrwt>
<rscale>  2 0.57991573E+03</rscale>
<asrwt>0</asrwt>
<pdfrwt beam="1">  1       21 0.34671155E+00 0.57991573E+03</pdfrwt>
<pdfrwt beam="2">  1       21 0.24209514E-01 0.57991573E+03</pdfrwt>
<totfact> 0.21209160E+02</totfact>
</mgrwt>
</event>
<event>
 4    1  0.4821294E-002  0.5758328E+03  0.7818608E-02  0.9956854E-01
         21   -1    0    0  503  502  0.00000000000E+00  0.00000000000E+00  0.13705166162E+04  0.13705166162E+04  0.00000000000E+00 0.  1.
         21   -1    0    0  501  503 -0.00000000000E+00 -0.00000000000E+00 -0.24928610221E+03  0.24928610221E+03  0.00000000000E+00 0.  1.
    9000007    1    1    2  501    0  0.51206998093E+01 -0.41419469644E+03  0.42158896055E+03  0.71366709311E+03  0.40000000000E+03 0.  1.
   -9000007    1    1    2    0  502 -0.51206998093E+01  0.41419469644E+03  0.69964155342E+03  0.90613562528E+03  0.40000000000E+03 0.  1.
<mgrwt>
<rscale>  2 0.57583285E+03</rscale>
<asrwt>0</asrwt>
<pdfrwt beam="1">  1       21 0.21084870E+00 0.57583285E+03</pdfrwt>
<pdfrwt beam="2">  1       21 0.38351709E-01 0.57583285E+03</pdfrwt>
<totfact> 0.58693005E+02</totfact>
</mgrwt>
</event>
<event>
 4    1  0.4821294E-002  0.5377571E+03  0.7818608E-02  0.1004368E+00
         21   -1    0    0  503  502  0.00000000000E+00  0.00000000000E+00  0.45795906153E+03  0.45795906153E+03  0.00000000000E+00 0. -1.
         21   -1    0    0  501  503 -0.00000000000E+00 -0.00000000000E+00 -0.64919072896E+03  0.64919072896E+03  0.00000000000E+00 0. -1.
    9000007    1    1    2  501    0  0.17443009590E+03 -0.31425597121E+03 -0.18710247378E+03  0.56937686069E+03  0.40000000000E+03 0. -1.
   -9000007    1    1    2    0  502 -0.17443009590E+03  0.31425597121E+03 -0.41291936533E+01  0.53777292981E+03  0.40000000000E+03 0. -1.
<mgrwt>
<rscale>  2 0.53775708E+03</rscale>
<asrwt>0</asrwt>
<pdfrwt beam="1">  1       21 0.70455240E-01 0.53775708E+03</pdfrwt>
<pdfrwt beam="2">  1       21 0.99875496E-01 0.53775708E+03</pdfrwt>
<totfact> 0.12451372E+03</totfact>
</mgrwt>
</event>
<event>
 4    1  0.4821294E-002  0.4906623E+03  0.7818608E-02  0.1016245E+00
         21   -1    0    0  503  502  0.00000000000E+00  0.00000000000E+00  0.15056369983E+03  0.15056369983E+03  0.00000000000E+00 0. -1.
         21   -1    0    0  501  503 -0.00000000000E+00 -0.00000000000E+00 -0.16767229802E+04  0.16767229802E+04  0.00000000000E+00 0. -1.
    9000007    1    1    2  501    0 -0.23757164596E+03 -0.15591395425E+03 -0.56635617868E+03  0.74933888810E+03  0.40000000000E+03 0. -1.
   -9000007    1    1    2    0  502  0.23757164596E+03  0.15591395425E+03 -0.95980310170E+03  0.10779477919E+04  0.40000000000E+03 0. -1.
<mgrwt>
<rscale>  2 0.49066225E+03</rscale>
<asrwt>0</asrwt>
<pdfrwt beam="1">  1       21 0.23163648E-01 0.49066225E+03</pdfrwt>
<pdfrwt beam="2">  1       21 0.25795737E+00 0.49066225E+03</pdfrwt>
<totfact> 0.83723735E+02</totfact>
</mgrwt>
</event>
<event>
 4    1  0.4821294E-002  0.5158584E+03  0.7818608E-02  0.1009721E+00
         21   -1    0    0  503  502  0.00000000000E+00  0.00000000000E+00  0.57427505168E+03  0.57427505168E+03  0.00000000000E+00 0.  1.
         21   -1    0    0  501  503 -0.00000000000E+00 -0.00000000000E+00 -0.46592843022E+03  0.46592843022E+03  0.00000000000E+00 0.  1.
    9000007    1    1    2  501    0 -0.22536691769E+03 -0.23520125489E+03  0.15738664984E+02  0.51609842421E+03  0.40000000000E+03 0.  1.
   -9000007    1    1    2    0  502  0.22536691769E+03  0.23520125489E+03  0.92607956476E+02  0.52410505769E+03  0.40000000000E+03 0.  1.
<mgrwt>
<rscale>  2 0.51585839E+03</rscale>
<asrwt>0</asrwt>
<pdfrwt beam="1">  1       21 0.88350008E-01 0.51585839E+03</pdfrwt>
<pdfrwt beam="2">  1       21 0.71681297E-01 0.51585839E+03</pdfrwt>
<totfact> 0.16189293E+03</totfact>
</mgrwt>
</event>
<event>
 4    1  0.4821294E-002  0.4492158E+03  0.7818608E-02  0.1027956E+00
         21   -1    0    0  503  502  0.00000000000E+00  0.00000000000E+00  0.79650687645E+03  0.79650687645E+03  0.00000000000E+00 0.  1.
         21   -1    0    0  501  503 -0.00000000000E+00 -0.00000000000E+00 -0.47572615879E+03  0.47572615879E+03  0.00000000000E+00 0. -1.
    9000007    1    1    2  501    0  0.76509594839E+02  0.18958131859E+03 -0.27452279354E+03  0.52645755635E+03  0.40000000000E+03 0. -1.
   -9000007    1    1    2    0  502 -0.76509594839E+02 -0.18958131859E+03  0.59530351120E+03  0.74577547889E+03  0.40000000000E+03 0.  1.
<mgrwt>
<rscale>  2 0.44921575E+03</rscale>
<asrwt>0</asrwt>
<pdfrwt beam="1">  1       21 0.12253952E+00 0.44921575E+03</pdfrwt>
<pdfrwt beam="2">  1       21 0.73188640E-01 0.44921575E+03</pdfrwt>
<totfact> 0.70924203E+02</totfact>
</mgrwt>
</event>
<event>
 4    1  0.4821294E-002  0.4181510E+03  0.7818608E-02  0.1037670E+00
         21   -1    0    0  503  502  0.00000000000E+00  0.00000000000E+00  0.15299393703E+04  0.15299393703E+04  0.00000000000E+00 0.  1.
         21   -1    0    0  501  503 -0.00000000000E+00 -0.00000000000E+00 -0.13017420492E+03  0.13017420492E+03  0.00000000000E+00 0.  1.
    9000007    1    1    2  501    0 -0.46862299914E+02  0.11249094745E+03  0.40989059910E+03  0.58554298872E+03  0.40000000000E+03 0.  1.
   -9000007    1    1    2    0  502  0.46862299914E+02 -0.11249094745E+03  0.98987456627E+03  0.10745705865E+04  0.40000000000E+03 0.  1.
<mgrwt>
<rscale>  2 0.41815104E+03</rscale>
<asrwt>0</asrwt>
<pdfrwt beam="1">  1       21 0.23537528E+00 0.41815104E+03</pdfrwt>
<pdfrwt beam="2">  1       21 0.20026802E-01 0.41815104E+03</pdfrwt>
<totfact> 0.15798001E+03</totfact>
</mgrwt>
</event>
<event>
 4    1  0.4821294E-002  0.4901337E+03  0.7818608E-02  0.1016387E+00
         21   -1    0    0  501  502  0.00000000000E+00  0.00000000000E+00  0.53053498869E+03  0.53053498869E+03  0.00000000000E+00 0. -1.
         21   -1    0    0  502  503 -0.00000000000E+00 -0.00000000000E+00 -0.76580574288E+03  0.76580574288E+03  0.00000000000E+00 0. -1.
    9000007    1    1    2  501    0 -0.28313269504E+03 -0.81832077477E+01  0.29674547506E+03  0.57296506426E+03  0.40000000000E+03 0. -1.
   -9000007    1    1    2    0  503  0.28313269504E+03  0.81832077477E+01 -0.53201622925E+03  0.72337566732E+03  0.40000000000E+03 0. -1.
<mgrwt>
<rscale>  2 0.49013374E+03</rscale>
<asrwt>0</asrwt>
<pdfrwt beam="1">  1       21 0.81620767E-01 0.49013374E+03</pdfrwt>
<pdfrwt beam="2">  1       21 0.11781627E+00 0.49013374E+03</pdfrwt>
<totfact> 0.59979507E+02</totfact>
</mgrwt>
</event>
<event>
 4    1  0.4821294E-002  0.4487641E+03  0.7818608E-02  0.1028091E+00
         21   -1    0    0  503  502  0.00000000000E+00  0.00000000000E+00  0.93811867409E+03  0.93811867409E+03  0.00000000000E+00 0. -1.
         21   -1    0    0  501  503 -0.00000000000E+00 -0.00000000000E+00 -0.87242569242E+03  0.87242569242E+03  0.00000000000E+00 0. -1.
    9000007    1    1    2  501    0  0.18659459289E+03  0.81065615873E+02 -0.75319617468E+03  0.87675176289E+03  0.40000000000E+03 0. -1.
   -9000007    1    1    2    0  502 -0.18659459289E+03 -0.81065615873E+02  0.81888915635E+03  0.93379260361E+03  0.40000000000E+03 0. -1.
<mgrwt>
<rscale>  2 0.44876405E+03</rscale>
<asrwt>0</asrwt>
<pdfrwt beam="1">  1       21 0.14432595E+00 0.44876405E+03</pdfrwt>
<pdfrwt beam="2">  1       21 0.13421934E+00 0.44876405E+03</pdfrwt>
<totfact> 0.10597931E+02</totfact>
</mgrwt>
</event>
<event>
 4    1  0.4821294E-002  0.4356815E+03  0.7818608E-02  0.1032080E+00
         21   -1    0    0  503  502  0.00000000000E+00  0.00000000000E+00  0.54048988935E+03  0.54048988935E+03  0.00000000000E+00 0.  1.
         21   -1    0    0  501  503 -0.00000000000E+00 -0.00000000000E+00 -0.36098892885E+03  0.36098892885E+03  0.00000000000E+00 0.  1.
    9000007    1    1    2  501    0 -0.17265300921E+03  0.30555567069E+01  0.16398637218E+03  0.46552113623E+03  0.40000000000E+03 0.  1.
   -9000007    1    1    2    0  502  0.17265300921E+03 -0.30555567069E+01  0.15514588314E+02  0.43595768197E+03  0.40000000000E+03 0.  1.
<mgrwt>
<rscale>  2 0.43568153E+03</rscale>
<asrwt>0</asrwt>
<pdfrwt beam="1">  1       21 0.83152291E-01 0.43568153E+03</pdfrwt>
<pdfrwt beam="2">  1       21 0.55536758E-01 0.43568153E+03</pdfrwt>
<totfact> 0.33765293E+03</totfact>
</mgrwt>
</event>
<event>
 4    1  0.4821294E-002  0.4084922E+03  0.7818608E-02  0.1040878E+00
         21   -1    0    0  503  502  0.00000000000E+00  0.00000000000E+00  0.78263272901E+03  0.78263272901E+03  0.00000000000E+00 0. -1.
         21   -1    0    0  501  503 -0.00000000000E+00 -0.00000000000E+00 -0.24615170560E+03  0.24615170560E+03  0.00000000000E+00 0. -1.
    9000007    1    1    2  501    0  0.55900559803E+02 -0.61163632583E+02  0.80066438386E+02  0.41626493618E+03  0.40000000000E+03 0. -1.
   -9000007    1    1    2    0  502 -0.55900559803E+02  0.61163632583E+02  0.45641458502E+03  0.61251949843E+03  0.40000000000E+03 0. -1.
<mgrwt>
<rscale>  2 0.40849218E+03</rscale>
<asrwt>0</asrwt>
<pdfrwt beam="1">  1       21 0.12040503E+00 0.40849218E+03</pdfrwt>
<pdfrwt beam="2">  1       21 0.37869494E-01 0.40849218E+03</pdfrwt>
<totfact> 0.31043689E+03</totfact>
</mgrwt>
</event>
<event>
 4    1  0.4821294E-002  0.4179626E+03  0.7818608E-02  0.1037731E+00
         21   -1    0    0  503  502  0.00000000000E+00  0.00000000000E+00  0.17321343761E+04  0.17321343761E+04  0.00000000000E+00 0. -1.
         21   -1    0    0  501  503 -0.00000000000E+00 -0.00000000000E+00 -0.18087999799E+03  0.18087999799E+03  0.00000000000E+00 0. -1.
    9000007    1    1    2  501    0 -0.33840016759E+02 -0.11639423221E+03  0.13940562685E+03  0.44059810806E+03  0.40000000000E+03 0. -1.
   -9000007    1    1    2    0  502  0.33840016759E+02  0.11639423221E+03  0.14118487512E+04  0.14724162660E+04  0.40000000000E+03 0. -1.
<mgrwt>
<rscale>  2 0.41796263E+03</rscale>
<asrwt>0</asrwt>
<pdfrwt beam="1">  1       21 0.26648220E+00 0.41796263E+03</pdfrwt>
<pdfrwt beam="2">  1       21 0.27827693E-01 0.41796263E+03</pdfrwt>
<totfact> 0.53974870E+02</totfact>
</mgrwt>
</event>
<event>
 4    1  0.4821294E-002  0.5446959E+03  0.7818608E-02  0.1002729E+00
         21   -1    0    0  503  502  0.00000000000E+00  0.00000000000E+00  0.69295029040E+03  0.69295029040E+03  0.00000000000E+00 0.  1.
         21   -1    0    0  501  503 -0.00000000000E+00 -0.00000000000E+00 -0.50331250700E+03  0.50331250700E+03  0.00000000000E+00 0. -1.
    9000007    1    1    2  501    0  0.36273836749E+02  0.36793732157E+03  0.32594510010E+03  0.63477072405E+03  0.40000000000E+03 0. -1.
   -9000007    1    1    2    0  502 -0.36273836749E+02 -0.36793732157E+03 -0.13630731670E+03  0.56149207334E+03  0.40000000000E+03 0.  1.
<mgrwt>
<rscale>  2 0.54469594E+03</rscale>
<asrwt>0</asrwt>
<pdfrwt beam="1">  1       21 0.10660774E+00 0.54469594E+03</pdfrwt>
<pdfrwt beam="2">  1       21 0.77432693E-01 0.54469594E+03</pdfrwt>
<totfact> 0.85250665E+02</totfact>
</mgrwt>
</event>
<event>
 4    1  0.4821294E-002  0.4211679E+03  0.7818608E-02  0.1036687E+00
         21   -1    0    0  501  502  0.00000000000E+00  0.00000000000E+00  0.10463291451E+04  0.10463291451E+04  0.00000000000E+00 0.  1.
         21   -1    0    0  502  503 -0.00000000000E+00 -0.00000000000E+00 -0.22792513158E+03  0.22792513158E+03  0.00000000000E+00 0.  1.
    9000007    1    1    2  501    0  0.90179189631E+01 -0.13153364103E+03  0.73169818090E+03  0.84425390110E+03  0.40000000000E+03 0.  1.
   -9000007    1    1    2    0  503 -0.90179189631E+01  0.13153364103E+03  0.86705832610E+02  0.43000037557E+03  0.40000000000E+03 0.  1.
<mgrwt>
<rscale>  2 0.42116793E+03</rscale>
<asrwt>0</asrwt>
<pdfrwt beam="1">  1       21 0.16097371E+00 0.42116793E+03</pdfrwt>
<pdfrwt beam="2">  1       21 0.35065405E-01 0.42116793E+03</pdfrwt>
<totfact> 0.16723487E+03</totfact>
</mgrwt>
</event>
<event>
 4    1  0.4821294E-002  0.4703825E+03  0.7818608E-02  0.1021812E+00
         21   -1    0    0  501  502  0.00000000000E+00  0.00000000000E+00  0.60174345026E+03  0.60174345026E+03  0.00000000000E+00 0. -1.
         21   -1    0    0  502  503 -0.00000000000E+00 -0.00000000000E+00 -0.10067377180E+04  0.10067377180E+04  0.00000000000E+00 0. -1.
    9000007    1    1    2  501    0 -0.11897332104E+03  0.21703690472E+03  0.43825763970E+03  0.64290701340E+03  0.40000000000E+03 0. -1.
   -9000007    1    1    2    0  503  0.11897332104E+03 -0.21703690472E+03 -0.84325190744E+03  0.96557415486E+03  0.40000000000E+03 0. -1.
<mgrwt>
<rscale>  2 0.47038247E+03</rscale>
<asrwt>0</asrwt>
<pdfrwt beam="1">  1       21 0.92575915E-01 0.47038247E+03</pdfrwt>
<pdfrwt beam="2">  1       21 0.15488273E+00 0.47038247E+03</pdfrwt>
<totfact> 0.21869924E+02</totfact>
</mgrwt>
</event>
<event>
 4    1  0.4821294E-002  0.4853096E+03  0.7818608E-02  0.1017686E+00
         21   -1    0    0  501  502  0.00000000000E+00  0.00000000000E+00  0.19907995707E+04  0.19907995707E+04  0.00000000000E+00 0.  1.
         21   -1    0    0  502  503 -0.00000000000E+00 -0.00000000000E+00 -0.12013070575E+03  0.12013070575E+03  0.00000000000E+00 0.  1.
    9000007    1    1    2  501    0 -0.25710847081E+03 -0.97060127521E+02  0.80528762726E+03  0.94021997253E+03  0.40000000000E+03 0.  1.
   -9000007    1    1    2    0  503  0.25710847081E+03  0.97060127521E+02  0.10653812377E+04  0.11707103039E+04  0.40000000000E+03 0.  1.
<mgrwt>
<rscale>  2 0.48530963E+03</rscale>
<asrwt>0</asrwt>
<pdfrwt beam="1">  1       21 0.30627683E+00 0.48530963E+03</pdfrwt>
<pdfrwt beam="2">  1       21 0.18481648E-01 0.48530963E+03</pdfrwt>
<totfact> 0.65898408E+02</totfact>
</mgrwt>
</event>
<event>
 4    1  0.4821294E-002  0.5979514E+03  0.7818608E-02  0.9909665E-01
         21   -1    0    0  503  502  0.00000000000E+00  0.00000000000E+00  0.35164513946E+03  0.35164513946E+03  0.00000000000E+00 0. -1.
         21   -1    0    0  501  503 -0.00000000000E+00 -0.00000000000E+00 -0.12987951272E+04  0.12987951272E+04  0.00000000000E+00 0. -1.
    9000007    1    1    2  501    0 -0.43291262423E+03  0.10066034582E+03 -0.89040350799E+02  0.60454448100E+03  0.40000000000E+03 0.  1.
   -9000007    1    1    2    0  502  0.43291262423E+03 -0.10066034582E+03 -0.85810963693E+03  0.10458957856E+04  0.40000000000E+03 0.  1.
<mgrwt>
<rscale>  2 0.59795137E+03</rscale>
<asrwt>0</asrwt>
<pdfrwt beam="1">  1       21 0.54099253E-01 0.59795137E+03</pdfrwt>
<pdfrwt beam="2">  1       21 0.19981463E+00 0.59795137E+03</pdfrwt>
<totfact> 0.33341976E+02</totfact>
</mgrwt>
</event>
<event>
 4    1  0.4821294E-002  0.4274417E+03  0.7818608E-02  0.1034671E+00
         21   -1    0    0  501  502  0.00000000000E+00  0.00000000000E+00  0.50478270795E+03  0.50478270795E+03  0.00000000000E+00 0. -1.
         21   -1    0    0  502  503 -0.00000000000E+00 -0.00000000000E+00 -0.45993031251E+03  0.45993031251E+03  0.00000000000E+00 0. -1.
    9000007    1    1    2  501    0  0.13424014804E+03  0.68454145974E+02  0.24505957828E+03  0.49270740237E+03  0.40000000000E+03 0. -1.
   -9000007    1    1    2    0  503 -0.13424014804E+03 -0.68454145974E+02 -0.20020718284E+03  0.47200561809E+03  0.40000000000E+03 0. -1.
<mgrwt>
<rscale>  2 0.42744168E+03</rscale>
<asrwt>0</asrwt>
<pdfrwt beam="1">  1       21 0.77658878E-01 0.42744168E+03</pdfrwt>
<pdfrwt beam="2">  1       21 0.70758510E-01 0.42744168E+03</pdfrwt>
<totfact> 0.23240467E+03</totfact>
</mgrwt>
</event>
<event>
 4    1  0.4821294E-002  0.4881453E+03  0.7818608E-02  0.1016920E+00
         21   -1    0    0  503  502  0.00000000000E+00  0.00000000000E+00  0.35538784115E+04  0.35538784115E+04  0.00000000000E+00 0. -1.
         21   -1    0    0  501  503 -0.00000000000E+00 -0.00000000000E+00 -0.77307239119E+02  0.77307239119E+02  0.00000000000E+00 0. -1.
    9000007    1    1    2  501    0 -0.13402649211E+03 -0.24560688596E+03  0.10769319141E+04  0.11823993364E+04  0.40000000000E+03 0. -1.
   -9000007    1    1    2    0  502  0.13402649211E+03  0.24560688596E+03  0.23996392582E+04  0.24487863142E+04  0.40000000000E+03 0. -1.
<mgrwt>
<rscale>  2 0.48814531E+03</rscale>
<asrwt>0</asrwt>
<pdfrwt beam="1">  1       21 0.54675040E+00 0.48814531E+03</pdfrwt>
<pdfrwt beam="2">  1       21 0.11893424E-01 0.48814531E+03</pdfrwt>
<totfact> 0.37437705E+01</totfact>
</mgrwt>
</event>
<event>
 4    1  0.4821294E-002  0.4166692E+03  0.7818608E-02  0.1038156E+00
         21   -1    0    0  501  502  0.00000000000E+00  0.00000000000E+00  0.54497945379E+03  0.54497945379E+03  0.00000000000E+00 0. -1.
         21   -1    0    0  502  503 -0.00000000000E+00 -0.00000000000E+00 -0.36588173062E+03  0.36588173062E+03  0.00000000000E+00 0. -1.
    9000007    1    1    2  501    0  0.57896234763E+02 -0.10129776475E+03  0.25332241760E+03  0.48763250343E+03  0.40000000000E+03 0. -1.
   -9000007    1    1    2    0  503 -0.57896234763E+02  0.10129776475E+03 -0.74224694425E+02  0.42322868098E+03  0.40000000000E+03 0. -1.
<mgrwt>
<rscale>  2 0.41666919E+03</rscale>
<asrwt>0</asrwt>
<pdfrwt beam="1">  1       21 0.83842993E-01 0.41666919E+03</pdfrwt>
<pdfrwt beam="2">  1       21 0.56289497E-01 0.41666919E+03</pdfrwt>
<totfact> 0.32397185E+03</totfact>
</mgrwt>
</event>
<event>
 4    1  0.4821294E-002  0.5337034E+03  0.7818608E-02  0.1005338E+00
         21   -1    0    0  501  502  0.00000000000E+00  0.00000000000E+00  0.59752076634E+03  0.59752076634E+03  0.00000000000E+00 0. -1.
         21   -1    0    0  502  503 -0.00000000000E+00 -0.00000000000E+00 -0.76737588049E+03  0.76737588049E+03  0.00000000000E+00 0. -1.
    9000007    1    1    2  501    0  0.35251415435E+03  0.23939018093E+02  0.33509126391E+03  0.63017891170E+03  0.40000000000E+03 0. -1.
   -9000007    1    1    2    0  503 -0.35251415435E+03 -0.23939018093E+02 -0.50494637806E+03  0.73471773513E+03  0.40000000000E+03 0. -1.
<mgrwt>
<rscale>  2 0.53370339E+03</rscale>
<asrwt>0</asrwt>
<pdfrwt beam="1">  1       21 0.91926272E-01 0.53370339E+03</pdfrwt>
<pdfrwt beam="2">  1       21 0.11805783E+00 0.53370339E+03</pdfrwt>
<totfact> 0.44327881E+02</totfact>
</mgrwt>
</event>
<event>
 4    1  0.4821294E-002  0.4887258E+03  0.7818608E-02  0.1016764E+00
         21   -1    0    0  503  502  0.00000000000E+00  0.00000000000E+00  0.75628849294E+03  0.75628849294E+03  0.00000000000E+00 0.  1.
         21   -1    0    0  501  503 -0.00000000000E+00 -0.00000000000E+00 -0.54815535812E+03  0.54815535812E+03  0.00000000000E+00 0.  1.
    9000007    1    1    2  501    0 -0.27639803182E+03  0.49568239615E+02 -0.32055195003E+03  0.58447107289E+03  0.40000000000E+03 0.  1.
   -9000007    1    1    2    0  502  0.27639803182E+03 -0.49568239615E+02  0.52868508485E+03  0.71997277818E+03  0.40000000000E+03 0.  1.
<mgrwt>
<rscale>  2 0.48872577E+03</rscale>
<asrwt>0</asrwt>
<pdfrwt beam="1">  1       21 0.11635208E+00 0.48872577E+03</pdfrwt>
<pdfrwt beam="2">  1       21 0.84331594E-01 0.48872577E+03</pdfrwt>
<totfact> 0.57387547E+02</totfact>
</mgrwt>
</event>
<event>
 4    1  0.4821294E-002  0.5384088E+03  0.7818608E-02  0.1004213E+00
         21   -1    0    0  503  502  0.00000000000E+00  0.00000000000E+00  0.10960330339E+04  0.10960330339E+04  0.00000000000E+00 0.  1.
         21   -1    0    0  501  503 -0.00000000000E+00 -0.00000000000E+00 -0.27093378943E+03  0.27093378943E+03  0.00000000000E+00 0.  1.
    9000007    1    1    2  501    0 -0.28227552478E+02 -0.35928716755E+03  0.51799867033E+03  0.74713230819E+03  0.40000000000E+03 0.  1.
   -9000007    1    1    2    0  502  0.28227552478E+02  0.35928716755E+03  0.30710057410E+03  0.61983451509E+03  0.40000000000E+03 0.  1.
<mgrwt>
<rscale>  2 0.53840883E+03</rscale>
<asrwt>0</asrwt>
<pdfrwt beam="1">  1       21 0.16862046E+00 0.53840883E+03</pdfrwt>
<pdfrwt beam="2">  1       21 0.41682122E-01 0.53840883E+03</pdfrwt>
<totfact> 0.98241273E+02</totfact>
</mgrwt>
</event>
<event>
 4    1  0.4821294E-002  0.5429631E+03  0.7818608E-02  0.1003136E+00
         21   -1    0    0  503  502  0.00000000000E+00  0.00000000000E+00  0.40366382797E+03  0.40366382797E+03  0.00000000000E+00 0. -1.
         21   -1    0    0  501  503 -0.00000000000E+00 -0.00000000000E+00 -0.22056879892E+04  0.22056879892E+04  0.00000000000E+00 0.  1.
    9000007    1    1    2  501    0 -0.31087398572E+03  0.19536189393E+03 -0.19680476795E+04  0.20415730634E+04  0.40000000000E+03 0.  1.
   -9000007    1    1    2    0  502  0.31087398572E+03 -0.19536189393E+03  0.16602351824E+03  0.56777875375E+03  0.40000000000E+03 0. -1.
<mgrwt>
<rscale>  2 0.54296308E+03</rscale>
<asrwt>0</asrwt>
<pdfrwt beam="1">  1       21 0.62102127E-01 0.54296308E+03</pdfrwt>
<pdfrwt beam="2">  1       21 0.33933661E+00 0.54296308E+03</pdfrwt>
<totfact> 0.34251448E+01</totfact>
</mgrwt>
</event>
<event>
 4    1  0.4821294E-002  0.4401983E+03  0.7818608E-02  0.1030686E+00
         21   -1    0    0  503  502  0.00000000000E+00  0.00000000000E+00  0.64899395576E+03  0.64899395576E+03  0.00000000000E+00 0. -1.
         21   -1    0    0  501  503 -0.00000000000E+00 -0.00000000000E+00 -0.45802476265E+03  0.45802476265E+03  0.00000000000E+00 0.  1.
    9000007    1    1    2  501    0 -0.51612791393E+02 -0.17638209739E+03 -0.23109572036E+03  0.49717175753E+03  0.40000000000E+03 0.  1.
   -9000007    1    1    2    0  502  0.51612791393E+02  0.17638209739E+03  0.42206491347E+03  0.60984696088E+03  0.40000000000E+03 0. -1.
<mgrwt>
<rscale>  2 0.44019828E+03</rscale>
<asrwt>0</asrwt>
<pdfrwt beam="1">  1       21 0.99845224E-01 0.44019828E+03</pdfrwt>
<pdfrwt beam="2">  1       21 0.70465348E-01 0.44019828E+03</pdfrwt>
<totfact> 0.12911210E+03</totfact>
</mgrwt>
</event>
<event>
 4    1  0.4821294E-002  0.4751400E+03  0.7818608E-02  0.1020479E+00
         21   -1    0    0  503  502  0.00000000000E+00  0.00000000000E+00  0.22116926234E+03  0.22116926234E+03  0.00000000000E+00 0. -1.
         21   -1    0    0  501  503 -0.00000000000E+00 -0.00000000000E+00 -0.11191823023E+04  0.11191823023E+04  0.00000000000E+00 0. -1.
    9000007    1    1    2  501    0  0.25148410326E+03  0.50137116307E+02 -0.25025405669E+03  0.53701496955E+03  0.40000000000E+03 0. -1.
   -9000007    1    1    2    0  502 -0.25148410326E+03 -0.50137116307E+02 -0.64775898330E+03  0.80333659513E+03  0.40000000000E+03 0. -1.
<mgrwt>
<rscale>  2 0.47513996E+03</rscale>
<asrwt>0</asrwt>
<pdfrwt beam="1">  1       21 0.34026040E-01 0.47513996E+03</pdfrwt>
<pdfrwt beam="2">  1       21 0.17218190E+00 0.47513996E+03</pdfrwt>
<totfact> 0.14364878E+03</totfact>
</mgrwt>
</event>
<event>
 4    1  0.4821294E-002  0.4213227E+03  0.7818608E-02  0.1036637E+00
         21   -1    0    0  503  502  0.00000000000E+00  0.00000000000E+00  0.17872249300E+03  0.17872249300E+03  0.00000000000E+00 0. -1.
         21   -1    0    0  501  503 -0.00000000000E+00 -0.00000000000E+00 -0.10072748632E+04  0.10072748632E+04  0.00000000000E+00 0.  1.
    9000007    1    1    2  501    0 -0.90145220416E+02  0.96884896471E+02 -0.48429461047E+03  0.64191441303E+03  0.40000000000E+03 0.  1.
   -9000007    1    1    2    0  502  0.90145220416E+02 -0.96884896471E+02 -0.34425775977E+03  0.54408294321E+03  0.40000000000E+03 0. -1.
<mgrwt>
<rscale>  2 0.42132273E+03</rscale>
<asrwt>0</asrwt>
<pdfrwt beam="1">  1       21 0.27495768E-01 0.42132273E+03</pdfrwt>
<pdfrwt beam="2">  1       21 0.15496536E+00 0.42132273E+03</pdfrwt>
<totfact> 0.30161097E+03</totfact>
</mgrwt>
</event>
<event>
 4    1  0.4821294E-002  0.4870844E+03  0.7818608E-02  0.1017206E+00
         21   -1    0    0  503  502  0.00000000000E+00  0.00000000000E+00  0.24821170663E+03  0.24821170663E+03  0.00000000000E+00 0. -1.
         21   -1    0    0  501  503 -0.00000000000E+00 -0.00000000000E+00 -0.11686712567E+04  0.11686712567E+04  0.00000000000E+00 0.  1.
    9000007    1    1    2  501    0 -0.11344980639E+03 -0.25373292896E+03 -0.15790542953E+03  0.51204041098E+03  0.40000000000E+03 0. -1.
   -9000007    1    1    2    0  502  0.11344980639E+03  0.25373292896E+03 -0.76255412059E+03  0.90484255240E+03  0.40000000000E+03 0.  1.
<mgrwt>
<rscale>  2 0.48708445E+03</rscale>
<asrwt>0</asrwt>
<pdfrwt beam="1">  1       21 0.38186416E-01 0.48708445E+03</pdfrwt>
<pdfrwt beam="2">  1       21 0.17979558E+00 0.48708445E+03</pdfrwt>
<totfact> 0.99712165E+02</totfact>
</mgrwt>
</event>
<event>
 4    1  0.4821294E-002  0.5026344E+03  0.7818608E-02  0.1013094E+00
         21   -1    0    0  501  502  0.00000000000E+00  0.00000000000E+00  0.16671433387E+04  0.16671433387E+04  0.00000000000E+00 0.  1.
         21   -1    0    0  502  503 -0.00000000000E+00 -0.00000000000E+00 -0.20942358435E+03  0.20942358435E+03  0.00000000000E+00 0.  1.
    9000007    1    1    2  501    0 -0.13698440668E+03 -0.27180243605E+03  0.12221399782E+04  0.13214641192E+04  0.40000000000E+03 0.  1.
   -9000007    1    1    2    0  503  0.13698440668E+03  0.27180243605E+03  0.23557977608E+03  0.55510280383E+03  0.40000000000E+03 0.  1.
<mgrwt>
<rscale>  2 0.50263435E+03</rscale>
<asrwt>0</asrwt>
<pdfrwt beam="1">  1       21 0.25648358E+00 0.50263435E+03</pdfrwt>
<pdfrwt beam="2">  1       21 0.32219014E-01 0.50263435E+03</pdfrwt>
<totfact> 0.44375533E+02</totfact>
</mgrwt>
</event>
<event>
 4    1  0.4821294E-002  0.4798929E+03  0.7818608E-02  0.1019165E+00
         21   -1    0    0  501  502  0.00000000000E+00  0.00000000000E+00  0.42800271112E+03  0.42800271112E+03  0.00000000000E+00 0.  1.
         21   -1    0    0  502  503 -0.00000000000E+00 -0.00000000000E+00 -0.54204966650E+03  0.54204966650E+03  0.00000000000E+00 0.  1.
    9000007    1    1    2  501    0 -0.16908786986E+03  0.20422163777E+03 -0.15485658283E+02  0.48014267742E+03  0.40000000000E+03 0. -1.
   -9000007    1    1    2    0  503  0.16908786986E+03 -0.20422163777E+03 -0.98561297096E+02  0.48990970020E+03  0.40000000000E+03 0. -1.
<mgrwt>
<rscale>  2 0.47989289E+03</rscale>
<asrwt>0</asrwt>
<pdfrwt beam="1">  1       21 0.65846571E-01 0.47989289E+03</pdfrwt>
<pdfrwt beam="2">  1       21 0.83392256E-01 0.47989289E+03</pdfrwt>
<totfact> 0.22720112E+03</totfact>
</mgrwt>
</event>
<event>
 4    1  0.4821294E-002  0.5945498E+03  0.7818608E-02  0.9916778E-01
         21   -1    0    0  503  502  0.00000000000E+00  0.00000000000E+00  0.26133038993E+03  0.26133038993E+03  0.00000000000E+00 0. -1.
         21   -1    0    0  501  503 -0.00000000000E+00 -0.00000000000E+00 -0.15891723940E+04  0.15891723940E+04  0.00000000000E+00 0.  1.
    9000007    1    1    2  501    0 -0.27623377462E+03 -0.34232202147E+03 -0.10208708223E+04  0.11813833842E+04  0.40000000000E+03 0.  1.
   -9000007    1    1    2    0  502  0.27623377462E+03  0.34232202147E+03 -0.30697118168E+03  0.66911939966E+03  0.40000000000E+03 0. -1.
<mgrwt>
<rscale>  2 0.59454980E+03</rscale>
<asrwt>0</asrwt>
<pdfrwt beam="1">  1       21 0.40204676E-01 0.59454980E+03</pdfrwt>
<pdfrwt beam="2">  1       21 0.24448806E+00 0.59454980E+03</pdfrwt>
<totfact> 0.32197895E+02</totfact>
</mgrwt>
</event>
<event>
 4    1  0.4821294E-002  0.5419743E+03  0.7818608E-02  0.1003369E+00
         21   -1    0    0  501  502  0.00000000000E+00  0.00000000000E+00  0.31024514371E+04  0.31024514371E+04  0.00000000000E+00 0.  1.
         21   -1    0    0  502  503 -0.00000000000E+00 -0.00000000000E+00 -0.17692621144E+03  0.17692621144E+03  0.00000000000E+00 0.  1.
    9000007    1    1    2  501    0  0.36524920569E+03 -0.18141595159E+02  0.25807237444E+04  0.26370193675E+04  0.40000000000E+03 0.  1.
   -9000007    1    1    2    0  503 -0.36524920569E+03  0.18141595159E+02  0.34480148128E+03  0.64235828105E+03  0.40000000000E+03 0.  1.
<mgrwt>
<rscale>  2 0.54197426E+03</rscale>
<asrwt>0</asrwt>
<pdfrwt beam="1">  1       21 0.47730018E+00 0.54197426E+03</pdfrwt>
<pdfrwt beam="2">  1       21 0.27219419E-01 0.54197426E+03</pdfrwt>
<totfact> 0.24005223E+01</totfact>
</mgrwt>
</event>
<event>
 4    1  0.4821294E-002  0.4878269E+03  0.7818608E-02  0.1017006E+00
         21   -1    0    0  503  502  0.00000000000E+00  0.00000000000E+00  0.57238112321E+03  0.57238112321E+03  0.00000000000E+00 0. -1.
         21   -1    0    0  501  503 -0.00000000000E+00 -0.00000000000E+00 -0.44610493448E+03  0.44610493448E+03  0.00000000000E+00 0. -1.
    9000007    1    1    2  501    0 -0.26748509404E+03  0.80167077822E+02 -0.69670574698E+02  0.49277685100E+03  0.40000000000E+03 0. -1.
   -9000007    1    1    2    0  502  0.26748509404E+03 -0.80167077822E+02  0.19594676343E+03  0.52570920669E+03  0.40000000000E+03 0. -1.
<mgrwt>
<rscale>  2 0.48782685E+03</rscale>
<asrwt>0</asrwt>
<pdfrwt beam="1">  1       21 0.88058635E-01 0.48782685E+03</pdfrwt>
<pdfrwt beam="2">  1       21 0.68631528E-01 0.48782685E+03</pdfrwt>
<totfact> 0.18171517E+03</totfact>
</mgrwt>
</event>
<event>
 4    1  0.4821294E-002  0.4129618E+03  0.7818608E-02  0.1039382E+00
         21   -1    0    0  501  502  0.00000000000E+00  0.00000000000E+00  0.50722911838E+03  0.50722911838E+03  0.00000000000E+00 0.  1.
         21   -1    0    0  502  503 -0.00000000000E+00 -0.00000000000E+00 -0.49344777812E+03  0.49344777812E+03  0.00000000000E+00 0.  1.
    9000007    1    1    2  501    0  0.58519331089E+02  0.84338351732E+02  0.28932427542E+03  0.50422812896E+03  0.40000000000E+03 0.  1.
   -9000007    1    1    2    0  503 -0.58519331089E+02 -0.84338351732E+02 -0.27554293516E+03  0.49644876755E+03  0.40000000000E+03 0.  1.
<mgrwt>
<rscale>  2 0.41296183E+03</rscale>
<asrwt>0</asrwt>
<pdfrwt beam="1">  1       21 0.78035249E-01 0.41296183E+03</pdfrwt>
<pdfrwt beam="2">  1       21 0.75915043E-01 0.41296183E+03</pdfrwt>
<totfact> 0.19708064E+03</totfact>
</mgrwt>
</event>
<event>
 4    1  0.4821294E-002  0.4846146E+03  0.7818608E-02  0.1017875E+00
         21   -1    0    0  503  502  0.00000000000E+00  0.00000000000E+00  0.24568266999E+03  0.24568266999E+03  0.00000000000E+00 0. -1.
         21   -1    0    0  501  503 -0.00000000000E+00 -0.00000000000E+00 -0.10061734918E+04  0.10061734918E+04  0.00000000000E+00 0. -1.
    9000007    1    1    2  501    0  0.25546192893E+03 -0.97930985613E+02 -0.52014004880E+03  0.71091275516E+03  0.40000000000E+03 0. -1.
   -9000007    1    1    2    0  502 -0.25546192893E+03  0.97930985613E+02 -0.24035077297E+03  0.54094340660E+03  0.40000000000E+03 0. -1.
<mgrwt>
<rscale>  2 0.48461456E+03</rscale>
<asrwt>0</asrwt>
<pdfrwt beam="1">  1       21 0.37797334E-01 0.48461456E+03</pdfrwt>
<pdfrwt beam="2">  1       21 0.15479592E+00 0.48461456E+03</pdfrwt>
<totfact> 0.15592709E+03</totfact>
</mgrwt>
</event>
<event>
 4    1  0.4821294E-002  0.4606382E+03  0.7818608E-02  0.1024596E+00
         21   -1    0    0  501  502  0.00000000000E+00  0.00000000000E+00  0.63795848175E+03  0.63795848175E+03  0.00000000000E+00 0.  1.
         21   -1    0    0  502  503 -0.00000000000E+00 -0.00000000000E+00 -0.35709437938E+03  0.35709437938E+03  0.00000000000E+00 0.  1.
    9000007    1    1    2  501    0 -0.13474925329E+03 -0.18447274901E+03  0.27072539154E+03  0.53430309190E+03  0.40000000000E+03 0.  1.
   -9000007    1    1    2    0  503  0.13474925329E+03  0.18447274901E+03  0.10138710823E+02  0.46074976923E+03  0.40000000000E+03 0.  1.
<mgrwt>
<rscale>  2 0.46063821E+03</rscale>
<asrwt>0</asrwt>
<pdfrwt beam="1">  1       21 0.98147459E-01 0.46063821E+03</pdfrwt>
<pdfrwt beam="2">  1       21 0.54937597E-01 0.46063821E+03</pdfrwt>
<totfact> 0.23122356E+03</totfact>
</mgrwt>
</event>
<event>
 4    1  0.4821294E-002  0.4058776E+03  0.7818608E-02  0.1041763E+00
         21   -1    0    0  503  502  0.00000000000E+00  0.00000000000E+00  0.21969174549E+03  0.21969174549E+03  0.00000000000E+00 0.  1.
         21   -1    0    0  501  503 -0.00000000000E+00 -0.00000000000E+00 -0.78707003860E+03  0.78707003860E+03  0.00000000000E+00 0.  1.
    9000007    1    1    2  501    0 -0.15476941586E+02 -0.67060372616E+02 -0.39314976350E+03  0.56506934604E+03  0.40000000000E+03 0.  1.
   -9000007    1    1    2    0  502  0.15476941586E+02  0.67060372616E+02 -0.17422852961E+03  0.44169243804E+03  0.40000000000E+03 0.  1.
<mgrwt>
<rscale>  2 0.40587760E+03</rscale>
<asrwt>0</asrwt>
<pdfrwt beam="1">  1       21 0.33798730E-01 0.40587760E+03</pdfrwt>
<pdfrwt beam="2">  1       21 0.12108770E+00 0.40587760E+03</pdfrwt>
<totfact> 0.38565750E+03</totfact>
</mgrwt>
</event>
<event>
 4    1  0.4821294E-002  0.4089045E+03  0.7818608E-02  0.1040739E+00
         21   -1    0    0  503  502  0.00000000000E+00  0.00000000000E+00  0.18363107448E+03  0.18363107448E+03  0.00000000000E+00 0.  1.
         21   -1    0    0  501  503 -0.00000000000E+00 -0.00000000000E+00 -0.97489925960E+03  0.97489925960E+03  0.00000000000E+00 0.  1.
    9000007    1    1    2  501    0 -0.78287442327E+02  0.32771421867E+02 -0.54447186006E+03  0.68092033022E+03  0.40000000000E+03 0.  1.
   -9000007    1    1    2    0  502  0.78287442327E+02 -0.32771421867E+02 -0.24679632506E+03  0.47761000385E+03  0.40000000000E+03 0.  1.
<mgrwt>
<rscale>  2 0.40890450E+03</rscale>
<asrwt>0</asrwt>
<pdfrwt beam="1">  1       21 0.28250934E-01 0.40890450E+03</pdfrwt>
<pdfrwt beam="2">  1       21 0.14998450E+00 0.40890450E+03</pdfrwt>
<totfact> 0.31412345E+03</totfact>
</mgrwt>
</event>
<event>
 4    1  0.4821294E-002  0.4304751E+03  0.7818608E-02  0.1033710E+00
         21   -1    0    0  503  502  0.00000000000E+00  0.00000000000E+00  0.56294134939E+03  0.56294134939E+03  0.00000000000E+00 0. -1.
         21   -1    0    0  501  503 -0.00000000000E+00 -0.00000000000E+00 -0.60985068282E+03  0.60985068282E+03  0.00000000000E+00 0. -1.
    9000007    1    1    2  501    0  0.22159881362E+02 -0.15753640358E+03 -0.42126689564E+03  0.60230770886E+03  0.40000000000E+03 0. -1.
   -9000007    1    1    2    0  502 -0.22159881362E+02  0.15753640358E+03  0.37435756221E+03  0.57048432334E+03  0.40000000000E+03 0. -1.
<mgrwt>
<rscale>  2 0.43047506E+03</rscale>
<asrwt>0</asrwt>
<pdfrwt beam="1">  1       21 0.86606361E-01 0.43047506E+03</pdfrwt>
<pdfrwt beam="2">  1       21 0.93823183E-01 0.43047506E+03</pdfrwt>
<totfact> 0.93722870E+02</totfact>
</mgrwt>
</event>
<event>
 4    1  0.4821294E-002  0.4976596E+03  0.7818608E-02  0.1014392E+00
         21   -1    0    0  503  502  0.00000000000E+00  0.00000000000E+00  0.17941044335E+04  0.17941044335E+04  0.00000000000E+00 0. -1.
         21   -1    0    0  501  503 -0.00000000000E+00 -0.00000000000E+00 -0.13868984526E+03  0.13868984526E+03  0.00000000000E+00 0. -1.
    9000007    1    1    2  501    0  0.31714327653E+02  0.29437948718E+03  0.89366239521E+03  0.10228868743E+04  0.40000000000E+03 0. -1.
   -9000007    1    1    2    0  502 -0.31714327653E+02 -0.29437948718E+03  0.76175219300E+03  0.90990740441E+03  0.40000000000E+03 0. -1.
<mgrwt>
<rscale>  2 0.49765960E+03</rscale>
<asrwt>0</asrwt>
<pdfrwt beam="1">  1       21 0.27601605E+00 0.49765960E+03</pdfrwt>
<pdfrwt beam="2">  1       21 0.21336901E-01 0.49765960E+03</pdfrwt>
<totfact> 0.75883854E+02</totfact>
</mgrwt>
</event>
<event>
 4    1  0.4821294E-002  0.4528892E+03  0.7818608E-02  0.1026864E+00
         21   -1    0    0  503  502  0.00000000000E+00  0.00000000000E+00  0.26152012027E+03  0.26152012027E+03  0.00000000000E+00 0.  1.
         21   -1    0    0  501  503 -0.00000000000E+00 -0.00000000000E+00 -0.14204941917E+04  0.14204941917E+04  0.00000000000E+00 0. -1.
    9000007    1    1    2  501    0 -0.20107875024E+03  0.68380942951E+02 -0.11423166173E+04  0.12288188928E+04  0.40000000000E+03 0. -1.
   -9000007    1    1    2    0  502  0.20107875024E+03 -0.68380942951E+02 -0.16657454124E+02  0.45319541915E+03  0.40000000000E+03 0.  1.
<mgrwt>
<rscale>  2 0.45288919E+03</rscale>
<asrwt>0</asrwt>
<pdfrwt beam="1">  1       21 0.40233865E-01 0.45288919E+03</pdfrwt>
<pdfrwt beam="2">  1       21 0.21853757E+00 0.45288919E+03</pdfrwt>
<totfact> 0.49994775E+02</totfact>
</mgrwt>
</event>
<event>
 4    1  0.4821294E-002  0.4578067E+03  0.7818608E-02  0.1025419E+00
         21   -1    0    0  501  502  0.00000000000E+00  0.00000000000E+00  0.46980430049E+03  0.46980430049E+03  0.00000000000E+00 0. -1.
         21   -1    0    0  502  503 -0.00000000000E+00 -0.00000000000E+00 -0.10543152982E+04  0.10543152982E+04  0.00000000000E+00 0. -1.
    9000007    1    1    2  501    0 -0.20378518317E+02  0.22174682934E+03  0.28654242451E+03  0.54008656841E+03  0.40000000000E+03 0. -1.
   -9000007    1    1    2    0  503  0.20378518317E+02 -0.22174682934E+03 -0.87105342224E+03  0.98403303030E+03  0.40000000000E+03 0. -1.
<mgrwt>
<rscale>  2 0.45780666E+03</rscale>
<asrwt>0</asrwt>
<pdfrwt beam="1">  1       21 0.72277585E-01 0.45780666E+03</pdfrwt>
<pdfrwt beam="2">  1       21 0.16220235E+00 0.45780666E+03</pdfrwt>
<totfact> 0.34398583E+02</totfact>
</mgrwt>
</event>
<event>
 4    1  0.4821294E-002  0.4880108E+03  0.7818608E-02  0.1016957E+00
         21   -1    0    0  503  502  0.00000000000E+00  0.00000000000E+00  0.10433235016E+04  0.10433235016E+04  0.00000000000E+00 0.  1.
         21   -1    0    0  501  503 -0.00000000000E+00 -0.00000000000E+00 -0.57481022373E+03  0.57481022373E+03  0.00000000000E+00 0. -1.
    9000007    1    1    2  501    0 -0.12559094114E+03 -0.24976284740E+03 -0.39394915171E+03  0.62717660876E+03  0.40000000000E+03 0. -1.
   -9000007    1    1    2    0  502  0.12559094114E+03  0.24976284740E+03  0.86246242954E+03  0.99095711653E+03  0.40000000000E+03 0.  1.
<mgrwt>
<rscale>  2 0.48801082E+03</rscale>
<asrwt>0</asrwt>
<pdfrwt beam="1">  1       21 0.16051131E+00 0.48801082E+03</pdfrwt>
<pdfrwt beam="2">  1       21 0.88432342E-01 0.48801082E+03</pdfrwt>
<totfact> 0.21893151E+02</totfact>
</mgrwt>
</event>
<event>
 4    1  0.4821294E-002  0.5103935E+03  0.7818608E-02  0.1011101E+00
         21   -1    0    0  503  502  0.00000000000E+00  0.00000000000E+00  0.36594743099E+03  0.36594743099E+03  0.00000000000E+00 0.  1.
         21   -1    0    0  501  503 -0.00000000000E+00 -0.00000000000E+00 -0.10856922824E+04  0.10856922824E+04  0.00000000000E+00 0.  1.
    9000007    1    1    2  501    0  0.31612626556E+03 -0.23785529960E+02 -0.78578129311E+03  0.93699189314E+03  0.40000000000E+03 0.  1.
   -9000007    1    1    2    0  502 -0.31612626556E+03  0.23785529960E+02  0.66036441739E+02  0.51464782021E+03  0.40000000000E+03 0.  1.
<mgrwt>
<rscale>  2 0.51039354E+03</rscale>
<asrwt>0</asrwt>
<pdfrwt beam="1">  1       21 0.56299604E-01 0.51039354E+03</pdfrwt>
<pdfrwt beam="2">  1       21 0.16702958E+00 0.51039354E+03</pdfrwt>
<totfact> 0.53856406E+02</totfact>
</mgrwt>
</event>
<event>
 4    1  0.4821294E-002  0.6281423E+03  0.7818608E-02  0.9848681E-01
         21   -1    0    0  503  502  0.00000000000E+00  0.00000000000E+00  0.85371822075E+03  0.85371822075E+03  0.00000000000E+00 0.  1.
         21   -1    0    0  501  503 -0.00000000000E+00 -0.00000000000E+00 -0.64121021770E+03  0.64121021770E+03  0.00000000000E+00 0.  1.
    9000007    1    1    2  501    0 -0.16010861654E+03  0.45708643790E+03  0.50122547487E+03  0.80361045131E+03  0.40000000000E+03 0.  1.
   -9000007    1    1    2    0  502  0.16010861654E+03 -0.45708643790E+03 -0.28871747182E+03  0.69131798713E+03  0.40000000000E+03 0.  1.
<mgrwt>
<rscale>  2 0.62814233E+03</rscale>
<asrwt>0</asrwt>
<pdfrwt beam="1">  1       21 0.13134127E+00 0.62814233E+03</pdfrwt>
<pdfrwt beam="2">  1       21 0.98647725E-01 0.62814233E+03</pdfrwt>
<totfact> 0.27421807E+02</totfact>
</mgrwt>
</event>
<event>
 4    1  0.4821294E-002  0.4129219E+03  0.7818608E-02  0.1039395E+00
         21   -1    0    0  503  502  0.00000000000E+00  0.00000000000E+00  0.19507347134E+04  0.19507347134E+04  0.00000000000E+00 0.  1.
         21   -1    0    0  501  503 -0.00000000000E+00 -0.00000000000E+00 -0.10493905179E+04  0.10493905179E+04  0.00000000000E+00 0.  1.
    9000007    1    1    2  501    0  0.25248103628E+02 -0.99333020090E+02 -0.98556130687E+03  0.10685670804E+04  0.40000000000E+03 0.  1.
   -9000007    1    1    2    0  502 -0.25248103628E+02  0.99333020090E+02  0.18869055023E+04  0.19315581509E+04  0.40000000000E+03 0.  1.
<mgrwt>
<rscale>  2 0.41292192E+03</rscale>
<asrwt>0</asrwt>
<pdfrwt beam="1">  1       21 0.30011303E+00 0.41292192E+03</pdfrwt>
<pdfrwt beam="2">  1       21 0.16144470E+00 0.41292192E+03</pdfrwt>
<totfact> 0.62407457E+00</totfact>
</mgrwt>
</event>
<event>
 4    1  0.4821294E-002  0.5239517E+03  0.7818608E-02  0.1007710E+00
         21   -1    0    0  501  502  0.00000000000E+00  0.00000000000E+00  0.71025967800E+03  0.71025967800E+03  0.00000000000E+00 0. -1.
         21   -1    0    0  502  503 -0.00000000000E+00 -0.00000000000E+00 -0.89510218866E+03  0.89510218866E+03  0.00000000000E+00 0.  1.
    9000007    1    1    2  501    0  0.17194363966E+03  0.29148026903E+03  0.51262662029E+03  0.73301528926E+03  0.40000000000E+03 0. -1.
   -9000007    1    1    2    0  503 -0.17194363966E+03 -0.29148026903E+03 -0.69746913095E+03  0.87234657739E+03  0.40000000000E+03 0.  1.
<mgrwt>
<rscale>  2 0.52395168E+03</rscale>
<asrwt>0</asrwt>
<pdfrwt beam="1">  1       21 0.10927072E+00 0.52395168E+03</pdfrwt>
<pdfrwt beam="2">  1       21 0.13770803E+00 0.52395168E+03</pdfrwt>
<totfact> 0.19566891E+02</totfact>
</mgrwt>
</event>
<event>
 4    1  0.4821294E-002  0.4588799E+03  0.7818608E-02  0.1025107E+00
         21   -1    0    0  503  502  0.00000000000E+00  0.00000000000E+00  0.95438502742E+02  0.95438502742E+02  0.00000000000E+00 0.  1.
         21   -1    0    0  501  503 -0.00000000000E+00 -0.00000000000E+00 -0.22711140183E+04  0.22711140183E+04  0.00000000000E+00 0.  1.
    9000007    1    1    2  501    0 -0.22017005207E+03  0.45781071892E+02 -0.12876549946E+04  0.13669770092E+04  0.40000000000E+03 0.  1.
   -9000007    1    1    2    0  502  0.22017005207E+03 -0.45781071892E+02 -0.88802052093E+03  0.99957551189E+03  0.40000000000E+03 0.  1.
<mgrwt>
<rscale>  2 0.45887990E+03</rscale>
<asrwt>0</asrwt>
<pdfrwt beam="1">  1       21 0.14682846E-01 0.45887990E+03</pdfrwt>
<pdfrwt beam="2">  1       21 0.34940216E+00 0.45887990E+03</pdfrwt>
<totfact> 0.56277983E+02</totfact>
</mgrwt>
</event>
<event>
 4    1  0.4821294E-002  0.4010656E+03  0.7818608E-02  0.1043411E+00
         21   -1    0    0  503  502  0.00000000000E+00  0.00000000000E+00  0.23188391233E+03  0.23188391233E+03  0.00000000000E+00 0.  1.
         21   -1    0    0  501  503 -0.00000000000E+00 -0.00000000000E+00 -0.25165872257E+04  0.25165872257E+04  0.00000000000E+00 0.  1.
    9000007    1    1    2  501    0  0.19078625482E+02 -0.22126546896E+02 -0.23119514875E+04  0.23464810373E+04  0.40000000000E+03 0.  1.
   -9000007    1    1    2    0  502 -0.19078625482E+02  0.22126546896E+02  0.27248174162E+02  0.40199010065E+03  0.40000000000E+03 0.  1.
<mgrwt>
<rscale>  2 0.40106555E+03</rscale>
<asrwt>0</asrwt>
<pdfrwt beam="1">  1       21 0.35674449E-01 0.40106555E+03</pdfrwt>
<pdfrwt beam="2">  1       21 0.38716725E+00 0.40106555E+03</pdfrwt>
<totfact> 0.61466901E+01</totfact>
</mgrwt>
</event>
