<event>
 4    1  0.4716816E-002  0.4196661E+03  0.7818608E-02  0.1037175E+00
         21   -1    0    0  501  502  0.00000000000E+00  0.00000000000E+00  0.37864636015E+03  0.37864636015E+03  0.00000000000E+00 0.  1.
         21   -1    0    0  502  503 -0.00000000000E+00 -0.00000000000E+00 -0.60230170011E+03  0.60230170011E+03  0.00000000000E+00 0.  1.
    9000007    1    1    2  501    0  0.10290045292E+03  0.74371863762E+02  0.12224012759E+03  0.43710676742E+03  0.40000000000E+03 0.  1.
   -9000007    1    1    2    0  503 -0.10290045292E+03 -0.74371863762E+02 -0.34589546754E+03  0.54384129284E+03  0.40000000000E+03 0.  1.
<mgrwt>
<rscale>  2 0.41966615E+03</rscale>
<asrwt>0</asrwt>
<pdfrwt beam="1">  1       21 0.58253286E-01 0.41966615E+03</pdfrwt>
<pdfrwt beam="2">  1       21 0.92661801E-01 0.41966615E+03</pdfrwt>
<totfact> 0.23738328E+03</totfact>
</mgrwt>
</event>
<event>
 4    1  0.4716816E-002  0.4049054E+03  0.7818608E-02  0.1042094E+00
         21   -1    0    0  501  502  0.00000000000E+00  0.00000000000E+00  0.70098261863E+03  0.70098261863E+03  0.00000000000E+00 0. -1.
         21   -1    0    0  502  503 -0.00000000000E+00 -0.00000000000E+00 -0.27175196235E+03  0.27175196235E+03  0.00000000000E+00 0. -1.
    9000007    1    1    2  501    0 -0.31921984209E+02  0.54123645711E+02  0.39617354961E+03  0.56648200634E+03  0.40000000000E+03 0. -1.
   -9000007    1    1    2    0  503  0.31921984209E+02 -0.54123645711E+02  0.33057106674E+02  0.40625257464E+03  0.40000000000E+03 0. -1.
<mgrwt>
<rscale>  2 0.40490540E+03</rscale>
<asrwt>0</asrwt>
<pdfrwt beam="1">  1       21 0.10784348E+00 0.40490540E+03</pdfrwt>
<pdfrwt beam="2">  1       21 0.41807994E-01 0.40490540E+03</pdfrwt>
<totfact> 0.33395122E+03</totfact>
</mgrwt>
</event>
<event>
 4    1  0.4716816E-002  0.4439425E+03  0.7818608E-02  0.1029544E+00
         21   -1    0    0  503  502  0.00000000000E+00  0.00000000000E+00  0.17851200905E+03  0.17851200905E+03  0.00000000000E+00 0.  1.
         21   -1    0    0  501  503 -0.00000000000E+00 -0.00000000000E+00 -0.11101701020E+04  0.11101701020E+04  0.00000000000E+00 0.  1.
    9000007    1    1    2  501    0  0.16451987124E+03  0.10009058875E+03 -0.51369784976E+03  0.67894800599E+03  0.40000000000E+03 0.  1.
   -9000007    1    1    2    0  502 -0.16451987124E+03 -0.10009058875E+03 -0.41796024319E+03  0.60973410506E+03  0.40000000000E+03 0.  1.
<mgrwt>
<rscale>  2 0.44394247E+03</rscale>
<asrwt>0</asrwt>
<pdfrwt beam="1">  1       21 0.27463386E-01 0.44394247E+03</pdfrwt>
<pdfrwt beam="2">  1       21 0.17079540E+00 0.44394247E+03</pdfrwt>
<totfact> 0.22816001E+03</totfact>
</mgrwt>
</event>
<event>
 4    1  0.4716816E-002  0.4211498E+03  0.7818608E-02  0.1036693E+00
         21   -1    0    0  503  502  0.00000000000E+00  0.00000000000E+00  0.95623128435E+02  0.95623128435E+02  0.00000000000E+00 0.  1.
         21   -1    0    0  501  503 -0.00000000000E+00 -0.00000000000E+00 -0.22313486691E+04  0.22313486691E+04  0.00000000000E+00 0.  1.
    9000007    1    1    2  501    0 -0.12579429166E+03  0.39280787926E+02 -0.58994259793E+03  0.72484443363E+03  0.40000000000E+03 0.  1.
   -9000007    1    1    2    0  502  0.12579429166E+03 -0.39280787926E+02 -0.15457829427E+04  0.16021273639E+04  0.40000000000E+03 0.  1.
<mgrwt>
<rscale>  2 0.42114984E+03</rscale>
<asrwt>0</asrwt>
<pdfrwt beam="1">  1       21 0.14711249E-01 0.42114984E+03</pdfrwt>
<pdfrwt beam="2">  1       21 0.34328444E+00 0.42114984E+03</pdfrwt>
<totfact> 0.62537147E+02</totfact>
</mgrwt>
</event>
<event>
 4    1  0.4716816E-002  0.4214309E+03  0.7818608E-02  0.1036602E+00
         21   -1    0    0  503  502  0.00000000000E+00  0.00000000000E+00  0.87076326426E+03  0.87076326426E+03  0.00000000000E+00 0. -1.
         21   -1    0    0  501  503 -0.00000000000E+00 -0.00000000000E+00 -0.20694791575E+03  0.20694791575E+03  0.00000000000E+00 0. -1.
    9000007    1    1    2  501    0  0.84807748575E+02  0.10203762040E+03  0.26719898950E+03  0.49899832683E+03  0.40000000000E+03 0.  1.
   -9000007    1    1    2    0  502 -0.84807748575E+02 -0.10203762040E+03  0.39661635902E+03  0.57871285318E+03  0.40000000000E+03 0.  1.
<mgrwt>
<rscale>  2 0.42143093E+03</rscale>
<asrwt>0</asrwt>
<pdfrwt beam="1">  1       21 0.13396358E+00 0.42143093E+03</pdfrwt>
<pdfrwt beam="2">  1       21 0.31838141E-01 0.42143093E+03</pdfrwt>
<totfact> 0.33306191E+03</totfact>
</mgrwt>
</event>
<event>
 4    1  0.4716816E-002  0.4558021E+03  0.7818608E-02  0.1026006E+00
         21   -1    0    0  503  502  0.00000000000E+00  0.00000000000E+00  0.21085440449E+03  0.21085440449E+03  0.00000000000E+00 0.  1.
         21   -1    0    0  501  503 -0.00000000000E+00 -0.00000000000E+00 -0.11272413781E+04  0.11272413781E+04  0.00000000000E+00 0.  1.
    9000007    1    1    2  501    0 -0.15815346191E+03 -0.15080799336E+03 -0.69560293768E+03  0.83163634798E+03  0.40000000000E+03 0.  1.
   -9000007    1    1    2    0  502  0.15815346191E+03  0.15080799336E+03 -0.22078403590E+03  0.50645943459E+03  0.40000000000E+03 0.  1.
<mgrwt>
<rscale>  2 0.45580212E+03</rscale>
<asrwt>0</asrwt>
<pdfrwt beam="1">  1       21 0.32439139E-01 0.45580212E+03</pdfrwt>
<pdfrwt beam="2">  1       21 0.17342175E+00 0.45580212E+03</pdfrwt>
<totfact> 0.15615402E+03</totfact>
</mgrwt>
</event>
<event>
 4    1  0.4716816E-002  0.4755282E+03  0.7818608E-02  0.1020371E+00
         21   -1    0    0  501  502  0.00000000000E+00  0.00000000000E+00  0.39549455965E+03  0.39549455965E+03  0.00000000000E+00 0.  1.
         21   -1    0    0  502  503 -0.00000000000E+00 -0.00000000000E+00 -0.62165136746E+03  0.62165136746E+03  0.00000000000E+00 0.  1.
    9000007    1    1    2  501    0 -0.25707647029E+03 -0.62273972211E+01  0.31001092267E+02  0.47653767928E+03  0.40000000000E+03 0.  1.
   -9000007    1    1    2    0  503  0.25707647029E+03  0.62273972211E+01 -0.25715790008E+03  0.54060824783E+03  0.40000000000E+03 0.  1.
<mgrwt>
<rscale>  2 0.47552822E+03</rscale>
<asrwt>0</asrwt>
<pdfrwt beam="1">  1       21 0.60845317E-01 0.47552822E+03</pdfrwt>
<pdfrwt beam="2">  1       21 0.95638672E-01 0.47552822E+03</pdfrwt>
<totfact> 0.19594066E+03</totfact>
</mgrwt>
</event>
<event>
 4    1  0.4716816E-002  0.4933242E+03  0.7818608E-02  0.1015536E+00
         21   -1    0    0  503  502  0.00000000000E+00  0.00000000000E+00  0.32026322117E+03  0.32026322117E+03  0.00000000000E+00 0. -1.
         21   -1    0    0  501  503 -0.00000000000E+00 -0.00000000000E+00 -0.98163990750E+03  0.98163990750E+03  0.00000000000E+00 0. -1.
    9000007    1    1    2  501    0 -0.19304797562E+03  0.21471198894E+03 -0.64006835274E+03  0.80811896108E+03  0.40000000000E+03 0. -1.
   -9000007    1    1    2    0  502  0.19304797562E+03 -0.21471198894E+03 -0.21308333586E+02  0.49378416759E+03  0.40000000000E+03 0. -1.
<mgrwt>
<rscale>  2 0.49332419E+03</rscale>
<asrwt>0</asrwt>
<pdfrwt beam="1">  1       21 0.49271265E-01 0.49332419E+03</pdfrwt>
<pdfrwt beam="2">  1       21 0.15102152E+00 0.49332419E+03</pdfrwt>
<totfact> 0.95629319E+02</totfact>
</mgrwt>
</event>
<event>
 4    1  0.4716816E-002  0.5011898E+03  0.7818608E-02  0.1013469E+00
         21   -1    0    0  501  502  0.00000000000E+00  0.00000000000E+00  0.34983923160E+03  0.34983923160E+03  0.00000000000E+00 0.  1.
         21   -1    0    0  502  503 -0.00000000000E+00 -0.00000000000E+00 -0.80415606330E+03  0.80415606330E+03  0.00000000000E+00 0.  1.
    9000007    1    1    2  501    0 -0.16412579026E+03 -0.25348352629E+03 -0.38316148586E+02  0.50265226586E+03  0.40000000000E+03 0.  1.
   -9000007    1    1    2    0  503  0.16412579026E+03  0.25348352629E+03 -0.41600068311E+03  0.65134302904E+03  0.40000000000E+03 0.  1.
<mgrwt>
<rscale>  2 0.50118976E+03</rscale>
<asrwt>0</asrwt>
<pdfrwt beam="1">  1       21 0.53821421E-01 0.50118976E+03</pdfrwt>
<pdfrwt beam="2">  1       21 0.12371632E+00 0.50118976E+03</pdfrwt>
<totfact> 0.13379091E+03</totfact>
</mgrwt>
</event>
<event>
 4    1  0.4716816E-002  0.6584174E+03  0.7818608E-02  0.9791111E-01
         21   -1    0    0  503  502  0.00000000000E+00  0.00000000000E+00  0.38302763449E+03  0.38302763449E+03  0.00000000000E+00 0. -1.
         21   -1    0    0  501  503 -0.00000000000E+00 -0.00000000000E+00 -0.11400985142E+04  0.11400985142E+04  0.00000000000E+00 0. -1.
    9000007    1    1    2  501    0  0.19134641570E+03  0.48672378612E+03 -0.31359095826E+03  0.72928237596E+03  0.40000000000E+03 0. -1.
   -9000007    1    1    2    0  502 -0.19134641570E+03 -0.48672378612E+03 -0.44347992142E+03  0.79384377271E+03  0.40000000000E+03 0. -1.
<mgrwt>
<rscale>  2 0.65841742E+03</rscale>
<asrwt>0</asrwt>
<pdfrwt beam="1">  1       21 0.58927328E-01 0.65841742E+03</pdfrwt>
<pdfrwt beam="2">  1       21 0.17539977E+00 0.65841742E+03</pdfrwt>
<totfact> 0.40130991E+02</totfact>
</mgrwt>
</event>
<event>
 4    1  0.4716816E-002  0.4278593E+03  0.7818608E-02  0.1034538E+00
         21   -1    0    0  501  502  0.00000000000E+00  0.00000000000E+00  0.12620871754E+04  0.12620871754E+04  0.00000000000E+00 0. -1.
         21   -1    0    0  502  503 -0.00000000000E+00 -0.00000000000E+00 -0.16366563500E+03  0.16366563500E+03  0.00000000000E+00 0. -1.
    9000007    1    1    2  501    0  0.70619764578E+02  0.13444864886E+03  0.78964391113E+03  0.89810973534E+03  0.40000000000E+03 0. -1.
   -9000007    1    1    2    0  503 -0.70619764578E+02 -0.13444864886E+03  0.30877762929E+03  0.52764307508E+03  0.40000000000E+03 0. -1.
<mgrwt>
<rscale>  2 0.42785931E+03</rscale>
<asrwt>0</asrwt>
<pdfrwt beam="1">  1       21 0.19416725E+00 0.42785931E+03</pdfrwt>
<pdfrwt beam="2">  1       21 0.25179329E-01 0.42785931E+03</pdfrwt>
<totfact> 0.18686842E+03</totfact>
</mgrwt>
</event>
<event>
 4    1  0.4716816E-002  0.6891554E+03  0.7818608E-02  0.9735960E-01
         21   -1    0    0  501  502  0.00000000000E+00  0.00000000000E+00  0.31699676041E+03  0.31699676041E+03  0.00000000000E+00 0.  1.
         21   -1    0    0  502  503 -0.00000000000E+00 -0.00000000000E+00 -0.15955804949E+04  0.15955804949E+04  0.00000000000E+00 0.  1.
    9000007    1    1    2  501    0  0.14339579330E+03  0.54256136292E+03 -0.40308595481E+03  0.79838178401E+03  0.40000000000E+03 0.  1.
   -9000007    1    1    2    0  503 -0.14339579330E+03 -0.54256136292E+03 -0.87549777971E+03  0.11141954713E+04  0.40000000000E+03 0.  1.
<mgrwt>
<rscale>  2 0.68915542E+03</rscale>
<asrwt>0</asrwt>
<pdfrwt beam="1">  1       21 0.48768732E-01 0.68915542E+03</pdfrwt>
<pdfrwt beam="2">  1       21 0.24547393E+00 0.68915542E+03</pdfrwt>
<totfact> 0.20399971E+02</totfact>
</mgrwt>
</event>
<event>
 4    1  0.4716816E-002  0.6537458E+03  0.7818608E-02  0.9799776E-01
         21   -1    0    0  503  502  0.00000000000E+00  0.00000000000E+00  0.20125247017E+04  0.20125247017E+04  0.00000000000E+00 0.  1.
         21   -1    0    0  501  503 -0.00000000000E+00 -0.00000000000E+00 -0.24143043401E+03  0.24143043401E+03  0.00000000000E+00 0.  1.
    9000007    1    1    2  501    0 -0.42068078864E+03 -0.30068452897E+03  0.49449825720E+03  0.81970240836E+03  0.40000000000E+03 0.  1.
   -9000007    1    1    2    0  502  0.42068078864E+03  0.30068452897E+03  0.12765960104E+04  0.14342527273E+04  0.40000000000E+03 0.  1.
<mgrwt>
<rscale>  2 0.65374575E+03</rscale>
<asrwt>0</asrwt>
<pdfrwt beam="1">  1       21 0.30961917E+00 0.65374575E+03</pdfrwt>
<pdfrwt beam="2">  1       21 0.37143145E-01 0.65374575E+03</pdfrwt>
<totfact> 0.14729948E+02</totfact>
</mgrwt>
</event>
<event>
 4    1  0.4716816E-002  0.4903202E+03  0.7818608E-02  0.1016337E+00
         21   -1    0    0  501  502  0.00000000000E+00  0.00000000000E+00  0.43846815682E+03  0.43846815682E+03  0.00000000000E+00 0.  1.
         21   -1    0    0  502  503 -0.00000000000E+00 -0.00000000000E+00 -0.63646806240E+03  0.63646806240E+03  0.00000000000E+00 0. -1.
    9000007    1    1    2  501    0 -0.25237578460E+02  0.28244815465E+03  0.10103684879E+03  0.50062195342E+03  0.40000000000E+03 0.  1.
   -9000007    1    1    2    0  503  0.25237578460E+02 -0.28244815465E+03 -0.29903675437E+03  0.57431426580E+03  0.40000000000E+03 0. -1.
<mgrwt>
<rscale>  2 0.49032020E+03</rscale>
<asrwt>0</asrwt>
<pdfrwt beam="1">  1       21 0.67456640E-01 0.49032020E+03</pdfrwt>
<pdfrwt beam="2">  1       21 0.97918163E-01 0.49032020E+03</pdfrwt>
<totfact> 0.14644453E+03</totfact>
</mgrwt>
</event>
<event>
 4    1  0.4716816E-002  0.4768170E+03  0.7818608E-02  0.1020014E+00
         21   -1    0    0  503  502  0.00000000000E+00  0.00000000000E+00  0.26313987646E+03  0.26313987646E+03  0.00000000000E+00 0.  1.
         21   -1    0    0  501  503 -0.00000000000E+00 -0.00000000000E+00 -0.10616157907E+04  0.10616157907E+04  0.00000000000E+00 0. -1.
    9000007    1    1    2  501    0  0.16277570396E+03 -0.20213491935E+03 -0.68501427568E+03  0.83462507349E+03  0.40000000000E+03 0. -1.
   -9000007    1    1    2    0  502 -0.16277570396E+03  0.20213491935E+03 -0.11346163854E+03  0.49013059366E+03  0.40000000000E+03 0.  1.
<mgrwt>
<rscale>  2 0.47681700E+03</rscale>
<asrwt>0</asrwt>
<pdfrwt beam="1">  1       21 0.40483058E-01 0.47681700E+03</pdfrwt>
<pdfrwt beam="2">  1       21 0.16332551E+00 0.47681700E+03</pdfrwt>
<totfact> 0.11696037E+03</totfact>
</mgrwt>
</event>
<event>
 4    1  0.4716816E-002  0.5154050E+03  0.7818608E-02  0.1009834E+00
         21   -1    0    0  501  502  0.00000000000E+00  0.00000000000E+00  0.35802350000E+03  0.35802350000E+03  0.00000000000E+00 0. -1.
         21   -1    0    0  502  503 -0.00000000000E+00 -0.00000000000E+00 -0.81396916347E+03  0.81396916347E+03  0.00000000000E+00 0.  1.
    9000007    1    1    2  501    0 -0.30520349390E+03  0.11177281228E+03 -0.53688760561E+02  0.51819380281E+03  0.40000000000E+03 0.  1.
   -9000007    1    1    2    0  503  0.30520349390E+03 -0.11177281228E+03 -0.40225690291E+03  0.65379886066E+03  0.40000000000E+03 0.  1.
<mgrwt>
<rscale>  2 0.51540502E+03</rscale>
<asrwt>0</asrwt>
<pdfrwt beam="1">  1       21 0.55080538E-01 0.51540502E+03</pdfrwt>
<pdfrwt beam="2">  1       21 0.12522603E+00 0.51540502E+03</pdfrwt>
<totfact> 0.12273383E+03</totfact>
</mgrwt>
</event>
<event>
 4    1  0.4716816E-002  0.4899143E+03  0.7818608E-02  0.1016445E+00
         21   -1    0    0  501  502  0.00000000000E+00  0.00000000000E+00  0.45329684437E+03  0.45329684437E+03  0.00000000000E+00 0.  1.
         21   -1    0    0  502  503 -0.00000000000E+00 -0.00000000000E+00 -0.53020565721E+03  0.53020565721E+03  0.00000000000E+00 0.  1.
    9000007    1    1    2  501    0  0.25464719035E+03 -0.12317011261E+03 -0.20385661786E+02  0.49033829485E+03  0.40000000000E+03 0.  1.
   -9000007    1    1    2    0  503 -0.25464719035E+03  0.12317011261E+03 -0.56523151055E+02  0.49316420673E+03  0.40000000000E+03 0.  1.
<mgrwt>
<rscale>  2 0.48991435E+03</rscale>
<asrwt>0</asrwt>
<pdfrwt beam="1">  1       21 0.69737976E-01 0.48991435E+03</pdfrwt>
<pdfrwt beam="2">  1       21 0.81570101E-01 0.48991435E+03</pdfrwt>
<totfact> 0.20957029E+03</totfact>
</mgrwt>
</event>
<event>
 4    1  0.4716816E-002  0.4043460E+03  0.7818608E-02  0.1042285E+00
         21   -1    0    0  501  502  0.00000000000E+00  0.00000000000E+00  0.91845426526E+03  0.91845426526E+03  0.00000000000E+00 0.  1.
         21   -1    0    0  502  503 -0.00000000000E+00 -0.00000000000E+00 -0.38946256813E+03  0.38946256813E+03  0.00000000000E+00 0.  1.
    9000007    1    1    2  501    0 -0.24640890260E+02 -0.53744827641E+02  0.74635701173E+03  0.84884890818E+03  0.40000000000E+03 0.  1.
   -9000007    1    1    2    0  503  0.24640890260E+02  0.53744827641E+02 -0.21736531460E+03  0.45906792521E+03  0.40000000000E+03 0.  1.
<mgrwt>
<rscale>  2 0.40434599E+03</rscale>
<asrwt>0</asrwt>
<pdfrwt beam="1">  1       21 0.14130066E+00 0.40434599E+03</pdfrwt>
<pdfrwt beam="2">  1       21 0.59917318E-01 0.40434599E+03</pdfrwt>
<totfact> 0.78032562E+02</totfact>
</mgrwt>
</event>
<event>
 4    1  0.4716816E-002  0.4967769E+03  0.7818608E-02  0.1014624E+00
         21   -1    0    0  501  502  0.00000000000E+00  0.00000000000E+00  0.31077181654E+04  0.31077181654E+04  0.00000000000E+00 0. -1.
         21   -1    0    0  502  503 -0.00000000000E+00 -0.00000000000E+00 -0.40394283622E+03  0.40394283622E+03  0.00000000000E+00 0. -1.
    9000007    1    1    2  501    0 -0.29446594028E+03  0.87796303632E+01  0.29256937863E+04  0.29675699491E+04  0.40000000000E+03 0. -1.
   -9000007    1    1    2    0  503  0.29446594028E+03 -0.87796303632E+01 -0.22191845703E+03  0.54409105255E+03  0.40000000000E+03 0. -1.
<mgrwt>
<rscale>  2 0.49677688E+03</rscale>
<asrwt>0</asrwt>
<pdfrwt beam="1">  1       21 0.47811047E+00 0.49677688E+03</pdfrwt>
<pdfrwt beam="2">  1       21 0.62145054E-01 0.49677688E+03</pdfrwt>
<totfact> 0.43889754E+00</totfact>
</mgrwt>
</event>
<event>
 4    1  0.4716816E-002  0.4169010E+03  0.7818608E-02  0.1038080E+00
         21   -1    0    0  503  502  0.00000000000E+00  0.00000000000E+00  0.20741939757E+04  0.20741939757E+04  0.00000000000E+00 0. -1.
         21   -1    0    0  501  503 -0.00000000000E+00 -0.00000000000E+00 -0.14670482579E+03  0.14670482579E+03  0.00000000000E+00 0. -1.
    9000007    1    1    2  501    0  0.11241344715E+03 -0.34200501467E+02  0.23657305966E+03  0.47934671164E+03  0.40000000000E+03 0. -1.
   -9000007    1    1    2    0  502 -0.11241344715E+03  0.34200501467E+02  0.16909160902E+04  0.17415520898E+04  0.40000000000E+03 0. -1.
<mgrwt>
<rscale>  2 0.41690102E+03</rscale>
<asrwt>0</asrwt>
<pdfrwt beam="1">  1       21 0.31910674E+00 0.41690102E+03</pdfrwt>
<pdfrwt beam="2">  1       21 0.22569975E-01 0.41690102E+03</pdfrwt>
<totfact> 0.39196060E+02</totfact>
</mgrwt>
</event>
<event>
 4    1  0.4716816E-002  0.4326519E+03  0.7818608E-02  0.1033026E+00
         21   -1    0    0  501  502  0.00000000000E+00  0.00000000000E+00  0.26503718123E+03  0.26503718123E+03  0.00000000000E+00 0.  1.
         21   -1    0    0  502  503 -0.00000000000E+00 -0.00000000000E+00 -0.93706798416E+03  0.93706798416E+03  0.00000000000E+00 0.  1.
    9000007    1    1    2  501    0 -0.11791525754E+03  0.11525483086E+03 -0.37722189524E+02  0.43429327370E+03  0.40000000000E+03 0.  1.
   -9000007    1    1    2    0  503  0.11791525754E+03 -0.11525483086E+03 -0.63430861340E+03  0.76781189170E+03  0.40000000000E+03 0.  1.
<mgrwt>
<rscale>  2 0.43265192E+03</rscale>
<asrwt>0</asrwt>
<pdfrwt beam="1">  1       21 0.40774951E-01 0.43265192E+03</pdfrwt>
<pdfrwt beam="2">  1       21 0.14416431E+00 0.43265192E+03</pdfrwt>
<totfact> 0.16524303E+03</totfact>
</mgrwt>
</event>
<event>
 4    1  0.4716816E-002  0.5532325E+03  0.7818608E-02  0.1000748E+00
         21   -1    0    0  503  502  0.00000000000E+00  0.00000000000E+00  0.44052700758E+03  0.44052700758E+03  0.00000000000E+00 0. -1.
         21   -1    0    0  501  503 -0.00000000000E+00 -0.00000000000E+00 -0.73002879225E+03  0.73002879225E+03  0.00000000000E+00 0. -1.
    9000007    1    1    2  501    0 -0.29549136451E+02  0.38104212739E+03 -0.16131160884E+02  0.55346767626E+03  0.40000000000E+03 0. -1.
   -9000007    1    1    2    0  502  0.29549136451E+02 -0.38104212739E+03 -0.27337062379E+03  0.61708812358E+03  0.40000000000E+03 0. -1.
<mgrwt>
<rscale>  2 0.55323255E+03</rscale>
<asrwt>0</asrwt>
<pdfrwt beam="1">  1       21 0.67773386E-01 0.55323255E+03</pdfrwt>
<pdfrwt beam="2">  1       21 0.11231212E+00 0.55323255E+03</pdfrwt>
<totfact> 0.10110487E+03</totfact>
</mgrwt>
</event>
<event>
 4    1  0.4716816E-002  0.4197355E+03  0.7818608E-02  0.1037152E+00
         21   -1    0    0  501  502  0.00000000000E+00  0.00000000000E+00  0.40625460338E+03  0.40625460338E+03  0.00000000000E+00 0.  1.
         21   -1    0    0  502  503 -0.00000000000E+00 -0.00000000000E+00 -0.59155027210E+03  0.59155027210E+03  0.00000000000E+00 0.  1.
    9000007    1    1    2  501    0  0.10269557590E+03  0.75043336615E+02  0.16509842041E+03  0.45103810493E+03  0.40000000000E+03 0.  1.
   -9000007    1    1    2    0  503 -0.10269557590E+03 -0.75043336615E+02 -0.35039408913E+03  0.54676677055E+03  0.40000000000E+03 0.  1.
<mgrwt>
<rscale>  2 0.41973549E+03</rscale>
<asrwt>0</asrwt>
<pdfrwt beam="1">  1       21 0.62500709E-01 0.41973549E+03</pdfrwt>
<pdfrwt beam="2">  1       21 0.91007733E-01 0.41973549E+03</pdfrwt>
<totfact> 0.21235408E+03</totfact>
</mgrwt>
</event>
<event>
 4    1  0.4716816E-002  0.4804776E+03  0.7818608E-02  0.1019004E+00
         21   -1    0    0  503  502  0.00000000000E+00  0.00000000000E+00  0.97727197673E+03  0.97727197673E+03  0.00000000000E+00 0.  1.
         21   -1    0    0  501  503 -0.00000000000E+00 -0.00000000000E+00 -0.11313878280E+04  0.11313878280E+04  0.00000000000E+00 0. -1.
    9000007    1    1    2  501    0  0.33979998484E+02  0.26401526660E+03 -0.10148814886E+04  0.11228727163E+04  0.40000000000E+03 0. -1.
   -9000007    1    1    2    0  502 -0.33979998484E+02 -0.26401526660E+03  0.86076563729E+03  0.98578708839E+03  0.40000000000E+03 0.  1.
<mgrwt>
<rscale>  2 0.48047758E+03</rscale>
<asrwt>0</asrwt>
<pdfrwt beam="1">  1       21 0.15034954E+00 0.48047758E+03</pdfrwt>
<pdfrwt beam="2">  1       21 0.17405967E+00 0.48047758E+03</pdfrwt>
<totfact> 0.45669152E+01</totfact>
</mgrwt>
</event>
<event>
 4    1  0.4716816E-002  0.4559185E+03  0.7818608E-02  0.1025972E+00
         21   -1    0    0  501  502  0.00000000000E+00  0.00000000000E+00  0.22533063803E+03  0.22533063803E+03  0.00000000000E+00 0. -1.
         21   -1    0    0  502  503 -0.00000000000E+00 -0.00000000000E+00 -0.10598453712E+04  0.10598453712E+04  0.00000000000E+00 0. -1.
    9000007    1    1    2  501    0  0.12931256598E+03 -0.17646511449E+03 -0.18591278761E+03  0.49236697792E+03  0.40000000000E+03 0. -1.
   -9000007    1    1    2    0  503 -0.12931256598E+03  0.17646511449E+03 -0.64860194557E+03  0.79280903132E+03  0.40000000000E+03 0. -1.
<mgrwt>
<rscale>  2 0.45591850E+03</rscale>
<asrwt>0</asrwt>
<pdfrwt beam="1">  1       21 0.34666252E-01 0.45591850E+03</pdfrwt>
<pdfrwt beam="2">  1       21 0.16305313E+00 0.45591850E+03</pdfrwt>
<totfact> 0.16271278E+03</totfact>
</mgrwt>
</event>
<event>
 4    1  0.4716816E-002  0.4741415E+03  0.7818608E-02  0.1020758E+00
         21   -1    0    0  503  502  0.00000000000E+00  0.00000000000E+00  0.53179525587E+03  0.53179525587E+03  0.00000000000E+00 0. -1.
         21   -1    0    0  501  503 -0.00000000000E+00 -0.00000000000E+00 -0.82819492799E+03  0.82819492799E+03  0.00000000000E+00 0. -1.
    9000007    1    1    2  501    0 -0.25401782418E+03  0.16885916106E+02 -0.62398591454E+03  0.78368910335E+03  0.40000000000E+03 0. -1.
   -9000007    1    1    2    0  502  0.25401782418E+03 -0.16885916106E+02  0.32758624242E+03  0.57630108050E+03  0.40000000000E+03 0. -1.
<mgrwt>
<rscale>  2 0.47414153E+03</rscale>
<asrwt>0</asrwt>
<pdfrwt beam="1">  1       21 0.81814655E-01 0.47414153E+03</pdfrwt>
<pdfrwt beam="2">  1       21 0.12741460E+00 0.47414153E+03</pdfrwt>
<totfact> 0.49129526E+02</totfact>
</mgrwt>
</event>
<event>
 4    1  0.4716816E-002  0.4272930E+03  0.7818608E-02  0.1034719E+00
         21   -1    0    0  501  502  0.00000000000E+00  0.00000000000E+00  0.76665669578E+03  0.76665669578E+03  0.00000000000E+00 0. -1.
         21   -1    0    0  502  503 -0.00000000000E+00 -0.00000000000E+00 -0.26846327849E+03  0.26846327849E+03  0.00000000000E+00 0. -1.
    9000007    1    1    2  501    0  0.13667267630E+02  0.14964120616E+03  0.75182617447E+02  0.43385678599E+03  0.40000000000E+03 0.  1.
   -9000007    1    1    2    0  503 -0.13667267630E+02 -0.14964120616E+03  0.42301079984E+03  0.60126318827E+03  0.40000000000E+03 0.  1.
<mgrwt>
<rscale>  2 0.42729297E+03</rscale>
<asrwt>0</asrwt>
<pdfrwt beam="1">  1       21 0.11794718E+00 0.42729297E+03</pdfrwt>
<pdfrwt beam="2">  1       21 0.41302043E-01 0.42729297E+03</pdfrwt>
<totfact> 0.27169615E+03</totfact>
</mgrwt>
</event>
<event>
 4    1  0.4716816E-002  0.4540694E+03  0.7818608E-02  0.1026515E+00
         21   -1    0    0  503  502  0.00000000000E+00  0.00000000000E+00  0.67726767088E+03  0.67726767088E+03  0.00000000000E+00 0.  1.
         21   -1    0    0  501  503 -0.00000000000E+00 -0.00000000000E+00 -0.52911547544E+03  0.52911547544E+03  0.00000000000E+00 0.  1.
    9000007    1    1    2  501    0 -0.20659097458E+03  0.59153841730E+02 -0.31899381378E+03  0.55491986899E+03  0.40000000000E+03 0.  1.
   -9000007    1    1    2    0  502  0.20659097458E+03 -0.59153841730E+02  0.46714600923E+03  0.65146327733E+03  0.40000000000E+03 0.  1.
<mgrwt>
<rscale>  2 0.45406939E+03</rscale>
<asrwt>0</asrwt>
<pdfrwt beam="1">  1       21 0.10419503E+00 0.45406939E+03</pdfrwt>
<pdfrwt beam="2">  1       21 0.81402380E-01 0.45406939E+03</pdfrwt>
<totfact> 0.83168781E+02</totfact>
</mgrwt>
</event>
<event>
 4    1  0.4716816E-002  0.5318766E+03  0.7818608E-02  0.1005778E+00
         21   -1    0    0  503  502  0.00000000000E+00  0.00000000000E+00  0.11036688039E+04  0.11036688039E+04  0.00000000000E+00 0. -1.
         21   -1    0    0  501  503 -0.00000000000E+00 -0.00000000000E+00 -0.30500833304E+03  0.30500833304E+03  0.00000000000E+00 0.  1.
    9000007    1    1    2  501    0 -0.13144888680E+03  0.32498294334E+03  0.11792205692E+03  0.54479201060E+03  0.40000000000E+03 0.  1.
   -9000007    1    1    2    0  502  0.13144888680E+03 -0.32498294334E+03  0.68073841394E+03  0.86388512634E+03  0.40000000000E+03 0. -1.
<mgrwt>
<rscale>  2 0.53187661E+03</rscale>
<asrwt>0</asrwt>
<pdfrwt beam="1">  1       21 0.16979520E+00 0.53187661E+03</pdfrwt>
<pdfrwt beam="2">  1       21 0.46924359E-01 0.53187661E+03</pdfrwt>
<totfact> 0.75301799E+02</totfact>
</mgrwt>
</event>
<event>
 4    1  0.4716816E-002  0.4186732E+03  0.7818608E-02  0.1037499E+00
         21   -1    0    0  503  502  0.00000000000E+00  0.00000000000E+00  0.21276798562E+04  0.21276798562E+04  0.00000000000E+00 0. -1.
         21   -1    0    0  501  503 -0.00000000000E+00 -0.00000000000E+00 -0.13547918073E+03  0.13547918073E+03  0.00000000000E+00 0. -1.
    9000007    1    1    2  501    0  0.11271612729E+03 -0.50816704490E+02  0.28770545429E+03  0.50799772759E+03  0.40000000000E+03 0. -1.
   -9000007    1    1    2    0  502 -0.11271612729E+03  0.50816704490E+02  0.17044952212E+04  0.17551613094E+04  0.40000000000E+03 0. -1.
<mgrwt>
<rscale>  2 0.41867322E+03</rscale>
<asrwt>0</asrwt>
<pdfrwt beam="1">  1       21 0.32733534E+00 0.41867322E+03</pdfrwt>
<pdfrwt beam="2">  1       21 0.20842952E-01 0.41867322E+03</pdfrwt>
<totfact> 0.40681037E+02</totfact>
</mgrwt>
</event>
<event>
 4    1  0.4716816E-002  0.5273571E+03  0.7818608E-02  0.1006875E+00
         21   -1    0    0  503  502  0.00000000000E+00  0.00000000000E+00  0.10599100749E+04  0.10599100749E+04  0.00000000000E+00 0. -1.
         21   -1    0    0  501  503 -0.00000000000E+00 -0.00000000000E+00 -0.26893658974E+03  0.26893658974E+03  0.00000000000E+00 0.  1.
    9000007    1    1    2  501    0  0.25228103085E+03  0.23336625692E+03  0.49918256739E+03  0.72614651688E+03  0.40000000000E+03 0. -1.
   -9000007    1    1    2    0  502 -0.25228103085E+03 -0.23336625692E+03  0.29179091772E+03  0.60270014772E+03  0.40000000000E+03 0.  1.
<mgrwt>
<rscale>  2 0.52735712E+03</rscale>
<asrwt>0</asrwt>
<pdfrwt beam="1">  1       21 0.16306309E+00 0.52735712E+03</pdfrwt>
<pdfrwt beam="2">  1       21 0.41374860E-01 0.52735712E+03</pdfrwt>
<totfact> 0.11015979E+03</totfact>
</mgrwt>
</event>
<event>
 4    1  0.4716816E-002  0.4513432E+03  0.7818608E-02  0.1027322E+00
         21   -1    0    0  503  502  0.00000000000E+00  0.00000000000E+00  0.84853165006E+03  0.84853165006E+03  0.00000000000E+00 0.  1.
         21   -1    0    0  501  503 -0.00000000000E+00 -0.00000000000E+00 -0.55637966757E+03  0.55637966757E+03  0.00000000000E+00 0.  1.
    9000007    1    1    2  501    0  0.57399923608E+02  0.20103713798E+03 -0.38357103530E+03  0.59231530556E+03  0.40000000000E+03 0.  1.
   -9000007    1    1    2    0  502 -0.57399923608E+02 -0.20103713798E+03  0.67572301779E+03  0.81259601208E+03  0.40000000000E+03 0.  1.
<mgrwt>
<rscale>  2 0.45134320E+03</rscale>
<asrwt>0</asrwt>
<pdfrwt beam="1">  1       21 0.13054333E+00 0.45134320E+03</pdfrwt>
<pdfrwt beam="2">  1       21 0.85596872E-01 0.45134320E+03</pdfrwt>
<totfact> 0.41945701E+02</totfact>
</mgrwt>
</event>
<event>
 4    1  0.4716816E-002  0.4043922E+03  0.7818608E-02  0.1042269E+00
         21   -1    0    0  503  502  0.00000000000E+00  0.00000000000E+00  0.60975316315E+03  0.60975316315E+03  0.00000000000E+00 0.  1.
         21   -1    0    0  501  503 -0.00000000000E+00 -0.00000000000E+00 -0.31220249619E+03  0.31220249619E+03  0.00000000000E+00 0.  1.
    9000007    1    1    2  501    0 -0.31902942335E+02 -0.50152238189E+02 -0.24295065559E+02  0.40512133360E+03  0.40000000000E+03 0.  1.
   -9000007    1    1    2    0  502  0.31902942335E+02  0.50152238189E+02  0.32184573252E+03  0.51683432574E+03  0.40000000000E+03 0.  1.
<mgrwt>
<rscale>  2 0.40439219E+03</rscale>
<asrwt>0</asrwt>
<pdfrwt beam="1">  1       21 0.93808179E-01 0.40439219E+03</pdfrwt>
<pdfrwt beam="2">  1       21 0.48031153E-01 0.40439219E+03</pdfrwt>
<totfact> 0.35061532E+03</totfact>
</mgrwt>
</event>
<event>
 4    1  0.4716816E-002  0.4474953E+03  0.7818608E-02  0.1028472E+00
         21   -1    0    0  501  502  0.00000000000E+00  0.00000000000E+00  0.87248497499E+03  0.87248497499E+03  0.00000000000E+00 0.  1.
         21   -1    0    0  502  503 -0.00000000000E+00 -0.00000000000E+00 -0.37455055313E+03  0.37455055313E+03  0.00000000000E+00 0.  1.
    9000007    1    1    2  501    0  0.30608477503E+02  0.19828058943E+03  0.63696078152E+03  0.77844146102E+03  0.40000000000E+03 0.  1.
   -9000007    1    1    2    0  503 -0.30608477503E+02 -0.19828058943E+03 -0.13902635966E+03  0.46859406710E+03  0.40000000000E+03 0.  1.
<mgrwt>
<rscale>  2 0.44749533E+03</rscale>
<asrwt>0</asrwt>
<pdfrwt beam="1">  1       21 0.13422846E+00 0.44749533E+03</pdfrwt>
<pdfrwt beam="2">  1       21 0.57623162E-01 0.44749533E+03</pdfrwt>
<totfact> 0.95402509E+02</totfact>
</mgrwt>
</event>
<event>
 4    1  0.4716816E-002  0.5301136E+03  0.7818608E-02  0.1006205E+00
         21   -1    0    0  501  502  0.00000000000E+00  0.00000000000E+00  0.21701502925E+03  0.21701502925E+03  0.00000000000E+00 0. -1.
         21   -1    0    0  502  503 -0.00000000000E+00 -0.00000000000E+00 -0.19346425191E+04  0.19346425191E+04  0.00000000000E+00 0.  1.
    9000007    1    1    2  501    0 -0.33553873894E+03 -0.91837947108E+02 -0.24018033951E+03  0.58198543740E+03  0.40000000000E+03 0. -1.
   -9000007    1    1    2    0  503  0.33553873894E+03  0.91837947108E+02 -0.14774471504E+04  0.15696721110E+04  0.40000000000E+03 0.  1.
<mgrwt>
<rscale>  2 0.53011362E+03</rscale>
<asrwt>0</asrwt>
<pdfrwt beam="1">  1       21 0.33386928E-01 0.53011362E+03</pdfrwt>
<pdfrwt beam="2">  1       21 0.29763731E+00 0.53011362E+03</pdfrwt>
<totfact> 0.22907219E+02</totfact>
</mgrwt>
</event>
<event>
 4    1  0.4716816E-002  0.4705638E+03  0.7818608E-02  0.1021761E+00
         21   -1    0    0  501  502  0.00000000000E+00  0.00000000000E+00  0.12499785797E+04  0.12499785797E+04  0.00000000000E+00 0.  1.
         21   -1    0    0  502  503 -0.00000000000E+00 -0.00000000000E+00 -0.17719171580E+03  0.17719171580E+03  0.00000000000E+00 0. -1.
    9000007    1    1    2  501    0 -0.10978396278E+03  0.22221104148E+03  0.54769781825E+03  0.72208251991E+03  0.40000000000E+03 0.  1.
   -9000007    1    1    2    0  503  0.10978396278E+03 -0.22221104148E+03  0.52508904567E+03  0.70508777562E+03  0.40000000000E+03 0.  1.
<mgrwt>
<rscale>  2 0.47056377E+03</rscale>
<asrwt>0</asrwt>
<pdfrwt beam="1">  1       21 0.19230439E+00 0.47056377E+03</pdfrwt>
<pdfrwt beam="2">  1       21 0.27260265E-01 0.47056377E+03</pdfrwt>
<totfact> 0.16172387E+03</totfact>
</mgrwt>
</event>
<event>
 4    1  0.4716816E-002  0.5864583E+03  0.7818608E-02  0.9933906E-01
         21   -1    0    0  501  502  0.00000000000E+00  0.00000000000E+00  0.42758194772E+03  0.42758194772E+03  0.00000000000E+00 0.  1.
         21   -1    0    0  502  503 -0.00000000000E+00 -0.00000000000E+00 -0.13678134762E+04  0.13678134762E+04  0.00000000000E+00 0.  1.
    9000007    1    1    2  501    0  0.39554117240E+03  0.16577239912E+03  0.10604351814E+03  0.59596856890E+03  0.40000000000E+03 0.  1.
   -9000007    1    1    2    0  503 -0.39554117240E+03 -0.16577239912E+03 -0.10462750467E+04  0.11994268551E+04  0.40000000000E+03 0.  1.
<mgrwt>
<rscale>  2 0.58645827E+03</rscale>
<asrwt>0</asrwt>
<pdfrwt beam="1">  1       21 0.65781838E-01 0.58645827E+03</pdfrwt>
<pdfrwt beam="2">  1       21 0.21043284E+00 0.58645827E+03</pdfrwt>
<totfact> 0.18499892E+02</totfact>
</mgrwt>
</event>
<event>
 4    1  0.4716816E-002  0.4129676E+03  0.7818608E-02  0.1039380E+00
         21   -1    0    0  501  502  0.00000000000E+00  0.00000000000E+00  0.19660722867E+03  0.19660722867E+03  0.00000000000E+00 0. -1.
         21   -1    0    0  502  503 -0.00000000000E+00 -0.00000000000E+00 -0.10330796333E+04  0.10330796333E+04  0.00000000000E+00 0. -1.
    9000007    1    1    2  501    0 -0.20891432470E+02 -0.10052761329E+03 -0.66444179468E+03  0.78232036373E+03  0.40000000000E+03 0. -1.
   -9000007    1    1    2    0  503  0.20891432470E+02  0.10052761329E+03 -0.17203060993E+03  0.44736649823E+03  0.40000000000E+03 0. -1.
<mgrwt>
<rscale>  2 0.41296762E+03</rscale>
<asrwt>0</asrwt>
<pdfrwt beam="1">  1       21 0.30247267E-01 0.41296762E+03</pdfrwt>
<pdfrwt beam="2">  1       21 0.15893532E+00 0.41296762E+03</pdfrwt>
<totfact> 0.23378929E+03</totfact>
</mgrwt>
</event>
<event>
 4    1  0.4716816E-002  0.6029965E+03  0.7818608E-02  0.9899209E-01
         21   -1    0    0  503  502  0.00000000000E+00  0.00000000000E+00  0.19272348931E+04  0.19272348931E+04  0.00000000000E+00 0.  1.
         21   -1    0    0  501  503 -0.00000000000E+00 -0.00000000000E+00 -0.36004410543E+03  0.36004410543E+03  0.00000000000E+00 0.  1.
    9000007    1    1    2  501    0 -0.41060053661E+03  0.18711480403E+03 -0.54250772086E+01  0.60302088024E+03  0.40000000000E+03 0.  1.
   -9000007    1    1    2    0  502  0.41060053661E+03 -0.18711480403E+03  0.15726158649E+04  0.16842581183E+04  0.40000000000E+03 0.  1.
<mgrwt>
<rscale>  2 0.60299648E+03</rscale>
<asrwt>0</asrwt>
<pdfrwt beam="1">  1       21 0.29649767E+00 0.60299648E+03</pdfrwt>
<pdfrwt beam="2">  1       21 0.55391402E-01 0.60299648E+03</pdfrwt>
<totfact> 0.77841489E+01</totfact>
</mgrwt>
</event>
<event>
 4    1  0.4716816E-002  0.4495964E+03  0.7818608E-02  0.1027842E+00
         21   -1    0    0  501  502  0.00000000000E+00  0.00000000000E+00  0.24308364745E+03  0.24308364745E+03  0.00000000000E+00 0. -1.
         21   -1    0    0  502  503 -0.00000000000E+00 -0.00000000000E+00 -0.14664586347E+04  0.14664586347E+04  0.00000000000E+00 0. -1.
    9000007    1    1    2  501    0 -0.16268901139E+03 -0.12517688268E+03 -0.49256181827E+02  0.45228656606E+03  0.40000000000E+03 0. -1.
   -9000007    1    1    2    0  503  0.16268901139E+03  0.12517688268E+03 -0.11741188054E+04  0.12572557161E+04  0.40000000000E+03 0. -1.
<mgrwt>
<rscale>  2 0.44959645E+03</rscale>
<asrwt>0</asrwt>
<pdfrwt beam="1">  1       21 0.37397484E-01 0.44959645E+03</pdfrwt>
<pdfrwt beam="2">  1       21 0.22560902E+00 0.44959645E+03</pdfrwt>
<totfact> 0.52446360E+02</totfact>
</mgrwt>
</event>
<event>
 4    1  0.4716816E-002  0.4395756E+03  0.7818608E-02  0.1030877E+00
         21   -1    0    0  501  502  0.00000000000E+00  0.00000000000E+00  0.27013171660E+03  0.27013171660E+03  0.00000000000E+00 0.  1.
         21   -1    0    0  502  503 -0.00000000000E+00 -0.00000000000E+00 -0.10885786769E+04  0.10885786769E+04  0.00000000000E+00 0.  1.
    9000007    1    1    2  501    0  0.14643210437E+02  0.18169275729E+03 -0.11409146670E+02  0.43972360670E+03  0.40000000000E+03 0.  1.
   -9000007    1    1    2    0  503 -0.14643210437E+02 -0.18169275729E+03 -0.80703781362E+03  0.91898678678E+03  0.40000000000E+03 0.  1.
<mgrwt>
<rscale>  2 0.43957557E+03</rscale>
<asrwt>0</asrwt>
<pdfrwt beam="1">  1       21 0.41558726E-01 0.43957557E+03</pdfrwt>
<pdfrwt beam="2">  1       21 0.16747364E+00 0.43957557E+03</pdfrwt>
<totfact> 0.10486924E+03</totfact>
</mgrwt>
</event>
<event>
 4    1  0.4716816E-002  0.4151108E+03  0.7818608E-02  0.1038669E+00
         21   -1    0    0  503  502  0.00000000000E+00  0.00000000000E+00  0.11833034089E+04  0.11833034089E+04  0.00000000000E+00 0.  1.
         21   -1    0    0  501  503 -0.00000000000E+00 -0.00000000000E+00 -0.17216338341E+03  0.17216338341E+03  0.00000000000E+00 0.  1.
    9000007    1    1    2  501    0  0.10137163236E+03  0.45174461957E+02  0.23947488690E+03  0.47923393172E+03  0.40000000000E+03 0.  1.
   -9000007    1    1    2    0  502 -0.10137163236E+03 -0.45174461957E+02  0.77166513864E+03  0.87623286064E+03  0.40000000000E+03 0.  1.
<mgrwt>
<rscale>  2 0.41511076E+03</rscale>
<asrwt>0</asrwt>
<pdfrwt beam="1">  1       21 0.18204667E+00 0.41511076E+03</pdfrwt>
<pdfrwt beam="2">  1       21 0.26486675E-01 0.41511076E+03</pdfrwt>
<totfact> 0.20620655E+03</totfact>
</mgrwt>
</event>
<event>
 4    1  0.4716816E-002  0.4112927E+03  0.7818608E-02  0.1039938E+00
         21   -1    0    0  503  502  0.00000000000E+00  0.00000000000E+00  0.63163414161E+03  0.63163414161E+03  0.00000000000E+00 0. -1.
         21   -1    0    0  501  503 -0.00000000000E+00 -0.00000000000E+00 -0.29878884884E+03  0.29878884884E+03  0.00000000000E+00 0. -1.
    9000007    1    1    2  501    0  0.70802307437E+02  0.64410743565E+02  0.16640852267E+02  0.41162923680E+03  0.40000000000E+03 0. -1.
   -9000007    1    1    2    0  502 -0.70802307437E+02 -0.64410743565E+02  0.31620444051E+03  0.51879375365E+03  0.40000000000E+03 0. -1.
<mgrwt>
<rscale>  2 0.41129273E+03</rscale>
<asrwt>0</asrwt>
<pdfrwt beam="1">  1       21 0.97174483E-01 0.41129273E+03</pdfrwt>
<pdfrwt beam="2">  1       21 0.45967516E-01 0.41129273E+03</pdfrwt>
<totfact> 0.35247400E+03</totfact>
</mgrwt>
</event>
<event>
 4    1  0.4716816E-002  0.4142279E+03  0.7818608E-02  0.1038961E+00
         21   -1    0    0  503  502  0.00000000000E+00  0.00000000000E+00  0.31557812352E+03  0.31557812352E+03  0.00000000000E+00 0.  1.
         21   -1    0    0  501  503 -0.00000000000E+00 -0.00000000000E+00 -0.62927024059E+03  0.62927024059E+03  0.00000000000E+00 0.  1.
    9000007    1    1    2  501    0 -0.97733668599E+02 -0.45087614611E+02 -0.33104086174E+03  0.53025731028E+03  0.40000000000E+03 0.  1.
   -9000007    1    1    2    0  502  0.97733668599E+02  0.45087614611E+02  0.17348744675E+02  0.41459105382E+03  0.40000000000E+03 0.  1.
<mgrwt>
<rscale>  2 0.41422791E+03</rscale>
<asrwt>0</asrwt>
<pdfrwt beam="1">  1       21 0.48550481E-01 0.41422791E+03</pdfrwt>
<pdfrwt beam="2">  1       21 0.96810806E-01 0.41422791E+03</pdfrwt>
<totfact> 0.31663712E+03</totfact>
</mgrwt>
</event>
<event>
 4    1  0.4716816E-002  0.4195997E+03  0.7818608E-02  0.1037197E+00
         21   -1    0    0  503  502  0.00000000000E+00  0.00000000000E+00  0.12629382426E+03  0.12629382426E+03  0.00000000000E+00 0. -1.
         21   -1    0    0  501  503 -0.00000000000E+00 -0.00000000000E+00 -0.14160310180E+04  0.14160310180E+04  0.00000000000E+00 0. -1.
    9000007    1    1    2  501    0  0.20390010753E+02 -0.12509264521E+03 -0.54885804719E+03  0.69087558821E+03  0.40000000000E+03 0. -1.
   -9000007    1    1    2    0  502 -0.20390010753E+02  0.12509264521E+03 -0.74087914652E+03  0.85144925402E+03  0.40000000000E+03 0. -1.
<mgrwt>
<rscale>  2 0.41959972E+03</rscale>
<asrwt>0</asrwt>
<pdfrwt beam="1">  1       21 0.19429819E-01 0.41959972E+03</pdfrwt>
<pdfrwt beam="2">  1       21 0.21785093E+00 0.41959972E+03</pdfrwt>
<totfact> 0.21566271E+03</totfact>
</mgrwt>
</event>
<event>
 4    1  0.4716816E-002  0.4389262E+03  0.7818608E-02  0.1031077E+00
         21   -1    0    0  503  502  0.00000000000E+00  0.00000000000E+00  0.11182628279E+03  0.11182628279E+03  0.00000000000E+00 0. -1.
         21   -1    0    0  501  503 -0.00000000000E+00 -0.00000000000E+00 -0.17228646518E+04  0.17228646518E+04  0.00000000000E+00 0. -1.
    9000007    1    1    2  501    0 -0.17997289705E+03  0.16307301558E+02 -0.80067248617E+03  0.91308959137E+03  0.40000000000E+03 0. -1.
   -9000007    1    1    2    0  502  0.17997289705E+03 -0.16307301558E+02 -0.81036588287E+03  0.92160134325E+03  0.40000000000E+03 0. -1.
<mgrwt>
<rscale>  2 0.43892616E+03</rscale>
<asrwt>0</asrwt>
<pdfrwt beam="1">  1       21 0.17204044E-01 0.43892616E+03</pdfrwt>
<pdfrwt beam="2">  1       21 0.26505609E+00 0.43892616E+03</pdfrwt>
<totfact> 0.13697891E+03</totfact>
</mgrwt>
</event>
<event>
 4    1  0.4716816E-002  0.4618707E+03  0.7818608E-02  0.1024240E+00
         21   -1    0    0  503  502  0.00000000000E+00  0.00000000000E+00  0.38601484255E+03  0.38601484255E+03  0.00000000000E+00 0. -1.
         21   -1    0    0  501  503 -0.00000000000E+00 -0.00000000000E+00 -0.62199569808E+03  0.62199569808E+03  0.00000000000E+00 0. -1.
    9000007    1    1    2  501    0  0.55551997875E+02  0.22413941365E+03 -0.28629840276E+03  0.54340710029E+03  0.40000000000E+03 0. -1.
   -9000007    1    1    2    0  502 -0.55551997875E+02 -0.22413941365E+03  0.50317547233E+02  0.46460344034E+03  0.40000000000E+03 0. -1.
<mgrwt>
<rscale>  2 0.46187065E+03</rscale>
<asrwt>0</asrwt>
<pdfrwt beam="1">  1       21 0.59386899E-01 0.46187065E+03</pdfrwt>
<pdfrwt beam="2">  1       21 0.95691645E-01 0.46187065E+03</pdfrwt>
<totfact> 0.20740520E+03</totfact>
</mgrwt>
</event>
<event>
 4    1  0.4716816E-002  0.4239720E+03  0.7818608E-02  0.1035781E+00
         21   -1    0    0  503  502  0.00000000000E+00  0.00000000000E+00  0.16210709949E+04  0.16210709949E+04  0.00000000000E+00 0. -1.
         21   -1    0    0  501  503 -0.00000000000E+00 -0.00000000000E+00 -0.28964044827E+03  0.28964044827E+03  0.00000000000E+00 0. -1.
    9000007    1    1    2  501    0  0.11922680558E+03 -0.74412523202E+02 -0.84809961277E+02  0.43237135001E+03  0.40000000000E+03 0. -1.
   -9000007    1    1    2    0  502 -0.11922680558E+03  0.74412523202E+02  0.14162405079E+04  0.14783400932E+04  0.40000000000E+03 0. -1.
<mgrwt>
<rscale>  2 0.42397200E+03</rscale>
<asrwt>0</asrwt>
<pdfrwt beam="1">  1       21 0.24939553E+00 0.42397200E+03</pdfrwt>
<pdfrwt beam="2">  1       21 0.44560070E-01 0.42397200E+03</pdfrwt>
<totfact> 0.26342492E+02</totfact>
</mgrwt>
</event>
<event>
 4    1  0.4716816E-002  0.4174872E+03  0.7818608E-02  0.1037887E+00
         21   -1    0    0  501  502  0.00000000000E+00  0.00000000000E+00  0.45067234842E+03  0.45067234842E+03  0.00000000000E+00 0. -1.
         21   -1    0    0  502  503 -0.00000000000E+00 -0.00000000000E+00 -0.40026270168E+03  0.40026270168E+03  0.00000000000E+00 0. -1.
    9000007    1    1    2  501    0  0.11151876066E+03  0.43117653640E+02  0.10339190368E+03  0.43009935106E+03  0.40000000000E+03 0. -1.
   -9000007    1    1    2    0  503 -0.11151876066E+03 -0.43117653640E+02 -0.52982256951E+02  0.42083569904E+03  0.40000000000E+03 0. -1.
<mgrwt>
<rscale>  2 0.41748720E+03</rscale>
<asrwt>0</asrwt>
<pdfrwt beam="1">  1       21 0.69334208E-01 0.41748720E+03</pdfrwt>
<pdfrwt beam="2">  1       21 0.61578877E-01 0.41748720E+03</pdfrwt>
<totfact> 0.41102012E+03</totfact>
</mgrwt>
</event>
<event>
 4    1  0.4716816E-002  0.7825769E+03  0.7818608E-02  0.9585584E-01
         21   -1    0    0  503  502  0.00000000000E+00  0.00000000000E+00  0.90674153551E+03  0.90674153551E+03  0.00000000000E+00 0. -1.
         21   -1    0    0  501  503 -0.00000000000E+00 -0.00000000000E+00 -0.77757718190E+03  0.77757718190E+03  0.00000000000E+00 0.  1.
    9000007    1    1    2  501    0  0.65939908228E+03 -0.13273853326E+03 -0.24067648428E+03  0.81875016825E+03  0.40000000000E+03 0. -1.
   -9000007    1    1    2    0  502 -0.65939908228E+03  0.13273853326E+03  0.36984083789E+03  0.86556854916E+03  0.40000000000E+03 0.  1.
<mgrwt>
<rscale>  2 0.78257694E+03</rscale>
<asrwt>0</asrwt>
<pdfrwt beam="1">  1       21 0.13949870E+00 0.78257694E+03</pdfrwt>
<pdfrwt beam="2">  1       21 0.11962726E+00 0.78257694E+03</pdfrwt>
<totfact> 0.13728714E+02</totfact>
</mgrwt>
</event>
<event>
 4    1  0.4716816E-002  0.6996080E+03  0.7818608E-02  0.9717903E-01
         21   -1    0    0  503  502  0.00000000000E+00  0.00000000000E+00  0.37852769753E+03  0.37852769753E+03  0.00000000000E+00 0.  1.
         21   -1    0    0  501  503 -0.00000000000E+00 -0.00000000000E+00 -0.14628279917E+04  0.14628279917E+04  0.00000000000E+00 0. -1.
    9000007    1    1    2  501    0  0.14191997815E+02 -0.57380302455E+03 -0.85581437136E+03  0.11053820887E+04  0.40000000000E+03 0. -1.
   -9000007    1    1    2    0  502 -0.14191997815E+02  0.57380302455E+03 -0.22848592282E+03  0.73597360055E+03  0.40000000000E+03 0.  1.
<mgrwt>
<rscale>  2 0.69960798E+03</rscale>
<asrwt>0</asrwt>
<pdfrwt beam="1">  1       21 0.58235031E-01 0.69960798E+03</pdfrwt>
<pdfrwt beam="2">  1       21 0.22505046E+00 0.69960798E+03</pdfrwt>
<totfact> 0.18664307E+02</totfact>
</mgrwt>
</event>
<event>
 4    1  0.4716816E-002  0.7827337E+03  0.7818608E-02  0.9585351E-01
         21   -1    0    0  501  502  0.00000000000E+00  0.00000000000E+00  0.66488852370E+03  0.66488852370E+03  0.00000000000E+00 0. -1.
         21   -1    0    0  502  503 -0.00000000000E+00 -0.00000000000E+00 -0.95472938847E+03  0.95472938847E+03  0.00000000000E+00 0. -1.
    9000007    1    1    2  501    0  0.23089207597E+03  0.63195009994E+03  0.62359696092E+01  0.78275856232E+03  0.40000000000E+03 0. -1.
   -9000007    1    1    2    0  503 -0.23089207597E+03 -0.63195009994E+03 -0.29607683438E+03  0.83685934985E+03  0.40000000000E+03 0. -1.
<mgrwt>
<rscale>  2 0.78273372E+03</rscale>
<asrwt>0</asrwt>
<pdfrwt beam="1">  1       21 0.10229054E+00 0.78273372E+03</pdfrwt>
<pdfrwt beam="2">  1       21 0.14688144E+00 0.78273372E+03</pdfrwt>
<totfact> 0.17704133E+02</totfact>
</mgrwt>
</event>
<event>
 4    1  0.4716816E-002  0.4846219E+03  0.7818608E-02  0.1017873E+00
         21   -1    0    0  503  502  0.00000000000E+00  0.00000000000E+00  0.16081103015E+03  0.16081103015E+03  0.00000000000E+00 0. -1.
         21   -1    0    0  501  503 -0.00000000000E+00 -0.00000000000E+00 -0.16032600162E+04  0.16032600162E+04  0.00000000000E+00 0. -1.
    9000007    1    1    2  501    0 -0.12878408718E+03  0.24139804566E+03 -0.98446066814E+03  0.10972789822E+04  0.40000000000E+03 0. -1.
   -9000007    1    1    2    0  502  0.12878408718E+03 -0.24139804566E+03 -0.45798831795E+03  0.66679206424E+03  0.40000000000E+03 0. -1.
<mgrwt>
<rscale>  2 0.48462187E+03</rscale>
<asrwt>0</asrwt>
<pdfrwt beam="1">  1       21 0.24740158E-01 0.48462187E+03</pdfrwt>
<pdfrwt beam="2">  1       21 0.24665539E+00 0.48462187E+03</pdfrwt>
<totfact> 0.86729247E+02</totfact>
</mgrwt>
</event>
<event>
 4    1  0.4716816E-002  0.4753050E+03  0.7818608E-02  0.1020434E+00
         21   -1    0    0  501  502  0.00000000000E+00  0.00000000000E+00  0.29570491862E+03  0.29570491862E+03  0.00000000000E+00 0.  1.
         21   -1    0    0  502  503 -0.00000000000E+00 -0.00000000000E+00 -0.79902697304E+03  0.79902697304E+03  0.00000000000E+00 0.  1.
    9000007    1    1    2  501    0 -0.52984440477E+02  0.25121197007E+03 -0.13703664046E+03  0.49466538758E+03  0.40000000000E+03 0. -1.
   -9000007    1    1    2    0  503  0.52984440477E+02 -0.25121197007E+03 -0.36628541396E+03  0.60006650408E+03  0.40000000000E+03 0. -1.
<mgrwt>
<rscale>  2 0.47530496E+03</rscale>
<asrwt>0</asrwt>
<pdfrwt beam="1">  1       21 0.45493065E-01 0.47530496E+03</pdfrwt>
<pdfrwt beam="2">  1       21 0.12292723E+00 0.47530496E+03</pdfrwt>
<totfact> 0.19634339E+03</totfact>
</mgrwt>
</event>
<event>
 4    1  0.4716816E-002  0.6357733E+03  0.7818608E-02  0.9833847E-01
         21   -1    0    0  501  502  0.00000000000E+00  0.00000000000E+00  0.10416896369E+04  0.10416896369E+04  0.00000000000E+00 0.  1.
         21   -1    0    0  502  503 -0.00000000000E+00 -0.00000000000E+00 -0.54542859352E+03  0.54542859352E+03  0.00000000000E+00 0.  1.
    9000007    1    1    2  501    0 -0.17663251670E+03  0.46152862351E+03  0.67442487827E+03  0.92685308043E+03  0.40000000000E+03 0.  1.
   -9000007    1    1    2    0  503  0.17663251670E+03 -0.46152862351E+03 -0.17816383486E+03  0.66026515002E+03  0.40000000000E+03 0.  1.
<mgrwt>
<rscale>  2 0.63577332E+03</rscale>
<asrwt>0</asrwt>
<pdfrwt beam="1">  1       21 0.16025994E+00 0.63577332E+03</pdfrwt>
<pdfrwt beam="2">  1       21 0.83912091E-01 0.63577332E+03</pdfrwt>
<totfact> 0.23453879E+02</totfact>
</mgrwt>
</event>
<event>
 4    1  0.4716816E-002  0.5158014E+03  0.7818608E-02  0.1009735E+00
         21   -1    0    0  501  502  0.00000000000E+00  0.00000000000E+00  0.47130396378E+03  0.47130396378E+03  0.00000000000E+00 0.  1.
         21   -1    0    0  502  503 -0.00000000000E+00 -0.00000000000E+00 -0.12137305340E+04  0.12137305340E+04  0.00000000000E+00 0. -1.
    9000007    1    1    2  501    0 -0.25572045809E+03  0.20163860504E+03  0.24498024805E+03  0.57102224270E+03  0.40000000000E+03 0.  1.
   -9000007    1    1    2    0  503  0.25572045809E+03 -0.20163860504E+03 -0.98740681831E+03  0.11140122551E+04  0.40000000000E+03 0. -1.
<mgrwt>
<rscale>  2 0.51580140E+03</rscale>
<asrwt>0</asrwt>
<pdfrwt beam="1">  1       21 0.72508302E-01 0.51580140E+03</pdfrwt>
<pdfrwt beam="2">  1       21 0.18672777E+00 0.51580140E+03</pdfrwt>
<totfact> 0.22132029E+02</totfact>
</mgrwt>
</event>
<event>
 4    1  0.4716816E-002  0.5277591E+03  0.7818608E-02  0.1006777E+00
         21   -1    0    0  501  502  0.00000000000E+00  0.00000000000E+00  0.20476647803E+04  0.20476647803E+04  0.00000000000E+00 0.  1.
         21   -1    0    0  502  503 -0.00000000000E+00 -0.00000000000E+00 -0.20912642647E+03  0.20912642647E+03  0.00000000000E+00 0.  1.
    9000007    1    1    2  501    0 -0.32898705187E+03  0.10147513367E+03  0.15864223219E+04  0.16719047421E+04  0.40000000000E+03 0.  1.
   -9000007    1    1    2    0  503  0.32898705187E+03 -0.10147513367E+03  0.25211603190E+03  0.58488646470E+03  0.40000000000E+03 0.  1.
<mgrwt>
<rscale>  2 0.52775911E+03</rscale>
<asrwt>0</asrwt>
<pdfrwt beam="1">  1       21 0.31502534E+00 0.52775911E+03</pdfrwt>
<pdfrwt beam="2">  1       21 0.32173298E-01 0.52775911E+03</pdfrwt>
<totfact> 0.19386593E+02</totfact>
</mgrwt>
</event>
<event>
 4    1  0.4716816E-002  0.6763569E+03  0.7818608E-02  0.9758542E-01
         21   -1    0    0  501  502  0.00000000000E+00  0.00000000000E+00  0.14008714337E+04  0.14008714337E+04  0.00000000000E+00 0.  1.
         21   -1    0    0  502  503 -0.00000000000E+00 -0.00000000000E+00 -0.36157058151E+03  0.36157058151E+03  0.00000000000E+00 0.  1.
    9000007    1    1    2  501    0  0.41382502925E+03 -0.35525688414E+03  0.79389123651E+03  0.10429390701E+04  0.40000000000E+03 0.  1.
   -9000007    1    1    2    0  503 -0.41382502925E+03  0.35525688414E+03  0.24540961571E+03  0.71950294513E+03  0.40000000000E+03 0.  1.
<mgrwt>
<rscale>  2 0.67635686E+03</rscale>
<asrwt>0</asrwt>
<pdfrwt beam="1">  1       21 0.21551868E+00 0.67635686E+03</pdfrwt>
<pdfrwt beam="2">  1       21 0.55626244E-01 0.67635686E+03</pdfrwt>
<totfact> 0.23997629E+02</totfact>
</mgrwt>
</event>
<event>
 4    1  0.4716816E-002  0.4223787E+03  0.7818608E-02  0.1036295E+00
         21   -1    0    0  503  502  0.00000000000E+00  0.00000000000E+00  0.41701358104E+03  0.41701358104E+03  0.00000000000E+00 0. -1.
         21   -1    0    0  501  503 -0.00000000000E+00 -0.00000000000E+00 -0.45156203458E+03  0.45156203458E+03  0.00000000000E+00 0. -1.
    9000007    1    1    2  501    0 -0.18502703288E+01  0.13564786500E+03 -0.11687055270E+03  0.43824935010E+03  0.40000000000E+03 0.  1.
   -9000007    1    1    2    0  502  0.18502703288E+01 -0.13564786500E+03  0.82322099161E+02  0.43032626551E+03  0.40000000000E+03 0.  1.
<mgrwt>
<rscale>  2 0.42237870E+03</rscale>
<asrwt>0</asrwt>
<pdfrwt beam="1">  1       21 0.64155936E-01 0.42237870E+03</pdfrwt>
<pdfrwt beam="2">  1       21 0.69471082E-01 0.42237870E+03</pdfrwt>
<totfact> 0.37315872E+03</totfact>
</mgrwt>
</event>
<event>
 4    1  0.4716816E-002  0.4308762E+03  0.7818608E-02  0.1033584E+00
         21   -1    0    0  503  502  0.00000000000E+00  0.00000000000E+00  0.11472468357E+03  0.11472468357E+03  0.00000000000E+00 0. -1.
         21   -1    0    0  501  503 -0.00000000000E+00 -0.00000000000E+00 -0.16182591467E+04  0.16182591467E+04  0.00000000000E+00 0.  1.
    9000007    1    1    2  501    0  0.14620636638E+03  0.65406086909E+02 -0.75155857280E+03  0.86631088307E+03  0.40000000000E+03 0. -1.
   -9000007    1    1    2    0  502 -0.14620636638E+03 -0.65406086909E+02 -0.75197589032E+03  0.86667294720E+03  0.40000000000E+03 0.  1.
<mgrwt>
<rscale>  2 0.43087615E+03</rscale>
<asrwt>0</asrwt>
<pdfrwt beam="1">  1       21 0.17649952E-01 0.43087615E+03</pdfrwt>
<pdfrwt beam="2">  1       21 0.24896293E+00 0.43087615E+03</pdfrwt>
<totfact> 0.16430194E+03</totfact>
</mgrwt>
</event>
<event>
 4    1  0.4716816E-002  0.4084162E+03  0.7818608E-02  0.1040904E+00
         21   -1    0    0  501  502  0.00000000000E+00  0.00000000000E+00  0.80598489517E+03  0.80598489517E+03  0.00000000000E+00 0. -1.
         21   -1    0    0  502  503 -0.00000000000E+00 -0.00000000000E+00 -0.29242836086E+03  0.29242836086E+03  0.00000000000E+00 0. -1.
    9000007    1    1    2  501    0  0.19612786079E+02 -0.80119299454E+02 -0.40140576375E+02  0.41038400236E+03  0.40000000000E+03 0. -1.
   -9000007    1    1    2    0  503 -0.19612786079E+02  0.80119299454E+02  0.55369711069E+03  0.68802925367E+03  0.40000000000E+03 0. -1.
<mgrwt>
<rscale>  2 0.40841616E+03</rscale>
<asrwt>0</asrwt>
<pdfrwt beam="1">  1       21 0.12399768E+00 0.40841616E+03</pdfrwt>
<pdfrwt beam="2">  1       21 0.44988979E-01 0.40841616E+03</pdfrwt>
<totfact> 0.20179340E+03</totfact>
</mgrwt>
</event>
<event>
 4    1  0.4716816E-002  0.4129289E+03  0.7818608E-02  0.1039393E+00
         21   -1    0    0  501  502  0.00000000000E+00  0.00000000000E+00  0.22058461382E+03  0.22058461382E+03  0.00000000000E+00 0.  1.
         21   -1    0    0  502  503 -0.00000000000E+00 -0.00000000000E+00 -0.98111811927E+03  0.98111811927E+03  0.00000000000E+00 0. -1.
    9000007    1    1    2  501    0  0.32199908128E+02 -0.97331662091E+02 -0.10352861521E+03  0.42570936177E+03  0.40000000000E+03 0.  1.
   -9000007    1    1    2    0  503 -0.32199908128E+02  0.97331662091E+02 -0.65700489025E+03  0.77599337132E+03  0.40000000000E+03 0. -1.
<mgrwt>
<rscale>  2 0.41292891E+03</rscale>
<asrwt>0</asrwt>
<pdfrwt beam="1">  1       21 0.33936095E-01 0.41292891E+03</pdfrwt>
<pdfrwt beam="2">  1       21 0.15094125E+00 0.41292891E+03</pdfrwt>
<totfact> 0.21398073E+03</totfact>
</mgrwt>
</event>
<event>
 4    1  0.4716816E-002  0.4091144E+03  0.7818608E-02  0.1040669E+00
         21   -1    0    0  503  502  0.00000000000E+00  0.00000000000E+00  0.76086366258E+03  0.76086366258E+03  0.00000000000E+00 0. -1.
         21   -1    0    0  501  503 -0.00000000000E+00 -0.00000000000E+00 -0.37288320997E+03  0.37288320997E+03  0.00000000000E+00 0. -1.
    9000007    1    1    2  501    0  0.53248112734E+02 -0.67373777343E+02 -0.16901123130E+03  0.44265040799E+03  0.40000000000E+03 0. -1.
   -9000007    1    1    2    0  502 -0.53248112734E+02  0.67373777343E+02  0.55699168392E+03  0.69109646457E+03  0.40000000000E+03 0. -1.
<mgrwt>
<rscale>  2 0.40911439E+03</rscale>
<asrwt>0</asrwt>
<pdfrwt beam="1">  1       21 0.11705595E+00 0.40911439E+03</pdfrwt>
<pdfrwt beam="2">  1       21 0.57366648E-01 0.40911439E+03</pdfrwt>
<totfact> 0.13919184E+03</totfact>
</mgrwt>
</event>
<event>
 4    1  0.4716816E-002  0.4761618E+03  0.7818608E-02  0.1020195E+00
         21   -1    0    0  501  502  0.00000000000E+00  0.00000000000E+00  0.25670244229E+03  0.25670244229E+03  0.00000000000E+00 0.  1.
         21   -1    0    0  502  503 -0.00000000000E+00 -0.00000000000E+00 -0.22172900420E+04  0.22172900420E+04  0.00000000000E+00 0.  1.
    9000007    1    1    2  501    0 -0.11636990930E+03  0.23062536912E+03 -0.20797970454E+02  0.47661574906E+03  0.40000000000E+03 0.  1.
   -9000007    1    1    2    0  503  0.11636990930E+03 -0.23062536912E+03 -0.19397896292E+04  0.19973767352E+04  0.40000000000E+03 0.  1.
<mgrwt>
<rscale>  2 0.47616175E+03</rscale>
<asrwt>0</asrwt>
<pdfrwt beam="1">  1       21 0.39492683E-01 0.47616175E+03</pdfrwt>
<pdfrwt beam="2">  1       21 0.34112155E+00 0.47616175E+03</pdfrwt>
<totfact> 0.91316244E+01</totfact>
</mgrwt>
</event>
<event>
 4    1  0.4716816E-002  0.4011171E+03  0.7818608E-02  0.1043394E+00
         21   -1    0    0  501  502  0.00000000000E+00  0.00000000000E+00  0.22848115031E+04  0.22848115031E+04  0.00000000000E+00 0. -1.
         21   -1    0    0  502  503 -0.00000000000E+00 -0.00000000000E+00 -0.74862921461E+02  0.74862921461E+02  0.00000000000E+00 0. -1.
    9000007    1    1    2  501    0  0.27914583869E+02  0.10755564218E+02  0.81752877882E+03  0.91063066627E+03  0.40000000000E+03 0. -1.
   -9000007    1    1    2    0  503 -0.27914583869E+02 -0.10755564218E+02  0.13924198028E+04  0.14490437583E+04  0.40000000000E+03 0. -1.
<mgrwt>
<rscale>  2 0.40111707E+03</rscale>
<asrwt>0</asrwt>
<pdfrwt beam="1">  1       21 0.35150941E+00 0.40111707E+03</pdfrwt>
<pdfrwt beam="2">  1       21 0.11517374E-01 0.40111707E+03</pdfrwt>
<totfact> 0.88344913E+02</totfact>
</mgrwt>
</event>
<event>
 4    1  0.4716816E-002  0.4312933E+03  0.7818608E-02  0.1033452E+00
         21   -1    0    0  503  502  0.00000000000E+00  0.00000000000E+00  0.43309713541E+03  0.43309713541E+03  0.00000000000E+00 0. -1.
         21   -1    0    0  501  503 -0.00000000000E+00 -0.00000000000E+00 -0.77773517265E+03  0.77773517265E+03  0.00000000000E+00 0. -1.
    9000007    1    1    2  501    0  0.85258566749E+02 -0.13691186674E+03 -0.57743220251E+03  0.72072313058E+03  0.40000000000E+03 0. -1.
   -9000007    1    1    2    0  502 -0.85258566749E+02  0.13691186674E+03  0.23279416527E+03  0.49010917747E+03  0.40000000000E+03 0. -1.
<mgrwt>
<rscale>  2 0.43129327E+03</rscale>
<asrwt>0</asrwt>
<pdfrwt beam="1">  1       21 0.66630330E-01 0.43129327E+03</pdfrwt>
<pdfrwt beam="2">  1       21 0.11965156E+00 0.43129327E+03</pdfrwt>
<totfact> 0.93833274E+02</totfact>
</mgrwt>
</event>
<event>
 4    1  0.4716816E-002  0.5359526E+03  0.7818608E-02  0.1004799E+00
         21   -1    0    0  503  502  0.00000000000E+00  0.00000000000E+00  0.32923946039E+03  0.32923946039E+03  0.00000000000E+00 0.  1.
         21   -1    0    0  501  503 -0.00000000000E+00 -0.00000000000E+00 -0.11496954167E+04  0.11496954167E+04  0.00000000000E+00 0.  1.
    9000007    1    1    2  501    0 -0.35661547094E+03 -0.84017362345E+01 -0.77335563634E+03  0.94091664006E+03  0.40000000000E+03 0.  1.
   -9000007    1    1    2    0  502  0.35661547094E+03  0.84017362345E+01 -0.47100320021E+02  0.53801823708E+03  0.40000000000E+03 0.  1.
<mgrwt>
<rscale>  2 0.53595259E+03</rscale>
<asrwt>0</asrwt>
<pdfrwt beam="1">  1       21 0.50652224E-01 0.53595259E+03</pdfrwt>
<pdfrwt beam="2">  1       21 0.17687622E+00 0.53595259E+03</pdfrwt>
<totfact> 0.56781853E+02</totfact>
</mgrwt>
</event>
<event>
 4    1  0.4716816E-002  0.4651504E+03  0.7818608E-02  0.1023298E+00
         21   -1    0    0  501  502  0.00000000000E+00  0.00000000000E+00  0.54653681995E+03  0.54653681995E+03  0.00000000000E+00 0.  1.
         21   -1    0    0  502  503 -0.00000000000E+00 -0.00000000000E+00 -0.43618484912E+03  0.43618484912E+03  0.00000000000E+00 0. -1.
    9000007    1    1    2  501    0 -0.18621898136E+03  0.14726636217E+03  0.20453286289E+03  0.50813244577E+03  0.40000000000E+03 0. -1.
   -9000007    1    1    2    0  503  0.18621898136E+03 -0.14726636217E+03 -0.94180892057E+02  0.47458922330E+03  0.40000000000E+03 0. -1.
<mgrwt>
<rscale>  2 0.46515040E+03</rscale>
<asrwt>0</asrwt>
<pdfrwt beam="1">  1       21 0.84082587E-01 0.46515040E+03</pdfrwt>
<pdfrwt beam="2">  1       21 0.67105362E-01 0.46515040E+03</pdfrwt>
<totfact> 0.21475480E+03</totfact>
</mgrwt>
</event>
<event>
 4    1  0.4716816E-002  0.4474885E+03  0.7818608E-02  0.1028474E+00
         21   -1    0    0  501  502  0.00000000000E+00  0.00000000000E+00  0.38637906407E+03  0.38637906407E+03  0.00000000000E+00 0.  1.
         21   -1    0    0  502  503 -0.00000000000E+00 -0.00000000000E+00 -0.64733084098E+03  0.64733084098E+03  0.00000000000E+00 0. -1.
    9000007    1    1    2  501    0  0.18886500596E+03  0.67646084399E+02  0.10031279535E+03  0.45859419983E+03  0.40000000000E+03 0.  1.
   -9000007    1    1    2    0  503 -0.18886500596E+03 -0.67646084399E+02 -0.36126457227E+03  0.57511570521E+03  0.40000000000E+03 0. -1.
<mgrwt>
<rscale>  2 0.44748853E+03</rscale>
<asrwt>0</asrwt>
<pdfrwt beam="1">  1       21 0.59442933E-01 0.44748853E+03</pdfrwt>
<pdfrwt beam="2">  1       21 0.99589360E-01 0.44748853E+03</pdfrwt>
<totfact> 0.18898689E+03</totfact>
</mgrwt>
</event>
<event>
 4    1  0.4716816E-002  0.5790275E+03  0.7818608E-02  0.9949899E-01
         21   -1    0    0  503  502  0.00000000000E+00  0.00000000000E+00  0.18560329753E+04  0.18560329753E+04  0.00000000000E+00 0.  1.
         21   -1    0    0  501  503 -0.00000000000E+00 -0.00000000000E+00 -0.22329705169E+03  0.22329705169E+03  0.00000000000E+00 0.  1.
    9000007    1    1    2  501    0  0.19737355122E+03 -0.36921064112E+03  0.36195570022E+03  0.68285045593E+03  0.40000000000E+03 0.  1.
   -9000007    1    1    2    0  502 -0.19737355122E+03  0.36921064112E+03  0.12707802234E+04  0.13964795711E+04  0.40000000000E+03 0.  1.
<mgrwt>
<rscale>  2 0.57902747E+03</rscale>
<asrwt>0</asrwt>
<pdfrwt beam="1">  1       21 0.28554352E+00 0.57902747E+03</pdfrwt>
<pdfrwt beam="2">  1       21 0.34353394E-01 0.57902747E+03</pdfrwt>
<totfact> 0.25015147E+02</totfact>
</mgrwt>
</event>
<event>
 4    1  0.4716816E-002  0.4066615E+03  0.7818608E-02  0.1041497E+00
         21   -1    0    0  501  502  0.00000000000E+00  0.00000000000E+00  0.13511992311E+04  0.13511992311E+04  0.00000000000E+00 0. -1.
         21   -1    0    0  502  503 -0.00000000000E+00 -0.00000000000E+00 -0.39215494730E+03  0.39215494730E+03  0.00000000000E+00 0. -1.
    9000007    1    1    2  501    0  0.10935742061E+02  0.72484286345E+02  0.12024906317E+04  0.12693924852E+04  0.40000000000E+03 0. -1.
   -9000007    1    1    2    0  503 -0.10935742061E+02 -0.72484286345E+02 -0.24344634795E+03  0.47396169313E+03  0.40000000000E+03 0. -1.
<mgrwt>
<rscale>  2 0.40666148E+03</rscale>
<asrwt>0</asrwt>
<pdfrwt beam="1">  1       21 0.20787680E+00 0.40666148E+03</pdfrwt>
<pdfrwt beam="2">  1       21 0.60331531E-01 0.40666148E+03</pdfrwt>
<totfact> 0.25430636E+02</totfact>
</mgrwt>
</event>
<event>
 4    1  0.4716816E-002  0.4105506E+03  0.7818608E-02  0.1040186E+00
         21   -1    0    0  503  502  0.00000000000E+00  0.00000000000E+00  0.18138805150E+03  0.18138805150E+03  0.00000000000E+00 0. -1.
         21   -1    0    0  501  503 -0.00000000000E+00 -0.00000000000E+00 -0.24171138200E+04  0.24171138200E+04  0.00000000000E+00 0. -1.
    9000007    1    1    2  501    0 -0.31385760067E+02  0.86987088096E+02 -0.21372250608E+04  0.21763002504E+04  0.40000000000E+03 0. -1.
   -9000007    1    1    2    0  502  0.31385760067E+02 -0.86987088096E+02 -0.98500707687E+02  0.42220162108E+03  0.40000000000E+03 0. -1.
<mgrwt>
<rscale>  2 0.41055063E+03</rscale>
<asrwt>0</asrwt>
<pdfrwt beam="1">  1       21 0.27905859E-01 0.41055063E+03</pdfrwt>
<pdfrwt beam="2">  1       21 0.37186360E+00 0.41055063E+03</pdfrwt>
<totfact> 0.12415156E+02</totfact>
</mgrwt>
</event>
<event>
 4    1  0.4716816E-002  0.5570366E+03  0.7818608E-02  0.9998782E-01
         21   -1    0    0  501  502  0.00000000000E+00  0.00000000000E+00  0.10373525774E+04  0.10373525774E+04  0.00000000000E+00 0.  1.
         21   -1    0    0  502  503 -0.00000000000E+00 -0.00000000000E+00 -0.50958054714E+03  0.50958054714E+03  0.00000000000E+00 0. -1.
    9000007    1    1    2  501    0  0.33723196855E+03 -0.19121798849E+03  0.76096297868E+03  0.94305587038E+03  0.40000000000E+03 0. -1.
   -9000007    1    1    2    0  503 -0.33723196855E+03  0.19121798849E+03 -0.23319094837E+03  0.60387725420E+03  0.40000000000E+03 0. -1.
<mgrwt>
<rscale>  2 0.55703655E+03</rscale>
<asrwt>0</asrwt>
<pdfrwt beam="1">  1       21 0.15959270E+00 0.55703655E+03</pdfrwt>
<pdfrwt beam="2">  1       21 0.78397008E-01 0.55703655E+03</pdfrwt>
<totfact> 0.28628617E+02</totfact>
</mgrwt>
</event>
<event>
 4    1  0.4716816E-002  0.4348083E+03  0.7818608E-02  0.1032352E+00
         21   -1    0    0  501  502  0.00000000000E+00  0.00000000000E+00  0.45996894824E+03  0.45996894824E+03  0.00000000000E+00 0. -1.
         21   -1    0    0  502  503 -0.00000000000E+00 -0.00000000000E+00 -0.15836170139E+04  0.15836170139E+04  0.00000000000E+00 0. -1.
    9000007    1    1    2  501    0  0.13734554789E+03 -0.10096777124E+03  0.31742415399E+03  0.53834597044E+03  0.40000000000E+03 0. -1.
   -9000007    1    1    2    0  503 -0.13734554789E+03  0.10096777124E+03 -0.14410722197E+04  0.15052399917E+04  0.40000000000E+03 0. -1.
<mgrwt>
<rscale>  2 0.43480834E+03</rscale>
<asrwt>0</asrwt>
<pdfrwt beam="1">  1       21 0.70764453E-01 0.43480834E+03</pdfrwt>
<pdfrwt beam="2">  1       21 0.24363339E+00 0.43480834E+03</pdfrwt>
<totfact> 0.10421806E+02</totfact>
</mgrwt>
</event>
<event>
 4    1  0.4716816E-002  0.5886230E+03  0.7818608E-02  0.9929295E-01
         21   -1    0    0  503  502  0.00000000000E+00  0.00000000000E+00  0.57931028753E+03  0.57931028753E+03  0.00000000000E+00 0. -1.
         21   -1    0    0  501  503 -0.00000000000E+00 -0.00000000000E+00 -0.60122313275E+03  0.60122313275E+03  0.00000000000E+00 0.  1.
    9000007    1    1    2  501    0 -0.26740680014E+03 -0.33907313249E+03 -0.53598965603E+02  0.59105823321E+03  0.40000000000E+03 0. -1.
   -9000007    1    1    2    0  502  0.26740680014E+03  0.33907313249E+03  0.31686120383E+02  0.58947518706E+03  0.40000000000E+03 0. -1.
<mgrwt>
<rscale>  2 0.58862296E+03</rscale>
<asrwt>0</asrwt>
<pdfrwt beam="1">  1       21 0.89124659E-01 0.58862296E+03</pdfrwt>
<pdfrwt beam="2">  1       21 0.92495867E-01 0.58862296E+03</pdfrwt>
<totfact> 0.85481491E+02</totfact>
</mgrwt>
</event>
<event>
 4    1  0.4716816E-002  0.5245507E+03  0.7818608E-02  0.1007562E+00
         21   -1    0    0  503  502  0.00000000000E+00  0.00000000000E+00  0.34526600666E+03  0.34526600666E+03  0.00000000000E+00 0.  1.
         21   -1    0    0  501  503 -0.00000000000E+00 -0.00000000000E+00 -0.89239995436E+03  0.89239995436E+03  0.00000000000E+00 0.  1.
    9000007    1    1    2  501    0  0.10303933211E+03  0.32332082499E+03 -0.47597277099E+03  0.70831034057E+03  0.40000000000E+03 0.  1.
   -9000007    1    1    2    0  502 -0.10303933211E+03 -0.32332082499E+03 -0.71161176716E+02  0.52935562045E+03  0.40000000000E+03 0.  1.
<mgrwt>
<rscale>  2 0.52455072E+03</rscale>
<asrwt>0</asrwt>
<pdfrwt beam="1">  1       21 0.53117847E-01 0.52455072E+03</pdfrwt>
<pdfrwt beam="2">  1       21 0.13729230E+00 0.52455072E+03</pdfrwt>
<totfact> 0.10404794E+03</totfact>
</mgrwt>
</event>
<event>
 4    1  0.4716816E-002  0.4586311E+03  0.7818608E-02  0.1025179E+00
         21   -1    0    0  501  502  0.00000000000E+00  0.00000000000E+00  0.50283154702E+03  0.50283154702E+03  0.00000000000E+00 0. -1.
         21   -1    0    0  502  503 -0.00000000000E+00 -0.00000000000E+00 -0.43155538048E+03  0.43155538048E+03  0.00000000000E+00 0.  1.
    9000007    1    1    2  501    0  0.12382714333E+03 -0.18710786473E+03  0.11746783697E+03  0.47343553647E+03  0.40000000000E+03 0.  1.
   -9000007    1    1    2    0  503 -0.12382714333E+03  0.18710786473E+03 -0.46191670429E+02  0.46095139103E+03  0.40000000000E+03 0.  1.
<mgrwt>
<rscale>  2 0.45863113E+03</rscale>
<asrwt>0</asrwt>
<pdfrwt beam="1">  1       21 0.77358699E-01 0.45863113E+03</pdfrwt>
<pdfrwt beam="2">  1       21 0.66393136E-01 0.45863113E+03</pdfrwt>
<totfact> 0.26737792E+03</totfact>
</mgrwt>
</event>
<event>
 4    1  0.4716816E-002  0.4377995E+03  0.7818608E-02  0.1031424E+00
         21   -1    0    0  503  502  0.00000000000E+00  0.00000000000E+00  0.87365462196E+03  0.87365462196E+03  0.00000000000E+00 0.  1.
         21   -1    0    0  501  503 -0.00000000000E+00 -0.00000000000E+00 -0.23519198186E+03  0.23519198186E+03  0.00000000000E+00 0.  1.
    9000007    1    1    2  501    0  0.16629868403E+03  0.63349754746E+02  0.17550788824E+03  0.47166880602E+03  0.40000000000E+03 0.  1.
   -9000007    1    1    2    0  502 -0.16629868403E+03 -0.63349754746E+02  0.46295475187E+03  0.63717779780E+03  0.40000000000E+03 0.  1.
<mgrwt>
<rscale>  2 0.43779955E+03</rscale>
<asrwt>0</asrwt>
<pdfrwt beam="1">  1       21 0.13440840E+00 0.43779955E+03</pdfrwt>
<pdfrwt beam="2">  1       21 0.36183382E-01 0.43779955E+03</pdfrwt>
<totfact> 0.25356913E+03</totfact>
</mgrwt>
</event>
<event>
 4    1  0.4716816E-002  0.4733655E+03  0.7818608E-02  0.1020975E+00
         21   -1    0    0  501  502  0.00000000000E+00  0.00000000000E+00  0.62231471891E+03  0.62231471891E+03  0.00000000000E+00 0.  1.
         21   -1    0    0  502  503 -0.00000000000E+00 -0.00000000000E+00 -0.37669289081E+03  0.37669289081E+03  0.00000000000E+00 0. -1.
    9000007    1    1    2  501    0 -0.39745211409E+02 -0.24999036365E+03  0.17871101980E+02  0.47370269160E+03  0.40000000000E+03 0.  1.
   -9000007    1    1    2    0  503  0.39745211409E+02  0.24999036365E+03  0.22775072612E+03  0.52530491811E+03  0.40000000000E+03 0. -1.
<mgrwt>
<rscale>  2 0.47336547E+03</rscale>
<asrwt>0</asrwt>
<pdfrwt beam="1">  1       21 0.95740726E-01 0.47336547E+03</pdfrwt>
<pdfrwt beam="2">  1       21 0.57952753E-01 0.47336547E+03</pdfrwt>
<totfact> 0.21761368E+03</totfact>
</mgrwt>
</event>
<event>
 4    1  0.4716816E-002  0.4786996E+03  0.7818608E-02  0.1019493E+00
         21   -1    0    0  501  502  0.00000000000E+00  0.00000000000E+00  0.19695738352E+03  0.19695738352E+03  0.00000000000E+00 0.  1.
         21   -1    0    0  502  503 -0.00000000000E+00 -0.00000000000E+00 -0.12199140351E+04  0.12199140351E+04  0.00000000000E+00 0.  1.
    9000007    1    1    2  501    0  0.47144550015E+00 -0.26296976718E+03 -0.35908769679E+03  0.59841231162E+03  0.40000000000E+03 0.  1.
   -9000007    1    1    2    0  503 -0.47144550015E+00  0.26296976718E+03 -0.66386895481E+03  0.81845910702E+03  0.40000000000E+03 0.  1.
<mgrwt>
<rscale>  2 0.47869961E+03</rscale>
<asrwt>0</asrwt>
<pdfrwt beam="1">  1       21 0.30301136E-01 0.47869961E+03</pdfrwt>
<pdfrwt beam="2">  1       21 0.18767908E+00 0.47869961E+03</pdfrwt>
<totfact> 0.14063282E+03</totfact>
</mgrwt>
</event>
<event>
 4    1  0.4716816E-002  0.5031182E+03  0.7818608E-02  0.1012968E+00
         21   -1    0    0  501  502  0.00000000000E+00  0.00000000000E+00  0.11697132282E+04  0.11697132282E+04  0.00000000000E+00 0. -1.
         21   -1    0    0  502  503 -0.00000000000E+00 -0.00000000000E+00 -0.24939224833E+03  0.24939224833E+03  0.00000000000E+00 0. -1.
    9000007    1    1    2  501    0 -0.25870171468E+03  0.16186830119E+03  0.20209019900E+03  0.54218850287E+03  0.40000000000E+03 0. -1.
   -9000007    1    1    2    0  503  0.25870171468E+03 -0.16186830119E+03  0.71823078083E+03  0.87691697363E+03  0.40000000000E+03 0. -1.
<mgrwt>
<rscale>  2 0.50311820E+03</rscale>
<asrwt>0</asrwt>
<pdfrwt beam="1">  1       21 0.17995588E+00 0.50311820E+03</pdfrwt>
<pdfrwt beam="2">  1       21 0.38368039E-01 0.50311820E+03</pdfrwt>
<totfact> 0.97855848E+02</totfact>
</mgrwt>
</event>
<event>
 4    1  0.4716816E-002  0.4189805E+03  0.7818608E-02  0.1037399E+00
         21   -1    0    0  501  502  0.00000000000E+00  0.00000000000E+00  0.12927062840E+04  0.12927062840E+04  0.00000000000E+00 0. -1.
         21   -1    0    0  502  503 -0.00000000000E+00 -0.00000000000E+00 -0.13603296327E+03  0.13603296327E+03  0.00000000000E+00 0. -1.
    9000007    1    1    2  501    0 -0.37893645367E+02 -0.11878007539E+03  0.54853542694E+03  0.69024325370E+03  0.40000000000E+03 0.  1.
   -9000007    1    1    2    0  503  0.37893645367E+02  0.11878007539E+03  0.60813789379E+03  0.73849599358E+03  0.40000000000E+03 0.  1.
<mgrwt>
<rscale>  2 0.41898047E+03</rscale>
<asrwt>0</asrwt>
<pdfrwt beam="1">  1       21 0.19887788E+00 0.41898047E+03</pdfrwt>
<pdfrwt beam="2">  1       21 0.20928149E-01 0.41898047E+03</pdfrwt>
<totfact> 0.24909381E+03</totfact>
</mgrwt>
</event>
<event>
 4    1  0.4716816E-002  0.6305283E+03  0.7818608E-02  0.9844018E-01
         21   -1    0    0  503  502  0.00000000000E+00  0.00000000000E+00  0.48682798730E+03  0.48682798730E+03  0.00000000000E+00 0.  1.
         21   -1    0    0  501  503 -0.00000000000E+00 -0.00000000000E+00 -0.11473414739E+04  0.11473414739E+04  0.00000000000E+00 0. -1.
    9000007    1    1    2  501    0 -0.44062715574E+03 -0.20835936190E+03 -0.76892394378E+03  0.99438923234E+03  0.40000000000E+03 0. -1.
   -9000007    1    1    2    0  502  0.44062715574E+03  0.20835936190E+03  0.10841045715E+03  0.63978022890E+03  0.40000000000E+03 0.  1.
<mgrwt>
<rscale>  2 0.63052828E+03</rscale>
<asrwt>0</asrwt>
<pdfrwt beam="1">  1       21 0.74896614E-01 0.63052828E+03</pdfrwt>
<pdfrwt beam="2">  1       21 0.17651407E+00 0.63052828E+03</pdfrwt>
<totfact> 0.23185652E+02</totfact>
</mgrwt>
</event>
<event>
 4    1  0.4716816E-002  0.4663248E+03  0.7818608E-02  0.1022963E+00
         21   -1    0    0  503  502  0.00000000000E+00  0.00000000000E+00  0.41727948997E+03  0.41727948997E+03  0.00000000000E+00 0.  1.
         21   -1    0    0  501  503 -0.00000000000E+00 -0.00000000000E+00 -0.80930689610E+03  0.80930689610E+03  0.00000000000E+00 0.  1.
    9000007    1    1    2  501    0  0.50352465232E+02  0.23435749672E+03 -0.56197704828E+03  0.73025818025E+03  0.40000000000E+03 0.  1.
   -9000007    1    1    2    0  502 -0.50352465232E+02 -0.23435749672E+03  0.16994964214E+03  0.49632820582E+03  0.40000000000E+03 0.  1.
<mgrwt>
<rscale>  2 0.46632479E+03</rscale>
<asrwt>0</asrwt>
<pdfrwt beam="1">  1       21 0.64196846E-01 0.46632479E+03</pdfrwt>
<pdfrwt beam="2">  1       21 0.12450875E+00 0.46632479E+03</pdfrwt>
<totfact> 0.90710433E+02</totfact>
</mgrwt>
</event>
<event>
 4    1  0.4716816E-002  0.4432959E+03  0.7818608E-02  0.1029740E+00
         21   -1    0    0  503  502  0.00000000000E+00  0.00000000000E+00  0.21663715418E+03  0.21663715418E+03  0.00000000000E+00 0. -1.
         21   -1    0    0  501  503 -0.00000000000E+00 -0.00000000000E+00 -0.18200158613E+04  0.18200158613E+04  0.00000000000E+00 0. -1.
    9000007    1    1    2  501    0 -0.57066693762E+02 -0.18235866093E+03 -0.15229049992E+04  0.15861118893E+04  0.40000000000E+03 0. -1.
   -9000007    1    1    2    0  502  0.57066693762E+02  0.18235866093E+03 -0.80473707960E+02  0.45054112623E+03  0.40000000000E+03 0. -1.
<mgrwt>
<rscale>  2 0.44329594E+03</rscale>
<asrwt>0</asrwt>
<pdfrwt beam="1">  1       21 0.33328794E-01 0.44329594E+03</pdfrwt>
<pdfrwt beam="2">  1       21 0.28000243E+00 0.44329594E+03</pdfrwt>
<totfact> 0.30793002E+02</totfact>
</mgrwt>
</event>
<event>
 4    1  0.4716816E-002  0.4846692E+03  0.7818608E-02  0.1017860E+00
         21   -1    0    0  503  502  0.00000000000E+00  0.00000000000E+00  0.57683182974E+03  0.57683182974E+03  0.00000000000E+00 0.  1.
         21   -1    0    0  501  503 -0.00000000000E+00 -0.00000000000E+00 -0.52618247984E+03  0.52618247984E+03  0.00000000000E+00 0.  1.
    9000007    1    1    2  501    0  0.24001091744E+03 -0.13152554193E+03 -0.23689579999E+03  0.53946624429E+03  0.40000000000E+03 0.  1.
   -9000007    1    1    2    0  502 -0.24001091744E+03  0.13152554193E+03  0.28754514989E+03  0.56354806529E+03  0.40000000000E+03 0.  1.
<mgrwt>
<rscale>  2 0.48466917E+03</rscale>
<asrwt>0</asrwt>
<pdfrwt beam="1">  1       21 0.88743359E-01 0.48466917E+03</pdfrwt>
<pdfrwt beam="2">  1       21 0.80951150E-01 0.48466917E+03</pdfrwt>
<totfact> 0.12252957E+03</totfact>
</mgrwt>
</event>
<event>
 4    1  0.4716816E-002  0.5168177E+03  0.7818608E-02  0.1009480E+00
         21   -1    0    0  503  502  0.00000000000E+00  0.00000000000E+00  0.42434931676E+03  0.42434931676E+03  0.00000000000E+00 0. -1.
         21   -1    0    0  501  503 -0.00000000000E+00 -0.00000000000E+00 -0.73033382511E+03  0.73033382511E+03  0.00000000000E+00 0. -1.
    9000007    1    1    2  501    0  0.61927682910E+02 -0.32134941637E+03  0.61600126882E+02  0.52047580246E+03  0.40000000000E+03 0. -1.
   -9000007    1    1    2    0  502 -0.61927682910E+02  0.32134941637E+03 -0.36758463523E+03  0.63420733941E+03  0.40000000000E+03 0. -1.
<mgrwt>
<rscale>  2 0.51681765E+03</rscale>
<asrwt>0</asrwt>
<pdfrwt beam="1">  1       21 0.65284510E-01 0.51681765E+03</pdfrwt>
<pdfrwt beam="2">  1       21 0.11235905E+00 0.51681765E+03</pdfrwt>
<totfact> 0.11120110E+03</totfact>
</mgrwt>
</event>
<event>
 4    1  0.4716816E-002  0.4872569E+03  0.7818608E-02  0.1017160E+00
         21   -1    0    0  501  502  0.00000000000E+00  0.00000000000E+00  0.22239766864E+04  0.22239766864E+04  0.00000000000E+00 0.  1.
         21   -1    0    0  502  503 -0.00000000000E+00 -0.00000000000E+00 -0.12539107136E+03  0.12539107136E+03  0.00000000000E+00 0.  1.
    9000007    1    1    2  501    0 -0.13488852181E+03 -0.24336058228E+03  0.15021611162E+04  0.15792109756E+04  0.40000000000E+03 0.  1.
   -9000007    1    1    2    0  503  0.13488852181E+03  0.24336058228E+03  0.59642449880E+03  0.77015678215E+03  0.40000000000E+03 0.  1.
<mgrwt>
<rscale>  2 0.48725690E+03</rscale>
<asrwt>0</asrwt>
<pdfrwt beam="1">  1       21 0.34215023E+00 0.48725690E+03</pdfrwt>
<pdfrwt beam="2">  1       21 0.19290936E-01 0.48725690E+03</pdfrwt>
<totfact> 0.36754244E+02</totfact>
</mgrwt>
</event>
<event>
 4    1  0.4716816E-002  0.4135926E+03  0.7818608E-02  0.1039172E+00
         21   -1    0    0  501  502  0.00000000000E+00  0.00000000000E+00  0.76585717377E+03  0.76585717377E+03  0.00000000000E+00 0. -1.
         21   -1    0    0  502  503 -0.00000000000E+00 -0.00000000000E+00 -0.60923896570E+03  0.60923896570E+03  0.00000000000E+00 0. -1.
    9000007    1    1    2  501    0  0.38969925652E+02  0.97673893663E+02  0.62549765055E+03  0.74987075916E+03  0.40000000000E+03 0. -1.
   -9000007    1    1    2    0  503 -0.38969925652E+02 -0.97673893663E+02 -0.46887944248E+03  0.62522538031E+03  0.40000000000E+03 0. -1.
<mgrwt>
<rscale>  2 0.41359261E+03</rscale>
<asrwt>0</asrwt>
<pdfrwt beam="1">  1       21 0.11782418E+00 0.41359261E+03</pdfrwt>
<pdfrwt beam="2">  1       21 0.93729072E-01 0.41359261E+03</pdfrwt>
<totfact> 0.44822353E+02</totfact>
</mgrwt>
</event>
<event>
 4    1  0.4716816E-002  0.5367676E+03  0.7818608E-02  0.1004604E+00
         21   -1    0    0  503  502  0.00000000000E+00  0.00000000000E+00  0.60802406798E+03  0.60802406798E+03  0.00000000000E+00 0. -1.
         21   -1    0    0  501  503 -0.00000000000E+00 -0.00000000000E+00 -0.51269381729E+03  0.51269381729E+03  0.00000000000E+00 0. -1.
    9000007    1    1    2  501    0  0.34751447789E+03  0.85750519176E+02 -0.10655159581E+03  0.54724099486E+03  0.40000000000E+03 0. -1.
   -9000007    1    1    2    0  502 -0.34751447789E+03 -0.85750519176E+02  0.20188184650E+03  0.57347689041E+03  0.40000000000E+03 0. -1.
<mgrwt>
<rscale>  2 0.53676761E+03</rscale>
<asrwt>0</asrwt>
<pdfrwt beam="1">  1       21 0.93542164E-01 0.53676761E+03</pdfrwt>
<pdfrwt beam="2">  1       21 0.78875972E-01 0.53676761E+03</pdfrwt>
<totfact> 0.11270618E+03</totfact>
</mgrwt>
</event>
<event>
 4    1  0.4716816E-002  0.5412656E+03  0.7818608E-02  0.1003536E+00
         21   -1    0    0  503  502  0.00000000000E+00  0.00000000000E+00  0.46463553426E+03  0.46463553426E+03  0.00000000000E+00 0.  1.
         21   -1    0    0  501  503 -0.00000000000E+00 -0.00000000000E+00 -0.81071098098E+03  0.81071098098E+03  0.00000000000E+00 0.  1.
    9000007    1    1    2  501    0  0.30169774962E+03 -0.20480938145E+03  0.12758032789E+03  0.55609815224E+03  0.40000000000E+03 0.  1.
   -9000007    1    1    2    0  502 -0.30169774962E+03  0.20480938145E+03 -0.47365577461E+03  0.71924836300E+03  0.40000000000E+03 0.  1.
<mgrwt>
<rscale>  2 0.54126557E+03</rscale>
<asrwt>0</asrwt>
<pdfrwt beam="1">  1       21 0.71482391E-01 0.54126557E+03</pdfrwt>
<pdfrwt beam="2">  1       21 0.12472476E+00 0.54126557E+03</pdfrwt>
<totfact> 0.68947603E+02</totfact>
</mgrwt>
</event>
<event>
 4    1  0.4716816E-002  0.5309496E+03  0.7818608E-02  0.1006002E+00
         21   -1    0    0  501  502  0.00000000000E+00  0.00000000000E+00  0.57455690684E+03  0.57455690684E+03  0.00000000000E+00 0.  1.
         21   -1    0    0  502  503 -0.00000000000E+00 -0.00000000000E+00 -0.11807101152E+04  0.11807101152E+04  0.00000000000E+00 0.  1.
    9000007    1    1    2  501    0  0.27830241094E+03  0.21084403124E+03  0.36786453443E+03  0.64593479015E+03  0.40000000000E+03 0.  1.
   -9000007    1    1    2    0  503 -0.27830241094E+03 -0.21084403124E+03 -0.97401774278E+03  0.11093322319E+04  0.40000000000E+03 0.  1.
<mgrwt>
<rscale>  2 0.53094956E+03</rscale>
<asrwt>0</asrwt>
<pdfrwt beam="1">  1       21 0.88393372E-01 0.53094956E+03</pdfrwt>
<pdfrwt beam="2">  1       21 0.18164771E+00 0.53094956E+03</pdfrwt>
<totfact> 0.15067450E+02</totfact>
</mgrwt>
</event>
<event>
 4    1  0.4716816E-002  0.4592857E+03  0.7818608E-02  0.1024989E+00
         21   -1    0    0  503  502  0.00000000000E+00  0.00000000000E+00  0.66446271082E+03  0.66446271082E+03  0.00000000000E+00 0.  1.
         21   -1    0    0  501  503 -0.00000000000E+00 -0.00000000000E+00 -0.31831420688E+03  0.31831420688E+03  0.00000000000E+00 0.  1.
    9000007    1    1    2  501    0 -0.14650567326E+03 -0.17169580355E+03  0.14768695232E+03  0.48244667803E+03  0.40000000000E+03 0.  1.
   -9000007    1    1    2    0  502  0.14650567326E+03  0.17169580355E+03  0.19846155162E+03  0.50033023967E+03  0.40000000000E+03 0.  1.
<mgrwt>
<rscale>  2 0.45928571E+03</rscale>
<asrwt>0</asrwt>
<pdfrwt beam="1">  1       21 0.10222503E+00 0.45928571E+03</pdfrwt>
<pdfrwt beam="2">  1       21 0.48971417E-01 0.45928571E+03</pdfrwt>
<totfact> 0.26796458E+03</totfact>
</mgrwt>
</event>
<event>
 4    1  0.4716816E-002  0.4215591E+03  0.7818608E-02  0.1036560E+00
         21   -1    0    0  501  502  0.00000000000E+00  0.00000000000E+00  0.66446005693E+03  0.66446005693E+03  0.00000000000E+00 0. -1.
         21   -1    0    0  502  503 -0.00000000000E+00 -0.00000000000E+00 -0.30935537268E+03  0.30935537268E+03  0.00000000000E+00 0.  1.
    9000007    1    1    2  501    0  0.90964780589E+02 -0.97146854046E+02  0.35675112263E+03  0.55225308153E+03  0.40000000000E+03 0. -1.
   -9000007    1    1    2    0  503 -0.90964780589E+02  0.97146854046E+02 -0.16464383754E+01  0.42156234808E+03  0.40000000000E+03 0. -1.
<mgrwt>
<rscale>  2 0.42155913E+03</rscale>
<asrwt>0</asrwt>
<pdfrwt beam="1">  1       21 0.10222462E+00 0.42155913E+03</pdfrwt>
<pdfrwt beam="2">  1       21 0.47593135E-01 0.42155913E+03</pdfrwt>
<totfact> 0.28864641E+03</totfact>
</mgrwt>
</event>
<event>
 4    1  0.4716816E-002  0.4176049E+03  0.7818608E-02  0.1037849E+00
         21   -1    0    0  503  502  0.00000000000E+00  0.00000000000E+00  0.36886916315E+03  0.36886916315E+03  0.00000000000E+00 0. -1.
         21   -1    0    0  501  503 -0.00000000000E+00 -0.00000000000E+00 -0.47698096923E+03  0.47698096923E+03  0.00000000000E+00 0.  1.
    9000007    1    1    2  501    0 -0.22769368629E+02  0.11779389381E+03 -0.14363800961E+02  0.41785184497E+03  0.40000000000E+03 0. -1.
   -9000007    1    1    2    0  502  0.22769368629E+02 -0.11779389381E+03 -0.93748005114E+02  0.42799828741E+03  0.40000000000E+03 0. -1.
<mgrwt>
<rscale>  2 0.41760489E+03</rscale>
<asrwt>0</asrwt>
<pdfrwt beam="1">  1       21 0.56749102E-01 0.41760489E+03</pdfrwt>
<pdfrwt beam="2">  1       21 0.73381688E-01 0.41760489E+03</pdfrwt>
<totfact> 0.43219716E+03</totfact>
</mgrwt>
</event>
<event>
 4    1  0.4716816E-002  0.4157651E+03  0.7818608E-02  0.1038453E+00
         21   -1    0    0  501  502  0.00000000000E+00  0.00000000000E+00  0.55088094777E+03  0.55088094777E+03  0.00000000000E+00 0. -1.
         21   -1    0    0  502  503 -0.00000000000E+00 -0.00000000000E+00 -0.51145951488E+03  0.51145951488E+03  0.00000000000E+00 0. -1.
    9000007    1    1    2  501    0  0.10847542274E+03  0.33071763111E+02  0.34992700400E+03  0.54342392934E+03  0.40000000000E+03 0. -1.
   -9000007    1    1    2    0  503 -0.10847542274E+03 -0.33071763111E+02 -0.31050557111E+03  0.51891653331E+03  0.40000000000E+03 0. -1.
<mgrwt>
<rscale>  2 0.41576515E+03</rscale>
<asrwt>0</asrwt>
<pdfrwt beam="1">  1       21 0.84750915E-01 0.41576515E+03</pdfrwt>
<pdfrwt beam="2">  1       21 0.78686079E-01 0.41576515E+03</pdfrwt>
<totfact> 0.14980797E+03</totfact>
</mgrwt>
</event>
<event>
 4    1  0.4716816E-002  0.6056327E+03  0.7818608E-02  0.9893789E-01
         21   -1    0    0  503  502  0.00000000000E+00  0.00000000000E+00  0.22539086241E+04  0.22539086241E+04  0.00000000000E+00 0.  1.
         21   -1    0    0  501  503 -0.00000000000E+00 -0.00000000000E+00 -0.16439276057E+03  0.16439276057E+03  0.00000000000E+00 0. -1.
    9000007    1    1    2  501    0 -0.45466450156E+03 -0.84327174609E+01  0.92335307401E+03  0.11042517009E+04  0.40000000000E+03 0. -1.
   -9000007    1    1    2    0  502  0.45466450156E+03  0.84327174609E+01  0.11661627895E+04  0.13140496838E+04  0.40000000000E+03 0.  1.
<mgrwt>
<rscale>  2 0.60563266E+03</rscale>
<asrwt>0</asrwt>
<pdfrwt beam="1">  1       21 0.34675515E+00 0.60563266E+03</pdfrwt>
<pdfrwt beam="2">  1       21 0.25291196E-01 0.60563266E+03</pdfrwt>
<totfact> 0.19223409E+02</totfact>
</mgrwt>
</event>
<event>
 4    1  0.4716816E-002  0.4362387E+03  0.7818608E-02  0.1031907E+00
         21   -1    0    0  501  502  0.00000000000E+00  0.00000000000E+00  0.24772358418E+03  0.24772358418E+03  0.00000000000E+00 0.  1.
         21   -1    0    0  502  503 -0.00000000000E+00 -0.00000000000E+00 -0.76835900521E+03  0.76835900521E+03  0.00000000000E+00 0. -1.
    9000007    1    1    2  501    0 -0.17116079118E+03  0.31751559336E+02 -0.26734995057E+03  0.51164457784E+03  0.40000000000E+03 0.  1.
   -9000007    1    1    2    0  503  0.17116079118E+03 -0.31751559336E+02 -0.25328547046E+03  0.50443801156E+03  0.40000000000E+03 0.  1.
<mgrwt>
<rscale>  2 0.43623867E+03</rscale>
<asrwt>0</asrwt>
<pdfrwt beam="1">  1       21 0.38111322E-01 0.43623867E+03</pdfrwt>
<pdfrwt beam="2">  1       21 0.11820907E+00 0.43623867E+03</pdfrwt>
<totfact> 0.31767446E+03</totfact>
</mgrwt>
</event>
<event>
 4    1  0.4716816E-002  0.5562927E+03  0.7818608E-02  0.1000048E+00
         21   -1    0    0  501  502  0.00000000000E+00  0.00000000000E+00  0.37974189052E+03  0.37974189052E+03  0.00000000000E+00 0. -1.
         21   -1    0    0  502  503 -0.00000000000E+00 -0.00000000000E+00 -0.92421535483E+03  0.92421535483E+03  0.00000000000E+00 0.  1.
    9000007    1    1    2  501    0 -0.29984809534E+03  0.24403412068E+03 -0.48036665746E+02  0.55836283328E+03  0.40000000000E+03 0. -1.
   -9000007    1    1    2    0  503  0.29984809534E+03 -0.24403412068E+03 -0.49643679857E+03  0.74559441206E+03  0.40000000000E+03 0.  1.
<mgrwt>
<rscale>  2 0.55629267E+03</rscale>
<asrwt>0</asrwt>
<pdfrwt beam="1">  1       21 0.58421829E-01 0.55629267E+03</pdfrwt>
<pdfrwt beam="2">  1       21 0.14218698E+00 0.55629267E+03</pdfrwt>
<totfact> 0.76184884E+02</totfact>
</mgrwt>
</event>
<event>
 4    1  0.4716816E-002  0.4683444E+03  0.7818608E-02  0.1022389E+00
         21   -1    0    0  501  502  0.00000000000E+00  0.00000000000E+00  0.14004430500E+04  0.14004430500E+04  0.00000000000E+00 0. -1.
         21   -1    0    0  502  503 -0.00000000000E+00 -0.00000000000E+00 -0.15663709677E+03  0.15663709677E+03  0.00000000000E+00 0. -1.
    9000007    1    1    2  501    0 -0.20222147292E+03  0.13584175134E+03  0.61550205670E+03  0.77342697607E+03  0.40000000000E+03 0.  1.
   -9000007    1    1    2    0  503  0.20222147292E+03 -0.13584175134E+03  0.62830389649E+03  0.78365317064E+03  0.40000000000E+03 0.  1.
<mgrwt>
<rscale>  2 0.46834443E+03</rscale>
<asrwt>0</asrwt>
<pdfrwt beam="1">  1       21 0.21545277E+00 0.46834443E+03</pdfrwt>
<pdfrwt beam="2">  1       21 0.24098016E-01 0.46834443E+03</pdfrwt>
<totfact> 0.14465728E+03</totfact>
</mgrwt>
</event>
<event>
 4    1  0.4716816E-002  0.4891135E+03  0.7818608E-02  0.1016660E+00
         21   -1    0    0  503  502  0.00000000000E+00  0.00000000000E+00  0.12355367507E+04  0.12355367507E+04  0.00000000000E+00 0. -1.
         21   -1    0    0  501  503 -0.00000000000E+00 -0.00000000000E+00 -0.33042751472E+03  0.33042751472E+03  0.00000000000E+00 0.  1.
    9000007    1    1    2  501    0 -0.70009801101E+02  0.27263643424E+03 -0.51246649781E+02  0.49179082610E+03  0.40000000000E+03 0.  1.
   -9000007    1    1    2    0  502  0.70009801101E+02 -0.27263643424E+03  0.95635588577E+03  0.10741734393E+04  0.40000000000E+03 0. -1.
<mgrwt>
<rscale>  2 0.48911348E+03</rscale>
<asrwt>0</asrwt>
<pdfrwt beam="1">  1       21 0.19008258E+00 0.48911348E+03</pdfrwt>
<pdfrwt beam="2">  1       21 0.50835003E-01 0.48911348E+03</pdfrwt>
<totfact> 0.46420677E+02</totfact>
</mgrwt>
</event>
<event>
 4    1  0.4716816E-002  0.5540985E+03  0.7818608E-02  0.1000550E+00
         21   -1    0    0  501  502  0.00000000000E+00  0.00000000000E+00  0.22237251311E+03  0.22237251311E+03  0.00000000000E+00 0. -1.
         21   -1    0    0  502  503 -0.00000000000E+00 -0.00000000000E+00 -0.13809654978E+04  0.13809654978E+04  0.00000000000E+00 0. -1.
    9000007    1    1    2  501    0 -0.31197132769E+03 -0.22293270420E+03 -0.56775332561E+03  0.79332776243E+03  0.40000000000E+03 0. -1.
   -9000007    1    1    2    0  503  0.31197132769E+03  0.22293270420E+03 -0.59083965913E+03  0.81001024852E+03  0.40000000000E+03 0. -1.
<mgrwt>
<rscale>  2 0.55409846E+03</rscale>
<asrwt>0</asrwt>
<pdfrwt beam="1">  1       21 0.34211155E-01 0.55409846E+03</pdfrwt>
<pdfrwt beam="2">  1       21 0.21245624E+00 0.55409846E+03</pdfrwt>
<totfact> 0.72941066E+02</totfact>
</mgrwt>
</event>
<event>
 4    1  0.4716816E-002  0.4173871E+03  0.7818608E-02  0.1037920E+00
         21   -1    0    0  503  502  0.00000000000E+00  0.00000000000E+00  0.42057814659E+03  0.42057814659E+03  0.00000000000E+00 0. -1.
         21   -1    0    0  501  503 -0.00000000000E+00 -0.00000000000E+00 -0.42780216632E+03  0.42780216632E+03  0.00000000000E+00 0. -1.
    9000007    1    1    2  501    0 -0.11921131053E+03 -0.78420710399E+00 -0.79194447559E+02  0.42483374638E+03  0.40000000000E+03 0.  1.
   -9000007    1    1    2    0  502  0.11921131053E+03  0.78420710399E+00  0.71970427820E+02  0.42354656653E+03  0.40000000000E+03 0.  1.
<mgrwt>
<rscale>  2 0.41738705E+03</rscale>
<asrwt>0</asrwt>
<pdfrwt beam="1">  1       21 0.64704330E-01 0.41738705E+03</pdfrwt>
<pdfrwt beam="2">  1       21 0.65815718E-01 0.41738705E+03</pdfrwt>
<totfact> 0.41394370E+03</totfact>
</mgrwt>
</event>
<event>
 4    1  0.4716816E-002  0.4540521E+03  0.7818608E-02  0.1026521E+00
         21   -1    0    0  501  502  0.00000000000E+00  0.00000000000E+00  0.15159793966E+04  0.15159793966E+04  0.00000000000E+00 0. -1.
         21   -1    0    0  502  503 -0.00000000000E+00 -0.00000000000E+00 -0.43739716199E+03  0.43739716199E+03  0.00000000000E+00 0.  1.
    9000007    1    1    2  501    0 -0.16255781122E+03  0.14049289207E+03  0.13500510564E+04  0.14243599087E+04  0.40000000000E+03 0. -1.
   -9000007    1    1    2    0  503  0.16255781122E+03 -0.14049289207E+03 -0.27146882173E+03  0.52901664991E+03  0.40000000000E+03 0.  1.
<mgrwt>
<rscale>  2 0.45405208E+03</rscale>
<asrwt>0</asrwt>
<pdfrwt beam="1">  1       21 0.23322760E+00 0.45405208E+03</pdfrwt>
<pdfrwt beam="2">  1       21 0.67291872E-01 0.45405208E+03</pdfrwt>
<totfact> 0.13387791E+02</totfact>
</mgrwt>
</event>
<event>
 4    1  0.4716816E-002  0.4215378E+03  0.7818608E-02  0.1036567E+00
         21   -1    0    0  501  502  0.00000000000E+00  0.00000000000E+00  0.31078643594E+03  0.31078643594E+03  0.00000000000E+00 0. -1.
         21   -1    0    0  502  503 -0.00000000000E+00 -0.00000000000E+00 -0.61303509624E+03  0.61303509624E+03  0.00000000000E+00 0. -1.
    9000007    1    1    2  501    0 -0.45890781364E+02  0.12485248728E+03 -0.27098559273E+03  0.50112603092E+03  0.40000000000E+03 0. -1.
   -9000007    1    1    2    0  503  0.45890781364E+02 -0.12485248728E+03 -0.31263067571E+02  0.42269550126E+03  0.40000000000E+03 0. -1.
<mgrwt>
<rscale>  2 0.42153779E+03</rscale>
<asrwt>0</asrwt>
<pdfrwt beam="1">  1       21 0.47813298E-01 0.42153779E+03</pdfrwt>
<pdfrwt beam="2">  1       21 0.94313091E-01 0.42153779E+03</pdfrwt>
<totfact> 0.34720926E+03</totfact>
</mgrwt>
</event>
<event>
 4    1  0.4716816E-002  0.5651899E+03  0.7818608E-02  0.9980380E-01
         21   -1    0    0  503  502  0.00000000000E+00  0.00000000000E+00  0.18442386104E+03  0.18442386104E+03  0.00000000000E+00 0. -1.
         21   -1    0    0  501  503 -0.00000000000E+00 -0.00000000000E+00 -0.34218614815E+04  0.34218614815E+04  0.00000000000E+00 0. -1.
    9000007    1    1    2  501    0  0.39600122632E+03  0.51211639348E+02 -0.28858227899E+04  0.29406483602E+04  0.40000000000E+03 0. -1.
   -9000007    1    1    2    0  502 -0.39600122632E+03 -0.51211639348E+02 -0.35161483053E+03  0.66563698237E+03  0.40000000000E+03 0. -1.
<mgrwt>
<rscale>  2 0.56518988E+03</rscale>
<asrwt>0</asrwt>
<pdfrwt beam="1">  1       21 0.28372904E-01 0.56518988E+03</pdfrwt>
<pdfrwt beam="2">  1       21 0.52644019E+00 0.56518988E+03</pdfrwt>
<totfact> 0.96874844E+00</totfact>
</mgrwt>
</event>
<event>
 4    1  0.4716816E-002  0.5465454E+03  0.7818608E-02  0.1002297E+00
         21   -1    0    0  501  502  0.00000000000E+00  0.00000000000E+00  0.11166724959E+04  0.11166724959E+04  0.00000000000E+00 0.  1.
         21   -1    0    0  502  503 -0.00000000000E+00 -0.00000000000E+00 -0.70991447177E+03  0.70991447177E+03  0.00000000000E+00 0. -1.
    9000007    1    1    2  501    0  0.21944817677E+03 -0.30092255811E+03  0.92435554569E+03  0.10738459215E+04  0.40000000000E+03 0.  1.
   -9000007    1    1    2    0  503 -0.21944817677E+03  0.30092255811E+03 -0.51759752156E+03  0.75274104617E+03  0.40000000000E+03 0. -1.
<mgrwt>
<rscale>  2 0.54654541E+03</rscale>
<asrwt>0</asrwt>
<pdfrwt beam="1">  1       21 0.17179577E+00 0.54654541E+03</pdfrwt>
<pdfrwt beam="2">  1       21 0.10921761E+00 0.54654541E+03</pdfrwt>
<totfact> 0.10527601E+02</totfact>
</mgrwt>
</event>
<event>
 4    1  0.4716816E-002  0.4261750E+03  0.7818608E-02  0.1035075E+00
         21   -1    0    0  501  502  0.00000000000E+00  0.00000000000E+00  0.50078200164E+03  0.50078200164E+03  0.00000000000E+00 0. -1.
         21   -1    0    0  502  503 -0.00000000000E+00 -0.00000000000E+00 -0.67766874079E+03  0.67766874079E+03  0.00000000000E+00 0. -1.
    9000007    1    1    2  501    0 -0.13991194755E+03 -0.45274627895E+02  0.31327169920E+03  0.52892750213E+03  0.40000000000E+03 0. -1.
   -9000007    1    1    2    0  503  0.13991194755E+03  0.45274627895E+02 -0.49015843835E+03  0.64952324029E+03  0.40000000000E+03 0. -1.
<mgrwt>
<rscale>  2 0.42617502E+03</rscale>
<asrwt>0</asrwt>
<pdfrwt beam="1">  1       21 0.77043385E-01 0.42617502E+03</pdfrwt>
<pdfrwt beam="2">  1       21 0.10425673E+00 0.42617502E+03</pdfrwt>
<totfact> 0.95412139E+02</totfact>
</mgrwt>
</event>
<event>
 4    1  0.4716816E-002  0.4439407E+03  0.7818608E-02  0.1029545E+00
         21   -1    0    0  501  502  0.00000000000E+00  0.00000000000E+00  0.86026211146E+03  0.86026211146E+03  0.00000000000E+00 0.  1.
         21   -1    0    0  502  503 -0.00000000000E+00 -0.00000000000E+00 -0.24576428664E+03  0.24576428664E+03  0.00000000000E+00 0. -1.
    9000007    1    1    2  501    0 -0.16189810682E+03 -0.10427035266E+03  0.16323280474E+03  0.47299920928E+03  0.40000000000E+03 0. -1.
   -9000007    1    1    2    0  503  0.16189810682E+03  0.10427035266E+03  0.45126502008E+03  0.63302718882E+03  0.40000000000E+03 0. -1.
<mgrwt>
<rscale>  2 0.44394065E+03</rscale>
<asrwt>0</asrwt>
<pdfrwt beam="1">  1       21 0.13234802E+00 0.44394065E+03</pdfrwt>
<pdfrwt beam="2">  1       21 0.37809891E-01 0.44394065E+03</pdfrwt>
<totfact> 0.24080636E+03</totfact>
</mgrwt>
</event>
<event>
 4    1  0.4716816E-002  0.5691628E+03  0.7818608E-02  0.9971533E-01
         21   -1    0    0  501  502  0.00000000000E+00  0.00000000000E+00  0.68745811009E+03  0.68745811009E+03  0.00000000000E+00 0.  1.
         21   -1    0    0  502  503 -0.00000000000E+00 -0.00000000000E+00 -0.55976945617E+03  0.55976945617E+03  0.00000000000E+00 0.  1.
    9000007    1    1    2  501    0 -0.14178565913E+03  0.37926661528E+03  0.31186949438E+03  0.64900610176E+03  0.40000000000E+03 0.  1.
   -9000007    1    1    2    0  503  0.14178565913E+03 -0.37926661528E+03 -0.18418084046E+03  0.59822146450E+03  0.40000000000E+03 0.  1.
<mgrwt>
<rscale>  2 0.56916284E+03</rscale>
<asrwt>0</asrwt>
<pdfrwt beam="1">  1       21 0.10576279E+00 0.56916284E+03</pdfrwt>
<pdfrwt beam="2">  1       21 0.86118378E-01 0.56916284E+03</pdfrwt>
<totfact> 0.67291877E+02</totfact>
</mgrwt>
</event>
<event>
 4    1  0.4716816E-002  0.4248532E+03  0.7818608E-02  0.1035498E+00
         21   -1    0    0  501  502  0.00000000000E+00  0.00000000000E+00  0.49066072558E+03  0.49066072558E+03  0.00000000000E+00 0.  1.
         21   -1    0    0  502  503 -0.00000000000E+00 -0.00000000000E+00 -0.39238644734E+03  0.39238644734E+03  0.00000000000E+00 0.  1.
    9000007    1    1    2  501    0 -0.11428510564E+03  0.86250453674E+02  0.15949672512E+03  0.45380549958E+03  0.40000000000E+03 0.  1.
   -9000007    1    1    2    0  503  0.11428510564E+03 -0.86250453674E+02 -0.61222446876E+02  0.42924167334E+03  0.40000000000E+03 0.  1.
<mgrwt>
<rscale>  2 0.42485318E+03</rscale>
<asrwt>0</asrwt>
<pdfrwt beam="1">  1       21 0.75486266E-01 0.42485318E+03</pdfrwt>
<pdfrwt beam="2">  1       21 0.60367146E-01 0.42485318E+03</pdfrwt>
<totfact> 0.35327738E+03</totfact>
</mgrwt>
</event>
<event>
 4    1  0.4716816E-002  0.7118049E+03  0.7818608E-02  0.9697254E-01
         21   -1    0    0  501  502  0.00000000000E+00  0.00000000000E+00  0.12604687194E+04  0.12604687194E+04  0.00000000000E+00 0. -1.
         21   -1    0    0  502  503 -0.00000000000E+00 -0.00000000000E+00 -0.60504862355E+03  0.60504862355E+03  0.00000000000E+00 0. -1.
    9000007    1    1    2  501    0  0.49629210920E+03 -0.31679713943E+03  0.86810331809E+03  0.11226173240E+04  0.40000000000E+03 0. -1.
   -9000007    1    1    2    0  503 -0.49629210920E+03  0.31679713943E+03 -0.21268322222E+03  0.74290001899E+03  0.40000000000E+03 0. -1.
<mgrwt>
<rscale>  2 0.71180495E+03</rscale>
<asrwt>0</asrwt>
<pdfrwt beam="1">  1       21 0.19391826E+00 0.71180495E+03</pdfrwt>
<pdfrwt beam="2">  1       21 0.93084404E-01 0.71180495E+03</pdfrwt>
<totfact> 0.10184148E+02</totfact>
</mgrwt>
</event>
<event>
 4    1  0.4716816E-002  0.4908537E+03  0.7818608E-02  0.1016194E+00
         21   -1    0    0  501  502  0.00000000000E+00  0.00000000000E+00  0.46249299839E+03  0.46249299839E+03  0.00000000000E+00 0.  1.
         21   -1    0    0  502  503 -0.00000000000E+00 -0.00000000000E+00 -0.52759352956E+03  0.52759352956E+03  0.00000000000E+00 0. -1.
    9000007    1    1    2  501    0 -0.23892672146E+03  0.15443881099E+03  0.22986420788E+02  0.49139159548E+03  0.40000000000E+03 0.  1.
   -9000007    1    1    2    0  503  0.23892672146E+03 -0.15443881099E+03 -0.88086951958E+02  0.49869493247E+03  0.40000000000E+03 0. -1.
<mgrwt>
<rscale>  2 0.49085367E+03</rscale>
<asrwt>0</asrwt>
<pdfrwt beam="1">  1       21 0.71152769E-01 0.49085367E+03</pdfrwt>
<pdfrwt beam="2">  1       21 0.81168235E-01 0.49085367E+03</pdfrwt>
<totfact> 0.20251957E+03</totfact>
</mgrwt>
</event>
<event>
 4    1  0.4716816E-002  0.4346135E+03  0.7818608E-02  0.1032412E+00
         21   -1    0    0  501  502  0.00000000000E+00  0.00000000000E+00  0.12914202372E+03  0.12914202372E+03  0.00000000000E+00 0.  1.
         21   -1    0    0  502  503 -0.00000000000E+00 -0.00000000000E+00 -0.14758952968E+04  0.14758952968E+04  0.00000000000E+00 0.  1.
    9000007    1    1    2  501    0 -0.97285207129E+02  0.13937177802E+03 -0.59733628198E+03  0.73871478786E+03  0.40000000000E+03 0. -1.
   -9000007    1    1    2    0  503  0.97285207129E+02 -0.13937177802E+03 -0.74941699108E+03  0.86632253264E+03  0.40000000000E+03 0. -1.
<mgrwt>
<rscale>  2 0.43461351E+03</rscale>
<asrwt>0</asrwt>
<pdfrwt beam="1">  1       21 0.19868005E-01 0.43461351E+03</pdfrwt>
<pdfrwt beam="2">  1       21 0.22706080E+00 0.43461351E+03</pdfrwt>
<totfact> 0.17941280E+03</totfact>
</mgrwt>
</event>
<event>
 4    1  0.4716816E-002  0.5473806E+03  0.7818608E-02  0.1002102E+00
         21   -1    0    0  501  502  0.00000000000E+00  0.00000000000E+00  0.29730752676E+03  0.29730752676E+03  0.00000000000E+00 0.  1.
         21   -1    0    0  502  503 -0.00000000000E+00 -0.00000000000E+00 -0.10105711776E+04  0.10105711776E+04  0.00000000000E+00 0.  1.
    9000007    1    1    2  501    0  0.37242224434E+02 -0.37180446794E+03 -0.32236733421E+03  0.63525289754E+03  0.40000000000E+03 0.  1.
   -9000007    1    1    2    0  503 -0.37242224434E+02  0.37180446794E+03 -0.39089631664E+03  0.67262580684E+03  0.40000000000E+03 0.  1.
<mgrwt>
<rscale>  2 0.54738062E+03</rscale>
<asrwt>0</asrwt>
<pdfrwt beam="1">  1       21 0.45739619E-01 0.54738062E+03</pdfrwt>
<pdfrwt beam="2">  1       21 0.15547249E+00 0.54738062E+03</pdfrwt>
<totfact> 0.10132935E+03</totfact>
</mgrwt>
</event>
<event>
 4    1  0.4716816E-002  0.4379207E+03  0.7818608E-02  0.1031387E+00
         21   -1    0    0  503  502  0.00000000000E+00  0.00000000000E+00  0.95886115695E+02  0.95886115695E+02  0.00000000000E+00 0.  1.
         21   -1    0    0  501  503 -0.00000000000E+00 -0.00000000000E+00 -0.20896393237E+04  0.20896393237E+04  0.00000000000E+00 0.  1.
    9000007    1    1    2  501    0  0.60150508645E+02  0.16779885332E+03 -0.77057835883E+03  0.88632135592E+03  0.40000000000E+03 0.  1.
   -9000007    1    1    2    0  502 -0.60150508645E+02 -0.16779885332E+03 -0.12231748492E+04  0.12992040835E+04  0.40000000000E+03 0.  1.
<mgrwt>
<rscale>  2 0.43792070E+03</rscale>
<asrwt>0</asrwt>
<pdfrwt beam="1">  1       21 0.14751710E-01 0.43792070E+03</pdfrwt>
<pdfrwt beam="2">  1       21 0.32148297E+00 0.43792070E+03</pdfrwt>
<totfact> 0.83496146E+02</totfact>
</mgrwt>
</event>
<event>
 4    1  0.4716816E-002  0.4492185E+03  0.7818608E-02  0.1027955E+00
         21   -1    0    0  501  502  0.00000000000E+00  0.00000000000E+00  0.33624070780E+03  0.33624070780E+03  0.00000000000E+00 0. -1.
         21   -1    0    0  502  503 -0.00000000000E+00 -0.00000000000E+00 -0.62667118991E+03  0.62667118991E+03  0.00000000000E+00 0. -1.
    9000007    1    1    2  501    0  0.35049780513E+02 -0.20141697022E+03 -0.46183547818E+02  0.45158631854E+03  0.40000000000E+03 0. -1.
   -9000007    1    1    2    0  503 -0.35049780513E+02  0.20141697022E+03 -0.24424693429E+03  0.51132557917E+03  0.40000000000E+03 0. -1.
<mgrwt>
<rscale>  2 0.44921852E+03</rscale>
<asrwt>0</asrwt>
<pdfrwt beam="1">  1       21 0.51729341E-01 0.44921852E+03</pdfrwt>
<pdfrwt beam="2">  1       21 0.96410950E-01 0.44921852E+03</pdfrwt>
<totfact> 0.27584562E+03</totfact>
</mgrwt>
</event>
<event>
 4    1  0.4716816E-002  0.4085258E+03  0.7818608E-02  0.1040867E+00
         21   -1    0    0  503  502  0.00000000000E+00  0.00000000000E+00  0.71124544392E+03  0.71124544392E+03  0.00000000000E+00 0. -1.
         21   -1    0    0  501  503 -0.00000000000E+00 -0.00000000000E+00 -0.60957633873E+03  0.60957633873E+03  0.00000000000E+00 0.  1.
    9000007    1    1    2  501    0 -0.19627488565E+02  0.80672643390E+02 -0.46709835060E+03  0.62054345765E+03  0.40000000000E+03 0.  1.
   -9000007    1    1    2    0  502  0.19627488565E+02 -0.80672643390E+02  0.56876745579E+03  0.70027832500E+03  0.40000000000E+03 0. -1.
<mgrwt>
<rscale>  2 0.40852578E+03</rscale>
<asrwt>0</asrwt>
<pdfrwt beam="1">  1       21 0.10942238E+00 0.40852578E+03</pdfrwt>
<pdfrwt beam="2">  1       21 0.93780975E-01 0.40852578E+03</pdfrwt>
<totfact> 0.53949522E+02</totfact>
</mgrwt>
</event>
<event>
 4    1  0.4716816E-002  0.7559245E+03  0.7818608E-02  0.9626101E-01
         21   -1    0    0  501  502  0.00000000000E+00  0.00000000000E+00  0.81244667657E+03  0.81244667657E+03  0.00000000000E+00 0.  1.
         21   -1    0    0  502  503 -0.00000000000E+00 -0.00000000000E+00 -0.15062416439E+04  0.15062416439E+04  0.00000000000E+00 0.  1.
    9000007    1    1    2  501    0  0.21234872849E+03 -0.60525186298E+03  0.49954549498E+03  0.90607256977E+03  0.40000000000E+03 0.  1.
   -9000007    1    1    2    0  503 -0.21234872849E+03  0.60525186298E+03 -0.11933404623E+04  0.14126157507E+04  0.40000000000E+03 0.  1.
<mgrwt>
<rscale>  2 0.75592447E+03</rscale>
<asrwt>0</asrwt>
<pdfrwt beam="1">  1       21 0.12499180E+00 0.75592447E+03</pdfrwt>
<pdfrwt beam="2">  1       21 0.23172948E+00 0.75592447E+03</pdfrwt>
<totfact> 0.26892339E+01</totfact>
</mgrwt>
</event>
<event>
 4    1  0.4716816E-002  0.4125962E+03  0.7818608E-02  0.1039503E+00
         21   -1    0    0  503  502  0.00000000000E+00  0.00000000000E+00  0.14396745136E+04  0.14396745136E+04  0.00000000000E+00 0.  1.
         21   -1    0    0  501  503 -0.00000000000E+00 -0.00000000000E+00 -0.11904629335E+03  0.11904629335E+03  0.00000000000E+00 0.  1.
    9000007    1    1    2  501    0 -0.25998141155E+02 -0.97773923681E+02  0.59641047648E+03  0.72521796720E+03  0.40000000000E+03 0. -1.
   -9000007    1    1    2    0  502  0.25998141155E+02  0.97773923681E+02  0.72421774381E+03  0.83350283980E+03  0.40000000000E+03 0. -1.
<mgrwt>
<rscale>  2 0.41259622E+03</rscale>
<asrwt>0</asrwt>
<pdfrwt beam="1">  1       21 0.22148838E+00 0.41259622E+03</pdfrwt>
<pdfrwt beam="2">  1       21 0.18314815E-01 0.41259622E+03</pdfrwt>
<totfact> 0.22935162E+03</totfact>
</mgrwt>
</event>
<event>
 4    1  0.4716816E-002  0.5609960E+03  0.7818608E-02  0.9989803E-01
         21   -1    0    0  501  502  0.00000000000E+00  0.00000000000E+00  0.28117771648E+03  0.28117771648E+03  0.00000000000E+00 0.  1.
         21   -1    0    0  502  503 -0.00000000000E+00 -0.00000000000E+00 -0.11861915723E+04  0.11861915723E+04  0.00000000000E+00 0. -1.
    9000007    1    1    2  501    0  0.12195146847E+03 -0.37395774704E+03 -0.27825280585E+03  0.62621177025E+03  0.40000000000E+03 0.  1.
   -9000007    1    1    2    0  503 -0.12195146847E+03  0.37395774704E+03 -0.62676104999E+03  0.84115751856E+03  0.40000000000E+03 0. -1.
<mgrwt>
<rscale>  2 0.56099604E+03</rscale>
<asrwt>0</asrwt>
<pdfrwt beam="1">  1       21 0.43258110E-01 0.56099604E+03</pdfrwt>
<pdfrwt beam="2">  1       21 0.18249101E+00 0.56099604E+03</pdfrwt>
<totfact> 0.71642340E+02</totfact>
</mgrwt>
</event>
<event>
 4    1  0.4716816E-002  0.4173694E+03  0.7818608E-02  0.1037926E+00
         21   -1    0    0  503  502  0.00000000000E+00  0.00000000000E+00  0.33236338606E+04  0.33236338606E+04  0.00000000000E+00 0. -1.
         21   -1    0    0  501  503 -0.00000000000E+00 -0.00000000000E+00 -0.52664055394E+02  0.52664055394E+02  0.00000000000E+00 0. -1.
    9000007    1    1    2  501    0  0.10887669027E+03  0.48405783481E+02  0.15186232175E+04  0.15749329288E+04  0.40000000000E+03 0. -1.
   -9000007    1    1    2    0  502 -0.10887669027E+03 -0.48405783481E+02  0.17523465877E+04  0.18013649871E+04  0.40000000000E+03 0. -1.
<mgrwt>
<rscale>  2 0.41736944E+03</rscale>
<asrwt>0</asrwt>
<pdfrwt beam="1">  1       21 0.51132812E+00 0.41736944E+03</pdfrwt>
<pdfrwt beam="2">  1       21 0.81021650E-02 0.41736944E+03</pdfrwt>
<totfact> 0.14283028E+02</totfact>
</mgrwt>
</event>
<event>
 4    1  0.4716816E-002  0.4055838E+03  0.7818608E-02  0.1041863E+00
         21   -1    0    0  503  502  0.00000000000E+00  0.00000000000E+00  0.24975099435E+03  0.24975099435E+03  0.00000000000E+00 0.  1.
         21   -1    0    0  501  503 -0.00000000000E+00 -0.00000000000E+00 -0.72721865767E+03  0.72721865767E+03  0.00000000000E+00 0.  1.
    9000007    1    1    2  501    0  0.39537998213E+02  0.54175599987E+02 -0.38873149115E+03  0.56179215120E+03  0.40000000000E+03 0.  1.
   -9000007    1    1    2    0  502 -0.39537998213E+02 -0.54175599987E+02 -0.88736172165E+02  0.41517750082E+03  0.40000000000E+03 0.  1.
<mgrwt>
<rscale>  2 0.40558384E+03</rscale>
<asrwt>0</asrwt>
<pdfrwt beam="1">  1       21 0.38423230E-01 0.40558384E+03</pdfrwt>
<pdfrwt beam="2">  1       21 0.11187979E+00 0.40558384E+03</pdfrwt>
<totfact> 0.36264491E+03</totfact>
</mgrwt>
</event>
<event>
 4    1  0.4716816E-002  0.4599078E+03  0.7818608E-02  0.1024808E+00
         21   -1    0    0  503  502  0.00000000000E+00  0.00000000000E+00  0.37428459455E+03  0.37428459455E+03  0.00000000000E+00 0.  1.
         21   -1    0    0  501  503 -0.00000000000E+00 -0.00000000000E+00 -0.58483197616E+03  0.58483197616E+03  0.00000000000E+00 0.  1.
    9000007    1    1    2  501    0  0.21731126269E+03  0.65505970609E+02 -0.19331884041E+03  0.49888615047E+03  0.40000000000E+03 0.  1.
   -9000007    1    1    2    0  502 -0.21731126269E+03 -0.65505970609E+02 -0.17228541199E+02  0.46023042024E+03  0.40000000000E+03 0.  1.
<mgrwt>
<rscale>  2 0.45990784E+03</rscale>
<asrwt>0</asrwt>
<pdfrwt beam="1">  1       21 0.57582245E-01 0.45990784E+03</pdfrwt>
<pdfrwt beam="2">  1       21 0.89974150E-01 0.45990784E+03</pdfrwt>
<totfact> 0.25717559E+03</totfact>
</mgrwt>
</event>
<event>
 4    1  0.4716816E-002  0.4981925E+03  0.7818608E-02  0.1014252E+00
         21   -1    0    0  501  502  0.00000000000E+00  0.00000000000E+00  0.97559877582E+03  0.97559877582E+03  0.00000000000E+00 0.  1.
         21   -1    0    0  502  503 -0.00000000000E+00 -0.00000000000E+00 -0.31238932640E+03  0.31238932640E+03  0.00000000000E+00 0.  1.
    9000007    1    1    2  501    0 -0.49908206802E+02 -0.29275400566E+03  0.60906110214E+03  0.78686159080E+03  0.40000000000E+03 0.  1.
   -9000007    1    1    2    0  503  0.49908206802E+02  0.29275400566E+03  0.54148347285E+02  0.50112651142E+03  0.40000000000E+03 0.  1.
<mgrwt>
<rscale>  2 0.49819247E+03</rscale>
<asrwt>0</asrwt>
<pdfrwt beam="1">  1       21 0.15009212E+00 0.49819247E+03</pdfrwt>
<pdfrwt beam="2">  1       21 0.48059897E-01 0.49819247E+03</pdfrwt>
<totfact> 0.10233981E+03</totfact>
</mgrwt>
</event>
<event>
 4    1  0.4716816E-002  0.7734983E+03  0.7818608E-02  0.9599190E-01
         21   -1    0    0  501  502  0.00000000000E+00  0.00000000000E+00  0.19825390051E+04  0.19825390051E+04  0.00000000000E+00 0.  1.
         21   -1    0    0  502  503 -0.00000000000E+00 -0.00000000000E+00 -0.43661166512E+03  0.43661166512E+03  0.00000000000E+00 0. -1.
    9000007    1    1    2  501    0  0.56735663207E+03  0.34118335798E+03  0.10080178206E+03  0.78003886505E+03  0.40000000000E+03 0.  1.
   -9000007    1    1    2    0  503 -0.56735663207E+03 -0.34118335798E+03  0.14451255579E+04  0.16391118052E+04  0.40000000000E+03 0. -1.
<mgrwt>
<rscale>  2 0.77349831E+03</rscale>
<asrwt>0</asrwt>
<pdfrwt beam="1">  1       21 0.30500599E+00 0.77349831E+03</pdfrwt>
<pdfrwt beam="2">  1       21 0.67171027E-01 0.77349831E+03</pdfrwt>
<totfact> 0.41914736E+01</totfact>
</mgrwt>
</event>
<event>
 4    1  0.4716816E-002  0.4124128E+03  0.7818608E-02  0.1039564E+00
         21   -1    0    0  501  502  0.00000000000E+00  0.00000000000E+00  0.22827712820E+04  0.22827712820E+04  0.00000000000E+00 0.  1.
         21   -1    0    0  502  503 -0.00000000000E+00 -0.00000000000E+00 -0.93759672233E+02  0.93759672233E+02  0.00000000000E+00 0.  1.
    9000007    1    1    2  501    0  0.57865227155E+02 -0.82072806960E+02  0.16329511272E+04  0.16842249594E+04  0.40000000000E+03 0.  1.
   -9000007    1    1    2    0  503 -0.57865227155E+02  0.82072806960E+02  0.55606048254E+03  0.69230599477E+03  0.40000000000E+03 0.  1.
<mgrwt>
<rscale>  2 0.41241282E+03</rscale>
<asrwt>0</asrwt>
<pdfrwt beam="1">  1       21 0.35119554E+00 0.41241282E+03</pdfrwt>
<pdfrwt beam="2">  1       21 0.14424567E-01 0.41241282E+03</pdfrwt>
<totfact> 0.58347787E+02</totfact>
</mgrwt>
</event>
<event>
 4    1  0.4716816E-002  0.4461574E+03  0.7818608E-02  0.1028874E+00
         21   -1    0    0  503  502  0.00000000000E+00  0.00000000000E+00  0.32905738072E+03  0.32905738072E+03  0.00000000000E+00 0. -1.
         21   -1    0    0  501  503 -0.00000000000E+00 -0.00000000000E+00 -0.77710116133E+03  0.77710116133E+03  0.00000000000E+00 0. -1.
    9000007    1    1    2  501    0  0.19542528402E+03 -0.29417399742E+02 -0.48435522983E+03  0.65852594004E+03  0.40000000000E+03 0. -1.
   -9000007    1    1    2    0  502 -0.19542528402E+03  0.29417399742E+02  0.36311449211E+02  0.44763260201E+03  0.40000000000E+03 0. -1.
<mgrwt>
<rscale>  2 0.44615740E+03</rscale>
<asrwt>0</asrwt>
<pdfrwt beam="1">  1       21 0.50624213E-01 0.44615740E+03</pdfrwt>
<pdfrwt beam="2">  1       21 0.11955402E+00 0.44615740E+03</pdfrwt>
<totfact> 0.17002807E+03</totfact>
</mgrwt>
</event>
<event>
 4    1  0.4716816E-002  0.4900273E+03  0.7818608E-02  0.1016415E+00
         21   -1    0    0  501  502  0.00000000000E+00  0.00000000000E+00  0.15683994078E+04  0.15683994078E+04  0.00000000000E+00 0. -1.
         21   -1    0    0  502  503 -0.00000000000E+00 -0.00000000000E+00 -0.18237721561E+03  0.18237721561E+03  0.00000000000E+00 0. -1.
    9000007    1    1    2  501    0  0.27415827450E+03  0.70455323762E+02  0.10437289010E+04  0.11530380440E+04  0.40000000000E+03 0. -1.
   -9000007    1    1    2    0  503 -0.27415827450E+03 -0.70455323762E+02  0.34229329121E+03  0.59773857942E+03  0.40000000000E+03 0. -1.
<mgrwt>
<rscale>  2 0.49002726E+03</rscale>
<asrwt>0</asrwt>
<pdfrwt beam="1">  1       21 0.24129221E+00 0.49002726E+03</pdfrwt>
<pdfrwt beam="2">  1       21 0.28058034E-01 0.49002726E+03</pdfrwt>
<totfact> 0.72973079E+02</totfact>
</mgrwt>
</event>
<event>
 4    1  0.4716816E-002  0.4280784E+03  0.7818608E-02  0.1034469E+00
         21   -1    0    0  501  502  0.00000000000E+00  0.00000000000E+00  0.63457848206E+03  0.63457848206E+03  0.00000000000E+00 0.  1.
         21   -1    0    0  502  503 -0.00000000000E+00 -0.00000000000E+00 -0.37926593770E+03  0.37926593770E+03  0.00000000000E+00 0. -1.
    9000007    1    1    2  501    0 -0.67696105183E+02  0.13663228829E+03  0.37526681454E+03  0.56927702128E+03  0.40000000000E+03 0.  1.
   -9000007    1    1    2    0  503  0.67696105183E+02 -0.13663228829E+03 -0.11995427017E+03  0.44456739848E+03  0.40000000000E+03 0. -1.
<mgrwt>
<rscale>  2 0.42807843E+03</rscale>
<asrwt>0</asrwt>
<pdfrwt beam="1">  1       21 0.97627458E-01 0.42807843E+03</pdfrwt>
<pdfrwt beam="2">  1       21 0.58348606E-01 0.42807843E+03</pdfrwt>
<totfact> 0.20806335E+03</totfact>
</mgrwt>
</event>
<event>
 4    1  0.4716816E-002  0.4147665E+03  0.7818608E-02  0.1038783E+00
         21   -1    0    0  501  502  0.00000000000E+00  0.00000000000E+00  0.52054076642E+03  0.52054076642E+03  0.00000000000E+00 0. -1.
         21   -1    0    0  502  503 -0.00000000000E+00 -0.00000000000E+00 -0.43331909923E+03  0.43331909923E+03  0.00000000000E+00 0. -1.
    9000007    1    1    2  501    0  0.68706268084E+02 -0.85502770584E+02 -0.18872584616E+03  0.45568489119E+03  0.40000000000E+03 0. -1.
   -9000007    1    1    2    0  503 -0.68706268084E+02  0.85502770584E+02  0.27594751335E+03  0.49817497446E+03  0.40000000000E+03 0. -1.
<mgrwt>
<rscale>  2 0.41476653E+03</rscale>
<asrwt>0</asrwt>
<pdfrwt beam="1">  1       21 0.80083195E-01 0.41476653E+03</pdfrwt>
<pdfrwt beam="2">  1       21 0.66664477E-01 0.41476653E+03</pdfrwt>
<totfact> 0.24870317E+03</totfact>
</mgrwt>
</event>
<event>
 4    1  0.4716816E-002  0.4265776E+03  0.7818608E-02  0.1034947E+00
         21   -1    0    0  503  502  0.00000000000E+00  0.00000000000E+00  0.13023674781E+03  0.13023674781E+03  0.00000000000E+00 0.  1.
         21   -1    0    0  501  503 -0.00000000000E+00 -0.00000000000E+00 -0.14032263570E+04  0.14032263570E+04  0.00000000000E+00 0. -1.
    9000007    1    1    2  501    0 -0.98808494378E+02 -0.11047791291E+03 -0.58630274699E+03  0.72506509979E+03  0.40000000000E+03 0.  1.
   -9000007    1    1    2    0  502  0.98808494378E+02  0.11047791291E+03 -0.68668686221E+03  0.80839800503E+03  0.40000000000E+03 0. -1.
<mgrwt>
<rscale>  2 0.42657765E+03</rscale>
<asrwt>0</asrwt>
<pdfrwt beam="1">  1       21 0.20036422E-01 0.42657765E+03</pdfrwt>
<pdfrwt beam="2">  1       21 0.21588098E+00 0.42657765E+03</pdfrwt>
<totfact> 0.20876982E+03</totfact>
</mgrwt>
</event>
<event>
 4    1  0.4716816E-002  0.4143148E+03  0.7818608E-02  0.1038933E+00
         21   -1    0    0  503  502  0.00000000000E+00  0.00000000000E+00  0.12431587118E+03  0.12431587118E+03  0.00000000000E+00 0.  1.
         21   -1    0    0  501  503 -0.00000000000E+00 -0.00000000000E+00 -0.14784401422E+04  0.14784401422E+04  0.00000000000E+00 0.  1.
    9000007    1    1    2  501    0 -0.21128692116E+02 -0.10587887548E+03 -0.47112975119E+03  0.62739142516E+03  0.40000000000E+03 0.  1.
   -9000007    1    1    2    0  502  0.21128692116E+02  0.10587887548E+03 -0.88299451981E+03  0.97536458820E+03  0.40000000000E+03 0.  1.
<mgrwt>
<rscale>  2 0.41431481E+03</rscale>
<asrwt>0</asrwt>
<pdfrwt beam="1">  1       21 0.19125519E-01 0.41431481E+03</pdfrwt>
<pdfrwt beam="2">  1       21 0.22745233E+00 0.41431481E+03</pdfrwt>
<totfact> 0.19361862E+03</totfact>
</mgrwt>
</event>
<event>
 4    1  0.4716816E-002  0.7510302E+03  0.7818608E-02  0.9633736E-01
         21   -1    0    0  503  502  0.00000000000E+00  0.00000000000E+00  0.40187220955E+03  0.40187220955E+03  0.00000000000E+00 0. -1.
         21   -1    0    0  501  503 -0.00000000000E+00 -0.00000000000E+00 -0.15770902314E+04  0.15770902314E+04  0.00000000000E+00 0. -1.
    9000007    1    1    2  501    0 -0.26260260147E+03 -0.57886631350E+03 -0.91584314624E+03  0.11844049154E+04  0.40000000000E+03 0. -1.
   -9000007    1    1    2    0  502  0.26260260147E+03  0.57886631350E+03 -0.25937487558E+03  0.79455752547E+03  0.40000000000E+03 0. -1.
<mgrwt>
<rscale>  2 0.75103018E+03</rscale>
<asrwt>0</asrwt>
<pdfrwt beam="1">  1       21 0.61826493E-01 0.75103018E+03</pdfrwt>
<pdfrwt beam="2">  1       21 0.24262927E+00 0.75103018E+03</pdfrwt>
<totfact> 0.12404090E+02</totfact>
</mgrwt>
</event>
<event>
 4    1  0.4716816E-002  0.4639907E+03  0.7818608E-02  0.1023630E+00
         21   -1    0    0  501  502  0.00000000000E+00  0.00000000000E+00  0.99980633355E+03  0.99980633355E+03  0.00000000000E+00 0.  1.
         21   -1    0    0  502  503 -0.00000000000E+00 -0.00000000000E+00 -0.60467867954E+03  0.60467867954E+03  0.00000000000E+00 0.  1.
    9000007    1    1    2  501    0 -0.60820802446E+02  0.22713026118E+03  0.84130788982E+03  0.96077379805E+03  0.40000000000E+03 0.  1.
   -9000007    1    1    2    0  503  0.60820802446E+02 -0.22713026118E+03 -0.44618023580E+03  0.64371121504E+03  0.40000000000E+03 0.  1.
<mgrwt>
<rscale>  2 0.46399065E+03</rscale>
<asrwt>0</asrwt>
<pdfrwt beam="1">  1       21 0.15381636E+00 0.46399065E+03</pdfrwt>
<pdfrwt beam="2">  1       21 0.93027489E-01 0.46399065E+03</pdfrwt>
<totfact> 0.22100432E+02</totfact>
</mgrwt>
</event>
<event>
 4    1  0.4716816E-002  0.4056822E+03  0.7818608E-02  0.1041830E+00
         21   -1    0    0  503  502  0.00000000000E+00  0.00000000000E+00  0.19895852773E+03  0.19895852773E+03  0.00000000000E+00 0.  1.
         21   -1    0    0  501  503 -0.00000000000E+00 -0.00000000000E+00 -0.87753811294E+03  0.87753811294E+03  0.00000000000E+00 0.  1.
    9000007    1    1    2  501    0 -0.67470953868E+02  0.50749334318E+01 -0.46820585587E+03  0.61951174971E+03  0.40000000000E+03 0. -1.
   -9000007    1    1    2    0  502  0.67470953868E+02 -0.50749334318E+01 -0.21037372934E+03  0.45698489096E+03  0.40000000000E+03 0. -1.
<mgrwt>
<rscale>  2 0.40568225E+03</rscale>
<asrwt>0</asrwt>
<pdfrwt beam="1">  1       21 0.30609004E-01 0.40568225E+03</pdfrwt>
<pdfrwt beam="2">  1       21 0.13500586E+00 0.40568225E+03</pdfrwt>
<totfact> 0.35524224E+03</totfact>
</mgrwt>
</event>
<event>
 4    1  0.4716816E-002  0.5048940E+03  0.7818608E-02  0.1012509E+00
         21   -1    0    0  503  502  0.00000000000E+00  0.00000000000E+00  0.12456267992E+04  0.12456267992E+04  0.00000000000E+00 0. -1.
         21   -1    0    0  501  503 -0.00000000000E+00 -0.00000000000E+00 -0.20473600740E+03  0.20473600740E+03  0.00000000000E+00 0. -1.
    9000007    1    1    2  501    0 -0.30246089985E+03 -0.58611941821E+02  0.50561196242E+03  0.71453580190E+03  0.40000000000E+03 0. -1.
   -9000007    1    1    2    0  502  0.30246089985E+03  0.58611941821E+02  0.53527882942E+03  0.73582700473E+03  0.40000000000E+03 0. -1.
<mgrwt>
<rscale>  2 0.50489400E+03</rscale>
<asrwt>0</asrwt>
<pdfrwt beam="1">  1       21 0.19163489E+00 0.50489400E+03</pdfrwt>
<pdfrwt beam="2">  1       21 0.31497848E-01 0.50489400E+03</pdfrwt>
<totfact> 0.12099448E+03</totfact>
</mgrwt>
</event>
<event>
 4    1  0.4716816E-002  0.4079387E+03  0.7818608E-02  0.1041065E+00
         21   -1    0    0  501  502  0.00000000000E+00  0.00000000000E+00  0.41277570943E+03  0.41277570943E+03  0.00000000000E+00 0.  1.
         21   -1    0    0  502  503 -0.00000000000E+00 -0.00000000000E+00 -0.47296260592E+03  0.47296260592E+03  0.00000000000E+00 0.  1.
    9000007    1    1    2  501    0  0.28775670421E+02 -0.74738946156E+02  0.14004527538E+03  0.43130804356E+03  0.40000000000E+03 0.  1.
   -9000007    1    1    2    0  503 -0.28775670421E+02  0.74738946156E+02 -0.20023217187E+03  0.45443027180E+03  0.40000000000E+03 0.  1.
<mgrwt>
<rscale>  2 0.40793866E+03</rscale>
<asrwt>0</asrwt>
<pdfrwt beam="1">  1       21 0.63503955E-01 0.40793866E+03</pdfrwt>
<pdfrwt beam="2">  1       21 0.72763478E-01 0.40793866E+03</pdfrwt>
<totfact> 0.34570886E+03</totfact>
</mgrwt>
</event>
<event>
 4    1  0.4716816E-002  0.4834369E+03  0.7818608E-02  0.1018195E+00
         21   -1    0    0  503  502  0.00000000000E+00  0.00000000000E+00  0.37507450504E+03  0.37507450504E+03  0.00000000000E+00 0.  1.
         21   -1    0    0  501  503 -0.00000000000E+00 -0.00000000000E+00 -0.14188595743E+04  0.14188595743E+04  0.00000000000E+00 0. -1.
    9000007    1    1    2  501    0  0.75913603192E+02  0.26066908161E+03 -0.11936245143E+04  0.12878084975E+04  0.40000000000E+03 0. -1.
   -9000007    1    1    2    0  502 -0.75913603192E+02 -0.26066908161E+03  0.14983944503E+03  0.50612558179E+03  0.40000000000E+03 0.  1.
<mgrwt>
<rscale>  2 0.48343691E+03</rscale>
<asrwt>0</asrwt>
<pdfrwt beam="1">  1       21 0.57703770E-01 0.48343691E+03</pdfrwt>
<pdfrwt beam="2">  1       21 0.21828609E+00 0.48343691E+03</pdfrwt>
<totfact> 0.23015654E+02</totfact>
</mgrwt>
</event>
<event>
 4    1  0.4716816E-002  0.4055677E+03  0.7818608E-02  0.1041869E+00
         21   -1    0    0  501  502  0.00000000000E+00  0.00000000000E+00  0.16842320656E+03  0.16842320656E+03  0.00000000000E+00 0.  1.
         21   -1    0    0  502  503 -0.00000000000E+00 -0.00000000000E+00 -0.14537628723E+04  0.14537628723E+04  0.00000000000E+00 0.  1.
    9000007    1    1    2  501    0  0.65627681745E+02 -0.13347325742E+02 -0.17799516717E+03  0.44290791735E+03  0.40000000000E+03 0. -1.
   -9000007    1    1    2    0  503 -0.65627681745E+02  0.13347325742E+02 -0.11073444986E+04  0.11792781615E+04  0.40000000000E+03 0. -1.
<mgrwt>
<rscale>  2 0.40556768E+03</rscale>
<asrwt>0</asrwt>
<pdfrwt beam="1">  1       21 0.25911263E-01 0.40556768E+03</pdfrwt>
<pdfrwt beam="2">  1       21 0.22365582E+00 0.40556768E+03</pdfrwt>
<totfact> 0.11471724E+03</totfact>
</mgrwt>
</event>
<event>
 4    1  0.4716816E-002  0.5230587E+03  0.7818608E-02  0.1007930E+00
         21   -1    0    0  501  502  0.00000000000E+00  0.00000000000E+00  0.20576302151E+03  0.20576302151E+03  0.00000000000E+00 0. -1.
         21   -1    0    0  502  503 -0.00000000000E+00 -0.00000000000E+00 -0.15036367740E+04  0.15036367740E+04  0.00000000000E+00 0.  1.
    9000007    1    1    2  501    0  0.32819742657E+03  0.76660909945E+02 -0.35819031406E+03  0.63394853656E+03  0.40000000000E+03 0. -1.
   -9000007    1    1    2    0  503 -0.32819742657E+03 -0.76660909945E+02 -0.93968343839E+03  0.10754512589E+04  0.40000000000E+03 0. -1.
<mgrwt>
<rscale>  2 0.52305874E+03</rscale>
<asrwt>0</asrwt>
<pdfrwt beam="1">  1       21 0.31655849E-01 0.52305874E+03</pdfrwt>
<pdfrwt beam="2">  1       21 0.23132874E+00 0.52305874E+03</pdfrwt>
<totfact> 0.65326070E+02</totfact>
</mgrwt>
</event>
<event>
 4    1  0.4716816E-002  0.4908231E+03  0.7818608E-02  0.1016202E+00
         21   -1    0    0  501  502  0.00000000000E+00  0.00000000000E+00  0.17346803012E+04  0.17346803012E+04  0.00000000000E+00 0. -1.
         21   -1    0    0  502  503 -0.00000000000E+00 -0.00000000000E+00 -0.17122747042E+03  0.17122747042E+03  0.00000000000E+00 0. -1.
    9000007    1    1    2  501    0  0.25113705713E+03 -0.13355709750E+03  0.11959406189E+04  0.12927417700E+04  0.40000000000E+03 0. -1.
   -9000007    1    1    2    0  503 -0.25113705713E+03  0.13355709750E+03  0.36751221187E+03  0.61316600169E+03  0.40000000000E+03 0. -1.
<mgrwt>
<rscale>  2 0.49082310E+03</rscale>
<asrwt>0</asrwt>
<pdfrwt beam="1">  1       21 0.26687388E+00 0.49082310E+03</pdfrwt>
<pdfrwt beam="2">  1       21 0.26342689E-01 0.49082310E+03</pdfrwt>
<totfact> 0.57496634E+02</totfact>
</mgrwt>
</event>
<event>
 4    1  0.4716816E-002  0.4465477E+03  0.7818608E-02  0.1028757E+00
         21   -1    0    0  501  502  0.00000000000E+00  0.00000000000E+00  0.27273859487E+03  0.27273859487E+03  0.00000000000E+00 0. -1.
         21   -1    0    0  502  503 -0.00000000000E+00 -0.00000000000E+00 -0.73130067351E+03  0.73130067351E+03  0.00000000000E+00 0. -1.
    9000007    1    1    2  501    0  0.25901190399E+02  0.19680939065E+03 -0.22140359599E+03  0.49842186973E+03  0.40000000000E+03 0. -1.
   -9000007    1    1    2    0  503 -0.25901190399E+02 -0.19680939065E+03 -0.23715848265E+03  0.50561739864E+03  0.40000000000E+03 0. -1.
<mgrwt>
<rscale>  2 0.44654765E+03</rscale>
<asrwt>0</asrwt>
<pdfrwt beam="1">  1       21 0.41959784E-01 0.44654765E+03</pdfrwt>
<pdfrwt beam="2">  1       21 0.11250779E+00 0.44654765E+03</pdfrwt>
<totfact> 0.29375869E+03</totfact>
</mgrwt>
</event>
<event>
 4    1  0.4716816E-002  0.4303680E+03  0.7818608E-02  0.1033744E+00
         21   -1    0    0  501  502  0.00000000000E+00  0.00000000000E+00  0.16198264429E+04  0.16198264429E+04  0.00000000000E+00 0. -1.
         21   -1    0    0  502  503 -0.00000000000E+00 -0.00000000000E+00 -0.14132894509E+03  0.14132894509E+03  0.00000000000E+00 0. -1.
    9000007    1    1    2  501    0  0.86461014635E+02 -0.13319576995E+03  0.11240326891E+04  0.12036054613E+04  0.40000000000E+03 0. -1.
   -9000007    1    1    2    0  503 -0.86461014635E+02  0.13319576995E+03  0.35446480866E+03  0.55754992670E+03  0.40000000000E+03 0. -1.
<mgrwt>
<rscale>  2 0.43036801E+03</rscale>
<asrwt>0</asrwt>
<pdfrwt beam="1">  1       21 0.24920405E+00 0.43036801E+03</pdfrwt>
<pdfrwt beam="2">  1       21 0.21742916E-01 0.43036801E+03</pdfrwt>
<totfact> 0.11024799E+03</totfact>
</mgrwt>
</event>
<event>
 4    1  0.4716816E-002  0.4153146E+03  0.7818608E-02  0.1038602E+00
         21   -1    0    0  501  502  0.00000000000E+00  0.00000000000E+00  0.17280891377E+03  0.17280891377E+03  0.00000000000E+00 0. -1.
         21   -1    0    0  502  503 -0.00000000000E+00 -0.00000000000E+00 -0.11623176728E+04  0.11623176728E+04  0.00000000000E+00 0. -1.
    9000007    1    1    2  501    0  0.10992709816E+03  0.20056720025E+02 -0.24385670009E+03  0.48161429496E+03  0.40000000000E+03 0. -1.
   -9000007    1    1    2    0  503 -0.10992709816E+03 -0.20056720025E+02 -0.74565205891E+03  0.85351229159E+03  0.40000000000E+03 0. -1.
<mgrwt>
<rscale>  2 0.41531463E+03</rscale>
<asrwt>0</asrwt>
<pdfrwt beam="1">  1       21 0.26585986E-01 0.41531463E+03</pdfrwt>
<pdfrwt beam="2">  1       21 0.17881811E+00 0.41531463E+03</pdfrwt>
<totfact> 0.21565039E+03</totfact>
</mgrwt>
</event>
<event>
 4    1  0.4716816E-002  0.4143202E+03  0.7818608E-02  0.1038931E+00
         21   -1    0    0  503  502  0.00000000000E+00  0.00000000000E+00  0.25083260691E+03  0.25083260691E+03  0.00000000000E+00 0.  1.
         21   -1    0    0  501  503 -0.00000000000E+00 -0.00000000000E+00 -0.89842122928E+03  0.89842122928E+03  0.00000000000E+00 0.  1.
    9000007    1    1    2  501    0 -0.19285977466E+02  0.10625119841E+03 -0.60427893201E+03  0.73267611792E+03  0.40000000000E+03 0.  1.
   -9000007    1    1    2    0  502  0.19285977466E+02 -0.10625119841E+03 -0.43309690356E+02  0.41657771828E+03  0.40000000000E+03 0.  1.
<mgrwt>
<rscale>  2 0.41432025E+03</rscale>
<asrwt>0</asrwt>
<pdfrwt beam="1">  1       21 0.38589631E-01 0.41432025E+03</pdfrwt>
<pdfrwt beam="2">  1       21 0.13821865E+00 0.41432025E+03</pdfrwt>
<totfact> 0.20860809E+03</totfact>
</mgrwt>
</event>
<event>
 4    1  0.4716816E-002  0.6463494E+03  0.7818608E-02  0.9813654E-01
         21   -1    0    0  503  502  0.00000000000E+00  0.00000000000E+00  0.53669738249E+03  0.53669738249E+03  0.00000000000E+00 0. -1.
         21   -1    0    0  501  503 -0.00000000000E+00 -0.00000000000E+00 -0.98699914997E+03  0.98699914997E+03  0.00000000000E+00 0. -1.
    9000007    1    1    2  501    0 -0.21170715856E+03 -0.46146246303E+03  0.12508604253E+03  0.65834188975E+03  0.40000000000E+03 0. -1.
   -9000007    1    1    2    0  502  0.21170715856E+03  0.46146246303E+03 -0.57538781001E+03  0.86535464272E+03  0.40000000000E+03 0. -1.
<mgrwt>
<rscale>  2 0.64634938E+03</rscale>
<asrwt>0</asrwt>
<pdfrwt beam="1">  1       21 0.82568828E-01 0.64634938E+03</pdfrwt>
<pdfrwt beam="2">  1       21 0.15184602E+00 0.64634938E+03</pdfrwt>
<totfact> 0.28215586E+02</totfact>
</mgrwt>
</event>
<event>
 4    1  0.4716816E-002  0.4335544E+03  0.7818608E-02  0.1032743E+00
         21   -1    0    0  501  502  0.00000000000E+00  0.00000000000E+00  0.58768463772E+03  0.58768463772E+03  0.00000000000E+00 0. -1.
         21   -1    0    0  502  503 -0.00000000000E+00 -0.00000000000E+00 -0.33370911537E+03  0.33370911537E+03  0.00000000000E+00 0. -1.
    9000007    1    1    2  501    0  0.10457339912E+03  0.13051376020E+03  0.22088197174E+03  0.48657813642E+03  0.40000000000E+03 0. -1.
   -9000007    1    1    2    0  503 -0.10457339912E+03 -0.13051376020E+03  0.33093550613E+02  0.43481561667E+03  0.40000000000E+03 0. -1.
<mgrwt>
<rscale>  2 0.43355442E+03</rscale>
<asrwt>0</asrwt>
<pdfrwt beam="1">  1       21 0.90413021E-01 0.43355442E+03</pdfrwt>
<pdfrwt beam="2">  1       21 0.51339864E-01 0.43355442E+03</pdfrwt>
<totfact> 0.32863782E+03</totfact>
</mgrwt>
</event>
<event>
 4    1  0.4716816E-002  0.4179419E+03  0.7818608E-02  0.1037738E+00
         21   -1    0    0  501  502  0.00000000000E+00  0.00000000000E+00  0.20804906017E+03  0.20804906017E+03  0.00000000000E+00 0. -1.
         21   -1    0    0  502  503 -0.00000000000E+00 -0.00000000000E+00 -0.13533099480E+04  0.13533099480E+04  0.00000000000E+00 0. -1.
    9000007    1    1    2  501    0  0.34558708834E+02  0.11610816670E+03 -0.91637870756E+02  0.42787020238E+03  0.40000000000E+03 0. -1.
   -9000007    1    1    2    0  503 -0.34558708834E+02 -0.11610816670E+03 -0.10536230171E+04  0.11334888058E+04  0.40000000000E+03 0. -1.
<mgrwt>
<rscale>  2 0.41794187E+03</rscale>
<asrwt>0</asrwt>
<pdfrwt beam="1">  1       21 0.32007548E-01 0.41794187E+03</pdfrwt>
<pdfrwt beam="2">  1       21 0.20820153E+00 0.41794187E+03</pdfrwt>
<totfact> 0.94401386E+02</totfact>
</mgrwt>
</event>
<event>
 4    1  0.4716816E-002  0.5386078E+03  0.7818608E-02  0.1004166E+00
         21   -1    0    0  503  502  0.00000000000E+00  0.00000000000E+00  0.82845739341E+03  0.82845739341E+03  0.00000000000E+00 0. -1.
         21   -1    0    0  501  503 -0.00000000000E+00 -0.00000000000E+00 -0.40019711512E+03  0.40019711512E+03  0.00000000000E+00 0. -1.
    9000007    1    1    2  501    0  0.30316369145E+03  0.19542288478E+03 -0.30795259237E+01  0.53861657159E+03  0.40000000000E+03 0. -1.
   -9000007    1    1    2    0  502 -0.30316369145E+03 -0.19542288478E+03  0.43133980422E+03  0.69003793694E+03  0.40000000000E+03 0. -1.
<mgrwt>
<rscale>  2 0.53860777E+03</rscale>
<asrwt>0</asrwt>
<pdfrwt beam="1">  1       21 0.12745498E+00 0.53860777E+03</pdfrwt>
<pdfrwt beam="2">  1       21 0.61568787E-01 0.53860777E+03</pdfrwt>
<totfact> 0.91155680E+02</totfact>
</mgrwt>
</event>
<event>
 4    1  0.4716816E-002  0.5551442E+03  0.7818608E-02  0.1000310E+00
         21   -1    0    0  503  502  0.00000000000E+00  0.00000000000E+00  0.21981215108E+03  0.21981215108E+03  0.00000000000E+00 0.  1.
         21   -1    0    0  501  503 -0.00000000000E+00 -0.00000000000E+00 -0.14035914526E+04  0.14035914526E+04  0.00000000000E+00 0. -1.
    9000007    1    1    2  501    0 -0.17761133726E+03  0.34152490869E+03 -0.61889102808E+03  0.83139109631E+03  0.40000000000E+03 0. -1.
   -9000007    1    1    2    0  502  0.17761133726E+03 -0.34152490869E+03 -0.56488827346E+03  0.79201250739E+03  0.40000000000E+03 0.  1.
<mgrwt>
<rscale>  2 0.55514417E+03</rscale>
<asrwt>0</asrwt>
<pdfrwt beam="1">  1       21 0.33817254E-01 0.55514417E+03</pdfrwt>
<pdfrwt beam="2">  1       21 0.21593715E+00 0.55514417E+03</pdfrwt>
<totfact> 0.70836989E+02</totfact>
</mgrwt>
</event>
<event>
 4    1  0.4716816E-002  0.4736708E+03  0.7818608E-02  0.1020889E+00
         21   -1    0    0  503  502  0.00000000000E+00  0.00000000000E+00  0.12840332195E+04  0.12840332195E+04  0.00000000000E+00 0. -1.
         21   -1    0    0  501  503 -0.00000000000E+00 -0.00000000000E+00 -0.17474630023E+03  0.17474630023E+03  0.00000000000E+00 0.  1.
    9000007    1    1    2  501    0  0.11943940380E+03  0.22382648222E+03  0.54848630258E+03  0.72470772691E+03  0.40000000000E+03 0. -1.
   -9000007    1    1    2    0  502 -0.11943940380E+03 -0.22382648222E+03  0.56080061669E+03  0.73407179281E+03  0.40000000000E+03 0.  1.
<mgrwt>
<rscale>  2 0.47367084E+03</rscale>
<asrwt>0</asrwt>
<pdfrwt beam="1">  1       21 0.19754357E+00 0.47367084E+03</pdfrwt>
<pdfrwt beam="2">  1       21 0.26884047E-01 0.47367084E+03</pdfrwt>
<totfact> 0.15295948E+03</totfact>
</mgrwt>
</event>
<event>
 4    1  0.4716816E-002  0.4248617E+03  0.7818608E-02  0.1035496E+00
         21   -1    0    0  503  502  0.00000000000E+00  0.00000000000E+00  0.26418370554E+03  0.26418370554E+03  0.00000000000E+00 0.  1.
         21   -1    0    0  501  503 -0.00000000000E+00 -0.00000000000E+00 -0.87712912060E+03  0.87712912060E+03  0.00000000000E+00 0.  1.
    9000007    1    1    2  501    0  0.74809075195E+02 -0.12211082634E+03 -0.57475485593E+03  0.71473813110E+03  0.40000000000E+03 0.  1.
   -9000007    1    1    2    0  502 -0.74809075195E+02  0.12211082634E+03 -0.38190559131E+02  0.42657469504E+03  0.40000000000E+03 0.  1.
<mgrwt>
<rscale>  2 0.42486169E+03</rscale>
<asrwt>0</asrwt>
<pdfrwt beam="1">  1       21 0.40643647E-01 0.42486169E+03</pdfrwt>
<pdfrwt beam="2">  1       21 0.13494294E+00 0.42486169E+03</pdfrwt>
<totfact> 0.19885661E+03</totfact>
</mgrwt>
</event>
<event>
 4    1  0.4716816E-002  0.4291258E+03  0.7818608E-02  0.1034136E+00
         21   -1    0    0  503  502  0.00000000000E+00  0.00000000000E+00  0.18249060792E+03  0.18249060792E+03  0.00000000000E+00 0. -1.
         21   -1    0    0  501  503 -0.00000000000E+00 -0.00000000000E+00 -0.12698880189E+04  0.12698880189E+04  0.00000000000E+00 0. -1.
    9000007    1    1    2  501    0 -0.14701813679E+03  0.50345306094E+02 -0.87279379871E+03  0.97258315709E+03  0.40000000000E+03 0. -1.
   -9000007    1    1    2    0  502  0.14701813679E+03 -0.50345306094E+02 -0.21460361228E+03  0.47979546975E+03  0.40000000000E+03 0. -1.
<mgrwt>
<rscale>  2 0.42912584E+03</rscale>
<asrwt>0</asrwt>
<pdfrwt beam="1">  1       21 0.28075477E-01 0.42912584E+03</pdfrwt>
<pdfrwt beam="2">  1       21 0.19536739E+00 0.42912584E+03</pdfrwt>
<totfact> 0.14813160E+03</totfact>
</mgrwt>
</event>
<event>
 4    1  0.4716816E-002  0.6977563E+03  0.7818608E-02  0.9721077E-01
         21   -1    0    0  503  502  0.00000000000E+00  0.00000000000E+00  0.56846394923E+03  0.56846394923E+03  0.00000000000E+00 0.  1.
         21   -1    0    0  501  503 -0.00000000000E+00 -0.00000000000E+00 -0.88385630030E+03  0.88385630030E+03  0.00000000000E+00 0. -1.
    9000007    1    1    2  501    0  0.54227690545E+03  0.18110666410E+03 -0.28555364834E+03  0.75392622454E+03  0.40000000000E+03 0. -1.
   -9000007    1    1    2    0  502 -0.54227690545E+03 -0.18110666410E+03 -0.29838702727E+02  0.69839402499E+03  0.40000000000E+03 0. -1.
<mgrwt>
<rscale>  2 0.69775631E+03</rscale>
<asrwt>0</asrwt>
<pdfrwt beam="1">  1       21 0.87455993E-01 0.69775631E+03</pdfrwt>
<pdfrwt beam="2">  1       21 0.13597789E+00 0.69775631E+03</pdfrwt>
<totfact> 0.32705726E+02</totfact>
</mgrwt>
</event>
<event>
 4    1  0.4716816E-002  0.5785156E+03  0.7818608E-02  0.9951010E-01
         21   -1    0    0  501  502  0.00000000000E+00  0.00000000000E+00  0.30574171637E+03  0.30574171637E+03  0.00000000000E+00 0. -1.
         21   -1    0    0  502  503 -0.00000000000E+00 -0.00000000000E+00 -0.12059830337E+04  0.12059830337E+04  0.00000000000E+00 0.  1.
    9000007    1    1    2  501    0 -0.33862927499E+03 -0.24497033307E+03 -0.22046156894E+03  0.61909898509E+03  0.40000000000E+03 0. -1.
   -9000007    1    1    2    0  503  0.33862927499E+03  0.24497033307E+03 -0.67977974837E+03  0.89262576496E+03  0.40000000000E+03 0.  1.
<mgrwt>
<rscale>  2 0.57851556E+03</rscale>
<asrwt>0</asrwt>
<pdfrwt beam="1">  1       21 0.47037185E-01 0.57851556E+03</pdfrwt>
<pdfrwt beam="2">  1       21 0.18553586E+00 0.57851556E+03</pdfrwt>
<totfact> 0.56804813E+02</totfact>
</mgrwt>
</event>
<event>
 4    1  0.4716816E-002  0.4738311E+03  0.7818608E-02  0.1020844E+00
         21   -1    0    0  503  502  0.00000000000E+00  0.00000000000E+00  0.15794752010E+03  0.15794752010E+03  0.00000000000E+00 0. -1.
         21   -1    0    0  501  503 -0.00000000000E+00 -0.00000000000E+00 -0.15914716614E+04  0.15914716614E+04  0.00000000000E+00 0. -1.
    9000007    1    1    2  501    0  0.62584439672E+02  0.24616884818E+03 -0.10026561410E+04  0.11089793736E+04  0.40000000000E+03 0. -1.
   -9000007    1    1    2    0  502 -0.62584439672E+02 -0.24616884818E+03 -0.43086800027E+03  0.64043980791E+03  0.40000000000E+03 0. -1.
<mgrwt>
<rscale>  2 0.47383110E+03</rscale>
<asrwt>0</asrwt>
<pdfrwt beam="1">  1       21 0.24299618E-01 0.47383110E+03</pdfrwt>
<pdfrwt beam="2">  1       21 0.24484180E+00 0.47383110E+03</pdfrwt>
<totfact> 0.92633599E+02</totfact>
</mgrwt>
</event>
<event>
 4    1  0.4716816E-002  0.4672114E+03  0.7818608E-02  0.1022710E+00
         21   -1    0    0  501  502  0.00000000000E+00  0.00000000000E+00  0.48601727268E+03  0.48601727268E+03  0.00000000000E+00 0.  1.
         21   -1    0    0  502  503 -0.00000000000E+00 -0.00000000000E+00 -0.91538744593E+03  0.91538744593E+03  0.00000000000E+00 0. -1.
    9000007    1    1    2  501    0  0.23055574112E+03 -0.71627673141E+02  0.28539840990E+03  0.54748399584E+03  0.40000000000E+03 0.  1.
   -9000007    1    1    2    0  503 -0.23055574112E+03  0.71627673141E+02 -0.71476858315E+03  0.85392072278E+03  0.40000000000E+03 0. -1.
<mgrwt>
<rscale>  2 0.46721138E+03</rscale>
<asrwt>0</asrwt>
<pdfrwt beam="1">  1       21 0.74771889E-01 0.46721138E+03</pdfrwt>
<pdfrwt beam="2">  1       21 0.14082884E+00 0.46721138E+03</pdfrwt>
<totfact> 0.46629896E+02</totfact>
</mgrwt>
</event>
<event>
 4    1  0.4716816E-002  0.4931107E+03  0.7818608E-02  0.1015593E+00
         21   -1    0    0  503  502  0.00000000000E+00  0.00000000000E+00  0.24288834125E+04  0.24288834125E+04  0.00000000000E+00 0.  1.
         21   -1    0    0  501  503 -0.00000000000E+00 -0.00000000000E+00 -0.10390069830E+03  0.10390069830E+03  0.00000000000E+00 0.  1.
    9000007    1    1    2  501    0 -0.14004966013E+03 -0.25207993682E+03  0.92063625278E+03  0.10443798695E+04  0.40000000000E+03 0.  1.
   -9000007    1    1    2    0  502  0.14004966013E+03  0.25207993682E+03  0.14043464614E+04  0.14884042413E+04  0.40000000000E+03 0.  1.
<mgrwt>
<rscale>  2 0.49311074E+03</rscale>
<asrwt>0</asrwt>
<pdfrwt beam="1">  1       21 0.37367433E+00 0.49311074E+03</pdfrwt>
<pdfrwt beam="2">  1       21 0.15984725E-01 0.49311074E+03</pdfrwt>
<totfact> 0.33286214E+02</totfact>
</mgrwt>
</event>
<event>
 4    1  0.4716816E-002  0.4437123E+03  0.7818608E-02  0.1029614E+00
         21   -1    0    0  503  502  0.00000000000E+00  0.00000000000E+00  0.11525747324E+04  0.11525747324E+04  0.00000000000E+00 0.  1.
         21   -1    0    0  501  503 -0.00000000000E+00 -0.00000000000E+00 -0.19260438960E+03  0.19260438960E+03  0.00000000000E+00 0.  1.
    9000007    1    1    2  501    0  0.15442434606E+03 -0.11416541584E+03  0.70619356310E+03  0.83402036509E+03  0.40000000000E+03 0.  1.
   -9000007    1    1    2    0  502 -0.15442434606E+03  0.11416541584E+03  0.25377677968E+03  0.51115875688E+03  0.40000000000E+03 0.  1.
<mgrwt>
<rscale>  2 0.44371232E+03</rscale>
<asrwt>0</asrwt>
<pdfrwt beam="1">  1       21 0.17731919E+00 0.44371232E+03</pdfrwt>
<pdfrwt beam="2">  1       21 0.29631445E-01 0.44371232E+03</pdfrwt>
<totfact> 0.17630660E+03</totfact>
</mgrwt>
</event>
<event>
 4    1  0.4716816E-002  0.4505803E+03  0.7818608E-02  0.1027549E+00
         21   -1    0    0  503  502  0.00000000000E+00  0.00000000000E+00  0.15076303323E+04  0.15076303323E+04  0.00000000000E+00 0. -1.
         21   -1    0    0  501  503 -0.00000000000E+00 -0.00000000000E+00 -0.17598181212E+03  0.17598181212E+03  0.00000000000E+00 0. -1.
    9000007    1    1    2  501    0  0.20383474561E+03  0.38392267346E+02  0.25792757966E+03  0.51918128439E+03  0.40000000000E+03 0. -1.
   -9000007    1    1    2    0  502 -0.20383474561E+03 -0.38392267346E+02  0.10737209405E+04  0.11644308600E+04  0.40000000000E+03 0. -1.
<mgrwt>
<rscale>  2 0.45058026E+03</rscale>
<asrwt>0</asrwt>
<pdfrwt beam="1">  1       21 0.23194312E+00 0.45058026E+03</pdfrwt>
<pdfrwt beam="2">  1       21 0.27074126E-01 0.45058026E+03</pdfrwt>
<totfact> 0.91267756E+02</totfact>
</mgrwt>
</event>
<event>
 4    1  0.4716816E-002  0.4985471E+03  0.7818608E-02  0.1014159E+00
         21   -1    0    0  503  502  0.00000000000E+00  0.00000000000E+00  0.11746494465E+04  0.11746494465E+04  0.00000000000E+00 0.  1.
         21   -1    0    0  501  503 -0.00000000000E+00 -0.00000000000E+00 -0.21175601244E+03  0.21175601244E+03  0.00000000000E+00 0. -1.
    9000007    1    1    2  501    0 -0.18681522068E+03 -0.23162322522E+03  0.50059718745E+03  0.70650321247E+03  0.40000000000E+03 0.  1.
   -9000007    1    1    2    0  502  0.18681522068E+03  0.23162322522E+03  0.46229624662E+03  0.67990224649E+03  0.40000000000E+03 0. -1.
<mgrwt>
<rscale>  2 0.49854713E+03</rscale>
<asrwt>0</asrwt>
<pdfrwt beam="1">  1       21 0.18071530E+00 0.49854713E+03</pdfrwt>
<pdfrwt beam="2">  1       21 0.32577849E-01 0.49854713E+03</pdfrwt>
<totfact> 0.13498328E+03</totfact>
</mgrwt>
</event>
<event>
 4    1  0.4716816E-002  0.5172177E+03  0.7818608E-02  0.1009380E+00
         21   -1    0    0  503  502  0.00000000000E+00  0.00000000000E+00  0.99629570603E+03  0.99629570603E+03  0.00000000000E+00 0.  1.
         21   -1    0    0  501  503 -0.00000000000E+00 -0.00000000000E+00 -0.60445675017E+03  0.60445675017E+03  0.00000000000E+00 0. -1.
    9000007    1    1    2  501    0  0.17349290676E+03 -0.27823433324E+03 -0.40076890638E+03  0.65431632198E+03  0.40000000000E+03 0. -1.
   -9000007    1    1    2    0  502 -0.17349290676E+03  0.27823433324E+03  0.79260786223E+03  0.94643613422E+03  0.40000000000E+03 0.  1.
<mgrwt>
<rscale>  2 0.51721768E+03</rscale>
<asrwt>0</asrwt>
<pdfrwt beam="1">  1       21 0.15327626E+00 0.51721768E+03</pdfrwt>
<pdfrwt beam="2">  1       21 0.92993346E-01 0.51721768E+03</pdfrwt>
<totfact> 0.21788649E+02</totfact>
</mgrwt>
</event>
<event>
 4    1  0.4716816E-002  0.4295031E+03  0.7818608E-02  0.1034017E+00
         21   -1    0    0  501  502  0.00000000000E+00  0.00000000000E+00  0.66418547095E+02  0.66418547095E+02  0.00000000000E+00 0. -1.
         21   -1    0    0  502  503 -0.00000000000E+00 -0.00000000000E+00 -0.31221377845E+04  0.31221377845E+04  0.00000000000E+00 0.  1.
    9000007    1    1    2  501    0  0.12833406842E+03 -0.89461282419E+02 -0.99811961773E+03  0.10866074385E+04  0.40000000000E+03 0.  1.
   -9000007    1    1    2    0  503 -0.12833406842E+03  0.89461282419E+02 -0.20575996197E+04  0.21019488931E+04  0.40000000000E+03 0. -1.
<mgrwt>
<rscale>  2 0.42950315E+03</rscale>
<asrwt>0</asrwt>
<pdfrwt beam="1">  1       21 0.10218238E-01 0.42950315E+03</pdfrwt>
<pdfrwt beam="2">  1       21 0.48032889E+00 0.42950315E+03</pdfrwt>
<totfact> 0.15531553E+02</totfact>
</mgrwt>
</event>
<event>
 4    1  0.4716816E-002  0.4100973E+03  0.7818608E-02  0.1040338E+00
         21   -1    0    0  501  502  0.00000000000E+00  0.00000000000E+00  0.23120634311E+03  0.23120634311E+03  0.00000000000E+00 0. -1.
         21   -1    0    0  502  503 -0.00000000000E+00 -0.00000000000E+00 -0.74440199698E+03  0.74440199698E+03  0.00000000000E+00 0. -1.
    9000007    1    1    2  501    0 -0.61037805628E+02  0.66739954132E+02 -0.33031571105E+03  0.52658171651E+03  0.40000000000E+03 0. -1.
   -9000007    1    1    2    0  503  0.61037805628E+02 -0.66739954132E+02 -0.18287994282E+03  0.44902662357E+03  0.40000000000E+03 0. -1.
<mgrwt>
<rscale>  2 0.41009735E+03</rscale>
<asrwt>0</asrwt>
<pdfrwt beam="1">  1       21 0.35570207E-01 0.41009735E+03</pdfrwt>
<pdfrwt beam="2">  1       21 0.11452338E+00 0.41009735E+03</pdfrwt>
<totfact> 0.39959748E+03</totfact>
</mgrwt>
</event>
<event>
 4    1  0.4716816E-002  0.5793744E+03  0.7818608E-02  0.9949146E-01
         21   -1    0    0  503  502  0.00000000000E+00  0.00000000000E+00  0.35570320234E+03  0.35570320234E+03  0.00000000000E+00 0. -1.
         21   -1    0    0  501  503 -0.00000000000E+00 -0.00000000000E+00 -0.12232164511E+04  0.12232164511E+04  0.00000000000E+00 0.  1.
    9000007    1    1    2  501    0  0.28841848619E+03 -0.30412072810E+03 -0.81114408266E+03  0.99680959228E+03  0.40000000000E+03 0. -1.
   -9000007    1    1    2    0  502 -0.28841848619E+03  0.30412072810E+03 -0.56369166119E+02  0.58211006118E+03  0.40000000000E+03 0.  1.
<mgrwt>
<rscale>  2 0.57937435E+03</rscale>
<asrwt>0</asrwt>
<pdfrwt beam="1">  1       21 0.54723569E-01 0.57937435E+03</pdfrwt>
<pdfrwt beam="2">  1       21 0.18818715E+00 0.57937435E+03</pdfrwt>
<totfact> 0.39342507E+02</totfact>
</mgrwt>
</event>
<event>
 4    1  0.4716816E-002  0.4668777E+03  0.7818608E-02  0.1022805E+00
         21   -1    0    0  501  502  0.00000000000E+00  0.00000000000E+00  0.32796720210E+03  0.32796720210E+03  0.00000000000E+00 0. -1.
         21   -1    0    0  502  503 -0.00000000000E+00 -0.00000000000E+00 -0.75326152763E+03  0.75326152763E+03  0.00000000000E+00 0. -1.
    9000007    1    1    2  501    0 -0.43319498827E+02 -0.23685056883E+03 -0.27198258035E+02  0.46766923800E+03  0.40000000000E+03 0. -1.
   -9000007    1    1    2    0  503  0.43319498827E+02  0.23685056883E+03 -0.39809606750E+03  0.61355949173E+03  0.40000000000E+03 0. -1.
<mgrwt>
<rscale>  2 0.46687768E+03</rscale>
<asrwt>0</asrwt>
<pdfrwt beam="1">  1       21 0.50456493E-01 0.46687768E+03</pdfrwt>
<pdfrwt beam="2">  1       21 0.11588639E+00 0.46687768E+03</pdfrwt>
<totfact> 0.18376129E+03</totfact>
</mgrwt>
</event>
<event>
 4    1  0.4716816E-002  0.4216884E+03  0.7818608E-02  0.1036518E+00
         21   -1    0    0  503  502  0.00000000000E+00  0.00000000000E+00  0.39972122546E+03  0.39972122546E+03  0.00000000000E+00 0.  1.
         21   -1    0    0  501  503 -0.00000000000E+00 -0.00000000000E+00 -0.44924113829E+03  0.44924113829E+03  0.00000000000E+00 0.  1.
    9000007    1    1    2  501    0 -0.60564393182E+02  0.11896661475E+03  0.17145795811E+02  0.42203682240E+03  0.40000000000E+03 0.  1.
   -9000007    1    1    2    0  502  0.60564393182E+02 -0.11896661475E+03 -0.66665708638E+02  0.42692554135E+03  0.40000000000E+03 0.  1.
<mgrwt>
<rscale>  2 0.42168839E+03</rscale>
<asrwt>0</asrwt>
<pdfrwt beam="1">  1       21 0.61495573E-01 0.42168839E+03</pdfrwt>
<pdfrwt beam="2">  1       21 0.69114022E-01 0.42168839E+03</pdfrwt>
<totfact> 0.41456897E+03</totfact>
</mgrwt>
</event>
<event>
 4    1  0.4716816E-002  0.4265222E+03  0.7818608E-02  0.1034964E+00
         21   -1    0    0  503  502  0.00000000000E+00  0.00000000000E+00  0.95401468133E+02  0.95401468133E+02  0.00000000000E+00 0.  1.
         21   -1    0    0  501  503 -0.00000000000E+00 -0.00000000000E+00 -0.19472902337E+04  0.19472902337E+04  0.00000000000E+00 0.  1.
    9000007    1    1    2  501    0 -0.86763192306E+02 -0.11997223087E+03 -0.10730361778E+04  0.11546981539E+04  0.40000000000E+03 0.  1.
   -9000007    1    1    2    0  502  0.86763192306E+02  0.11997223087E+03 -0.77885258772E+03  0.88799354790E+03  0.40000000000E+03 0.  1.
<mgrwt>
<rscale>  2 0.42652220E+03</rscale>
<asrwt>0</asrwt>
<pdfrwt beam="1">  1       21 0.14677149E-01 0.42652220E+03</pdfrwt>
<pdfrwt beam="2">  1       21 0.29958311E+00 0.42652220E+03</pdfrwt>
<totfact> 0.11486428E+03</totfact>
</mgrwt>
</event>
<event>
 4    1  0.4716816E-002  0.4325344E+03  0.7818608E-02  0.1033062E+00
         21   -1    0    0  503  502  0.00000000000E+00  0.00000000000E+00  0.26368490833E+03  0.26368490833E+03  0.00000000000E+00 0.  1.
         21   -1    0    0  501  503 -0.00000000000E+00 -0.00000000000E+00 -0.84898266362E+03  0.84898266362E+03  0.00000000000E+00 0.  1.
    9000007    1    1    2  501    0  0.16304882443E+03 -0.22384776836E+02 -0.51814390019E+03  0.67495118245E+03  0.40000000000E+03 0.  1.
   -9000007    1    1    2    0  502 -0.16304882443E+03  0.22384776836E+02 -0.67153855104E+02  0.43771638950E+03  0.40000000000E+03 0.  1.
<mgrwt>
<rscale>  2 0.43253439E+03</rscale>
<asrwt>0</asrwt>
<pdfrwt beam="1">  1       21 0.40566909E-01 0.43253439E+03</pdfrwt>
<pdfrwt beam="2">  1       21 0.13061272E+00 0.43253439E+03</pdfrwt>
<totfact> 0.21665023E+03</totfact>
</mgrwt>
</event>
<event>
 4    1  0.4716816E-002  0.5422223E+03  0.7818608E-02  0.1003310E+00
         21   -1    0    0  501  502  0.00000000000E+00  0.00000000000E+00  0.47225034024E+03  0.47225034024E+03  0.00000000000E+00 0. -1.
         21   -1    0    0  502  503 -0.00000000000E+00 -0.00000000000E+00 -0.11891751762E+04  0.11891751762E+04  0.00000000000E+00 0. -1.
    9000007    1    1    2  501    0 -0.32474122107E+03  0.16896195456E+03  0.21495567227E+03  0.58327604425E+03  0.40000000000E+03 0. -1.
   -9000007    1    1    2    0  503  0.32474122107E+03 -0.16896195456E+03 -0.93188050824E+03  0.10781494722E+04  0.40000000000E+03 0. -1.
<mgrwt>
<rscale>  2 0.54222228E+03</rscale>
<asrwt>0</asrwt>
<pdfrwt beam="1">  1       21 0.72653899E-01 0.54222228E+03</pdfrwt>
<pdfrwt beam="2">  1       21 0.18295002E+00 0.54222228E+03</pdfrwt>
<totfact> 0.23144228E+02</totfact>
</mgrwt>
</event>
<event>
 4    1  0.4716816E-002  0.4987063E+03  0.7818608E-02  0.1014117E+00
         21   -1    0    0  503  502  0.00000000000E+00  0.00000000000E+00  0.32776090537E+03  0.32776090537E+03  0.00000000000E+00 0. -1.
         21   -1    0    0  501  503 -0.00000000000E+00 -0.00000000000E+00 -0.79189562200E+03  0.79189562200E+03  0.00000000000E+00 0.  1.
    9000007    1    1    2  501    0  0.28862729361E+03  0.73500201328E+02 -0.34649888065E+03  0.60726391997E+03  0.40000000000E+03 0. -1.
   -9000007    1    1    2    0  502 -0.28862729361E+03 -0.73500201328E+02 -0.11763583599E+03  0.51239260740E+03  0.40000000000E+03 0. -1.
<mgrwt>
<rscale>  2 0.49870632E+03</rscale>
<asrwt>0</asrwt>
<pdfrwt beam="1">  1       21 0.50424755E-01 0.49870632E+03</pdfrwt>
<pdfrwt beam="2">  1       21 0.12183009E+00 0.49870632E+03</pdfrwt>
<totfact> 0.16021070E+03</totfact>
</mgrwt>
</event>
<event>
 4    1  0.4716816E-002  0.5325098E+03  0.7818608E-02  0.1005625E+00
         21   -1    0    0  503  502  0.00000000000E+00  0.00000000000E+00  0.26153610810E+03  0.26153610810E+03  0.00000000000E+00 0.  1.
         21   -1    0    0  501  503 -0.00000000000E+00 -0.00000000000E+00 -0.11296725373E+04  0.11296725373E+04  0.00000000000E+00 0. -1.
    9000007    1    1    2  501    0  0.32821017462E+03  0.12587581701E+03 -0.29456227861E+03  0.60855038904E+03  0.40000000000E+03 0.  1.
   -9000007    1    1    2    0  502 -0.32821017462E+03 -0.12587581701E+03 -0.57357415062E+03  0.78265825638E+03  0.40000000000E+03 0. -1.
<mgrwt>
<rscale>  2 0.53250976E+03</rscale>
<asrwt>0</asrwt>
<pdfrwt beam="1">  1       21 0.40236324E-01 0.53250976E+03</pdfrwt>
<pdfrwt beam="2">  1       21 0.17379578E+00 0.53250976E+03</pdfrwt>
<totfact> 0.97123358E+02</totfact>
</mgrwt>
</event>
<event>
 4    1  0.4716816E-002  0.4342954E+03  0.7818608E-02  0.1032512E+00
         21   -1    0    0  503  502  0.00000000000E+00  0.00000000000E+00  0.12022567181E+04  0.12022567181E+04  0.00000000000E+00 0.  1.
         21   -1    0    0  501  503 -0.00000000000E+00 -0.00000000000E+00 -0.27362950704E+03  0.27362950704E+03  0.00000000000E+00 0.  1.
    9000007    1    1    2  501    0 -0.16705000035E+03 -0.26586012045E+02 -0.17706444469E+02  0.43465622833E+03  0.40000000000E+03 0.  1.
   -9000007    1    1    2    0  502  0.16705000035E+03  0.26586012045E+02  0.94633365553E+03  0.10412299968E+04  0.40000000000E+03 0.  1.
<mgrwt>
<rscale>  2 0.43429543E+03</rscale>
<asrwt>0</asrwt>
<pdfrwt beam="1">  1       21 0.18496257E+00 0.43429543E+03</pdfrwt>
<pdfrwt beam="2">  1       21 0.42096848E-01 0.43429543E+03</pdfrwt>
<totfact> 0.76819105E+02</totfact>
</mgrwt>
</event>
<event>
 4    1  0.4716816E-002  0.4565021E+03  0.7818608E-02  0.1025801E+00
         21   -1    0    0  501  502  0.00000000000E+00  0.00000000000E+00  0.19590560640E+04  0.19590560640E+04  0.00000000000E+00 0. -1.
         21   -1    0    0  502  503 -0.00000000000E+00 -0.00000000000E+00 -0.10683372254E+03  0.10683372254E+03  0.00000000000E+00 0.  1.
    9000007    1    1    2  501    0 -0.21070984502E+03 -0.63209901720E+02  0.99381429927E+03  0.10936457342E+04  0.40000000000E+03 0. -1.
   -9000007    1    1    2    0  503  0.21070984502E+03  0.63209901720E+02  0.85840804222E+03  0.97224405239E+03  0.40000000000E+03 0.  1.
<mgrwt>
<rscale>  2 0.45650206E+03</rscale>
<asrwt>0</asrwt>
<pdfrwt beam="1">  1       21 0.30139322E+00 0.45650206E+03</pdfrwt>
<pdfrwt beam="2">  1       21 0.16435959E-01 0.45650206E+03</pdfrwt>
<totfact> 0.89286475E+02</totfact>
</mgrwt>
</event>
<event>
 4    1  0.4716816E-002  0.5946749E+03  0.7818608E-02  0.9916516E-01
         21   -1    0    0  503  502  0.00000000000E+00  0.00000000000E+00  0.14185977248E+04  0.14185977248E+04  0.00000000000E+00 0.  1.
         21   -1    0    0  501  503 -0.00000000000E+00 -0.00000000000E+00 -0.25457580336E+03  0.25457580336E+03  0.00000000000E+00 0. -1.
    9000007    1    1    2  501    0  0.43978820502E+03 -0.14984365463E+02  0.46143114595E+03  0.75269974022E+03  0.40000000000E+03 0.  1.
   -9000007    1    1    2    0  502 -0.43978820502E+03  0.14984365463E+02  0.70259077550E+03  0.92047378795E+03  0.40000000000E+03 0. -1.
<mgrwt>
<rscale>  2 0.59467487E+03</rscale>
<asrwt>0</asrwt>
<pdfrwt beam="1">  1       21 0.21824580E+00 0.59467487E+03</pdfrwt>
<pdfrwt beam="2">  1       21 0.39165509E-01 0.59467487E+03</pdfrwt>
<totfact> 0.49924618E+02</totfact>
</mgrwt>
</event>
<event>
 4    1  0.4716816E-002  0.4780784E+03  0.7818608E-02  0.1019665E+00
         21   -1    0    0  503  502  0.00000000000E+00  0.00000000000E+00  0.70069953572E+03  0.70069953572E+03  0.00000000000E+00 0.  1.
         21   -1    0    0  501  503 -0.00000000000E+00 -0.00000000000E+00 -0.38876787070E+03  0.38876787070E+03  0.00000000000E+00 0.  1.
    9000007    1    1    2  501    0 -0.18194849542E+03  0.18829164574E+03 -0.62588924277E+02  0.48215803663E+03  0.40000000000E+03 0.  1.
   -9000007    1    1    2    0  502  0.18194849542E+03 -0.18829164574E+03  0.37452058930E+03  0.60730936980E+03  0.40000000000E+03 0.  1.
<mgrwt>
<rscale>  2 0.47807844E+03</rscale>
<asrwt>0</asrwt>
<pdfrwt beam="1">  1       21 0.10779993E+00 0.47807844E+03</pdfrwt>
<pdfrwt beam="2">  1       21 0.59810442E-01 0.47807844E+03</pdfrwt>
<totfact> 0.15172863E+03</totfact>
</mgrwt>
</event>
<event>
 4    1  0.4716816E-002  0.4510162E+03  0.7818608E-02  0.1027419E+00
         21   -1    0    0  501  502  0.00000000000E+00  0.00000000000E+00  0.88101476708E+03  0.88101476708E+03  0.00000000000E+00 0. -1.
         21   -1    0    0  502  503 -0.00000000000E+00 -0.00000000000E+00 -0.24803706701E+03  0.24803706701E+03  0.00000000000E+00 0.  1.
    9000007    1    1    2  501    0 -0.20095112338E+03  0.55083943444E+02  0.46492780607E+03  0.64774490324E+03  0.40000000000E+03 0. -1.
   -9000007    1    1    2    0  503  0.20095112338E+03 -0.55083943444E+02  0.16804989400E+03  0.48130693085E+03  0.40000000000E+03 0.  1.
<mgrwt>
<rscale>  2 0.45101618E+03</rscale>
<asrwt>0</asrwt>
<pdfrwt beam="1">  1       21 0.13554073E+00 0.45101618E+03</pdfrwt>
<pdfrwt beam="2">  1       21 0.38159549E-01 0.45101618E+03</pdfrwt>
<totfact> 0.22144821E+03</totfact>
</mgrwt>
</event>
<event>
 4    1  0.4716816E-002  0.4618226E+03  0.7818608E-02  0.1024254E+00
         21   -1    0    0  503  502  0.00000000000E+00  0.00000000000E+00  0.17146524699E+03  0.17146524699E+03  0.00000000000E+00 0.  1.
         21   -1    0    0  501  503 -0.00000000000E+00 -0.00000000000E+00 -0.14998888606E+04  0.14998888606E+04  0.00000000000E+00 0.  1.
    9000007    1    1    2  501    0  0.46868042388E+02  0.22601660413E+03 -0.10094721427E+04  0.11100964488E+04  0.40000000000E+03 0.  1.
   -9000007    1    1    2    0  502 -0.46868042388E+02 -0.22601660413E+03 -0.31895147087E+03  0.56125765875E+03  0.40000000000E+03 0.  1.
<mgrwt>
<rscale>  2 0.46182261E+03</rscale>
<asrwt>0</asrwt>
<pdfrwt beam="1">  1       21 0.26379269E-01 0.46182261E+03</pdfrwt>
<pdfrwt beam="2">  1       21 0.23075213E+00 0.46182261E+03</pdfrwt>
<totfact> 0.97183967E+02</totfact>
</mgrwt>
</event>
<event>
 4    1  0.4716816E-002  0.4868300E+03  0.7818608E-02  0.1017275E+00
         21   -1    0    0  503  502  0.00000000000E+00  0.00000000000E+00  0.49073235132E+03  0.49073235132E+03  0.00000000000E+00 0.  1.
         21   -1    0    0  501  503 -0.00000000000E+00 -0.00000000000E+00 -0.84559336809E+03  0.84559336809E+03  0.00000000000E+00 0. -1.
    9000007    1    1    2  501    0 -0.27737926191E+03 -0.80098568698E+01 -0.61498914793E+03  0.78435646540E+03  0.40000000000E+03 0. -1.
   -9000007    1    1    2    0  502  0.27737926191E+03  0.80098568698E+01  0.26012813116E+03  0.55196925401E+03  0.40000000000E+03 0.  1.
<mgrwt>
<rscale>  2 0.48682996E+03</rscale>
<asrwt>0</asrwt>
<pdfrwt beam="1">  1       21 0.75497286E-01 0.48682996E+03</pdfrwt>
<pdfrwt beam="2">  1       21 0.13009129E+00 0.48682996E+03</pdfrwt>
<totfact> 0.55723194E+02</totfact>
</mgrwt>
</event>
<event>
 4    1  0.4716816E-002  0.5502216E+03  0.7818608E-02  0.1001443E+00
         21   -1    0    0  503  502  0.00000000000E+00  0.00000000000E+00  0.51387599802E+03  0.51387599802E+03  0.00000000000E+00 0.  1.
         21   -1    0    0  501  503 -0.00000000000E+00 -0.00000000000E+00 -0.65162895532E+03  0.65162895532E+03  0.00000000000E+00 0.  1.
    9000007    1    1    2  501    0 -0.86920938572E+02 -0.36768000416E+03 -0.24934140624E+03  0.60408192482E+03  0.40000000000E+03 0.  1.
   -9000007    1    1    2    0  502  0.86920938572E+02  0.36768000416E+03  0.11158844894E+03  0.56142302853E+03  0.40000000000E+03 0.  1.
<mgrwt>
<rscale>  2 0.55022162E+03</rscale>
<asrwt>0</asrwt>
<pdfrwt beam="1">  1       21 0.79057846E-01 0.55022162E+03</pdfrwt>
<pdfrwt beam="2">  1       21 0.10025061E+00 0.55022162E+03</pdfrwt>
<totfact> 0.94383757E+02</totfact>
</mgrwt>
</event>
<event>
 4    1  0.4716816E-002  0.4310334E+03  0.7818608E-02  0.1033534E+00
         21   -1    0    0  503  502  0.00000000000E+00  0.00000000000E+00  0.59840918531E+03  0.59840918531E+03  0.00000000000E+00 0. -1.
         21   -1    0    0  501  503 -0.00000000000E+00 -0.00000000000E+00 -0.31541139648E+03  0.31541139648E+03  0.00000000000E+00 0. -1.
    9000007    1    1    2  501    0 -0.14697286867E+03 -0.64720878603E+02  0.19867189844E+03  0.47461599160E+03  0.40000000000E+03 0. -1.
   -9000007    1    1    2    0  502  0.14697286867E+03  0.64720878603E+02  0.84325890393E+02  0.43920459019E+03  0.40000000000E+03 0. -1.
<mgrwt>
<rscale>  2 0.43103343E+03</rscale>
<asrwt>0</asrwt>
<pdfrwt beam="1">  1       21 0.92062952E-01 0.43103343E+03</pdfrwt>
<pdfrwt beam="2">  1       21 0.48524830E-01 0.43103343E+03</pdfrwt>
<totfact> 0.35523511E+03</totfact>
</mgrwt>
</event>
<event>
 4    1  0.4716816E-002  0.5109296E+03  0.7818608E-02  0.1010965E+00
         21   -1    0    0  503  502  0.00000000000E+00  0.00000000000E+00  0.32470318928E+03  0.32470318928E+03  0.00000000000E+00 0.  1.
         21   -1    0    0  501  503 -0.00000000000E+00 -0.00000000000E+00 -0.80861729017E+03  0.80861729017E+03  0.00000000000E+00 0.  1.
    9000007    1    1    2  501    0  0.61436671901E+02 -0.31188871279E+03 -0.19896151057E+03  0.54830166561E+03  0.40000000000E+03 0.  1.
   -9000007    1    1    2    0  502 -0.61436671901E+02  0.31188871279E+03 -0.28495259031E+03  0.58501881384E+03  0.40000000000E+03 0.  1.
<mgrwt>
<rscale>  2 0.51092958E+03</rscale>
<asrwt>0</asrwt>
<pdfrwt beam="1">  1       21 0.49954338E-01 0.51092958E+03</pdfrwt>
<pdfrwt beam="2">  1       21 0.12440266E+00 0.51092958E+03</pdfrwt>
<totfact> 0.15424245E+03</totfact>
</mgrwt>
</event>
<event>
 4    1  0.4716816E-002  0.4578113E+03  0.7818608E-02  0.1025418E+00
         21   -1    0    0  501  502  0.00000000000E+00  0.00000000000E+00  0.21653722595E+04  0.21653722595E+04  0.00000000000E+00 0. -1.
         21   -1    0    0  502  503 -0.00000000000E+00 -0.00000000000E+00 -0.15386289713E+03  0.15386289713E+03  0.00000000000E+00 0. -1.
    9000007    1    1    2  501    0  0.15300556299E+03 -0.16180377588E+03  0.29951129787E+03  0.54708151289E+03  0.40000000000E+03 0. -1.
   -9000007    1    1    2    0  503 -0.15300556299E+03  0.16180377588E+03  0.17119980645E+04  0.17721536437E+04  0.40000000000E+03 0. -1.
<mgrwt>
<rscale>  2 0.45781128E+03</rscale>
<asrwt>0</asrwt>
<pdfrwt beam="1">  1       21 0.33313417E+00 0.45781128E+03</pdfrwt>
<pdfrwt beam="2">  1       21 0.23671217E-01 0.45781128E+03</pdfrwt>
<totfact> 0.28673497E+02</totfact>
</mgrwt>
</event>
<event>
 4    1  0.4716816E-002  0.6628727E+03  0.7818608E-02  0.9782920E-01
         21   -1    0    0  503  502  0.00000000000E+00  0.00000000000E+00  0.28184876133E+04  0.28184876133E+04  0.00000000000E+00 0. -1.
         21   -1    0    0  501  503 -0.00000000000E+00 -0.00000000000E+00 -0.16948613362E+03  0.16948613362E+03  0.00000000000E+00 0.  1.
    9000007    1    1    2  501    0 -0.51337987362E+03 -0.12586245968E+03  0.90150228412E+03  0.11189757020E+04  0.40000000000E+03 0.  1.
   -9000007    1    1    2    0  502  0.51337987362E+03  0.12586245968E+03  0.17474991955E+04  0.18689980449E+04  0.40000000000E+03 0. -1.
<mgrwt>
<rscale>  2 0.66287273E+03</rscale>
<asrwt>0</asrwt>
<pdfrwt beam="1">  1       21 0.43361344E+00 0.66287273E+03</pdfrwt>
<pdfrwt beam="2">  1       21 0.26074792E-01 0.66287273E+03</pdfrwt>
<totfact> 0.48698231E+01</totfact>
</mgrwt>
</event>
<event>
 4    1  0.4716816E-002  0.4885088E+03  0.7818608E-02  0.1016823E+00
         21   -1    0    0  501  502  0.00000000000E+00  0.00000000000E+00  0.20818985991E+03  0.20818985991E+03  0.00000000000E+00 0. -1.
         21   -1    0    0  502  503 -0.00000000000E+00 -0.00000000000E+00 -0.13244541661E+04  0.13244541661E+04  0.00000000000E+00 0. -1.
    9000007    1    1    2  501    0 -0.19910428484E+03 -0.19748003560E+03 -0.27705035991E+03  0.56160286914E+03  0.40000000000E+03 0. -1.
   -9000007    1    1    2    0  503  0.19910428484E+03  0.19748003560E+03 -0.83921394623E+03  0.97104115682E+03  0.40000000000E+03 0. -1.
<mgrwt>
<rscale>  2 0.48850883E+03</rscale>
<asrwt>0</asrwt>
<pdfrwt beam="1">  1       21 0.32029208E-01 0.48850883E+03</pdfrwt>
<pdfrwt beam="2">  1       21 0.20376219E+00 0.48850883E+03</pdfrwt>
<totfact> 0.97579820E+02</totfact>
</mgrwt>
</event>
<event>
 4    1  0.4716816E-002  0.4801667E+03  0.7818608E-02  0.1019089E+00
         21   -1    0    0  501  502  0.00000000000E+00  0.00000000000E+00  0.38381681549E+03  0.38381681549E+03  0.00000000000E+00 0.  1.
         21   -1    0    0  502  503 -0.00000000000E+00 -0.00000000000E+00 -0.77144798030E+03  0.77144798030E+03  0.00000000000E+00 0.  1.
    9000007    1    1    2  501    0 -0.25331033845E+03  0.79962149498E+02  0.77935737047E+02  0.48645046205E+03  0.40000000000E+03 0.  1.
   -9000007    1    1    2    0  503  0.25331033845E+03 -0.79962149498E+02 -0.46556690185E+03  0.66881433374E+03  0.40000000000E+03 0.  1.
<mgrwt>
<rscale>  2 0.48016671E+03</rscale>
<asrwt>0</asrwt>
<pdfrwt beam="1">  1       21 0.59048741E-01 0.48016671E+03</pdfrwt>
<pdfrwt beam="2">  1       21 0.11868430E+00 0.48016671E+03</pdfrwt>
<totfact> 0.12261183E+03</totfact>
</mgrwt>
</event>
<event>
 4    1  0.4716816E-002  0.6311212E+03  0.7818608E-02  0.9842863E-01
         21   -1    0    0  501  502  0.00000000000E+00  0.00000000000E+00  0.27116855601E+03  0.27116855601E+03  0.00000000000E+00 0. -1.
         21   -1    0    0  502  503 -0.00000000000E+00 -0.00000000000E+00 -0.15877350674E+04  0.15877350674E+04  0.00000000000E+00 0. -1.
    9000007    1    1    2  501    0  0.48799177210E+03 -0.13342043836E+02 -0.91258381151E+03  0.11095599095E+04  0.40000000000E+03 0. -1.
   -9000007    1    1    2    0  503 -0.48799177210E+03  0.13342043836E+02 -0.40398269989E+03  0.74934371391E+03  0.40000000000E+03 0. -1.
<mgrwt>
<rscale>  2 0.63112121E+03</rscale>
<asrwt>0</asrwt>
<pdfrwt beam="1">  1       21 0.41718240E-01 0.63112121E+03</pdfrwt>
<pdfrwt beam="2">  1       21 0.24426693E+00 0.63112121E+03</pdfrwt>
<totfact> 0.29492522E+02</totfact>
</mgrwt>
</event>
<event>
 4    1  0.4716816E-002  0.4906221E+03  0.7818608E-02  0.1016256E+00
         21   -1    0    0  501  502  0.00000000000E+00  0.00000000000E+00  0.14256358714E+04  0.14256358714E+04  0.00000000000E+00 0.  1.
         21   -1    0    0  502  503 -0.00000000000E+00 -0.00000000000E+00 -0.16922479943E+03  0.16922479943E+03  0.00000000000E+00 0.  1.
    9000007    1    1    2  501    0  0.27624937866E+03  0.66304502505E+02  0.66603512439E+03  0.82723200687E+03  0.40000000000E+03 0. -1.
   -9000007    1    1    2    0  503 -0.27624937866E+03 -0.66304502505E+02  0.59037594762E+03  0.76762866400E+03  0.40000000000E+03 0. -1.
<mgrwt>
<rscale>  2 0.49062206E+03</rscale>
<asrwt>0</asrwt>
<pdfrwt beam="1">  1       21 0.21932859E+00 0.49062206E+03</pdfrwt>
<pdfrwt beam="2">  1       21 0.26034585E-01 0.49062206E+03</pdfrwt>
<totfact> 0.11633794E+03</totfact>
</mgrwt>
</event>
<event>
 4    1  0.4716816E-002  0.4266785E+03  0.7818608E-02  0.1034914E+00
         21   -1    0    0  503  502  0.00000000000E+00  0.00000000000E+00  0.18711354575E+03  0.18711354575E+03  0.00000000000E+00 0.  1.
         21   -1    0    0  501  503 -0.00000000000E+00 -0.00000000000E+00 -0.14698030107E+04  0.14698030107E+04  0.00000000000E+00 0.  1.
    9000007    1    1    2  501    0 -0.10180714856E+03 -0.10811976544E+03 -0.11230144072E+04  0.12013392268E+04  0.40000000000E+03 0.  1.
   -9000007    1    1    2    0  502  0.10180714856E+03  0.10811976544E+03 -0.15967505774E+03  0.45557732960E+03  0.40000000000E+03 0.  1.
<mgrwt>
<rscale>  2 0.42667854E+03</rscale>
<asrwt>0</asrwt>
<pdfrwt beam="1">  1       21 0.28786700E-01 0.42667854E+03</pdfrwt>
<pdfrwt beam="2">  1       21 0.22612354E+00 0.42667854E+03</pdfrwt>
<totfact> 0.89051761E+02</totfact>
</mgrwt>
</event>
<event>
 4    1  0.4716816E-002  0.4850584E+03  0.7818608E-02  0.1017754E+00
         21   -1    0    0  501  502  0.00000000000E+00  0.00000000000E+00  0.73395308684E+03  0.73395308684E+03  0.00000000000E+00 0. -1.
         21   -1    0    0  502  503 -0.00000000000E+00 -0.00000000000E+00 -0.32064536089E+03  0.32064536089E+03  0.00000000000E+00 0. -1.
    9000007    1    1    2  501    0 -0.25106083220E+03 -0.11068042419E+03  0.21485690737E+03  0.53051407937E+03  0.40000000000E+03 0.  1.
   -9000007    1    1    2    0  503  0.25106083220E+03  0.11068042419E+03  0.19845081858E+03  0.52408436836E+03  0.40000000000E+03 0.  1.
<mgrwt>
<rscale>  2 0.48505845E+03</rscale>
<asrwt>0</asrwt>
<pdfrwt beam="1">  1       21 0.11291586E+00 0.48505845E+03</pdfrwt>
<pdfrwt beam="2">  1       21 0.49330056E-01 0.48505845E+03</pdfrwt>
<totfact> 0.20439903E+03</totfact>
</mgrwt>
</event>
<event>
 4    1  0.4716816E-002  0.4009576E+03  0.7818608E-02  0.1043449E+00
         21   -1    0    0  503  502  0.00000000000E+00  0.00000000000E+00  0.34578566209E+03  0.34578566209E+03  0.00000000000E+00 0. -1.
         21   -1    0    0  501  503 -0.00000000000E+00 -0.00000000000E+00 -0.74805748049E+03  0.74805748049E+03  0.00000000000E+00 0. -1.
    9000007    1    1    2  501    0  0.18243567535E+02  0.20836336288E+02 -0.53760617277E+03  0.67066189519E+03  0.40000000000E+03 0.  1.
   -9000007    1    1    2    0  502 -0.18243567535E+02 -0.20836336288E+02  0.13533435436E+03  0.42318124738E+03  0.40000000000E+03 0.  1.
<mgrwt>
<rscale>  2 0.40095758E+03</rscale>
<asrwt>0</asrwt>
<pdfrwt beam="1">  1       21 0.53197795E-01 0.40095758E+03</pdfrwt>
<pdfrwt beam="2">  1       21 0.11508577E+00 0.40095758E+03</pdfrwt>
<totfact> 0.17148964E+03</totfact>
</mgrwt>
</event>
<event>
 4    1  0.4716816E-002  0.4758788E+03  0.7818608E-02  0.1020274E+00
         21   -1    0    0  501  502  0.00000000000E+00  0.00000000000E+00  0.31437533053E+03  0.31437533053E+03  0.00000000000E+00 0.  1.
         21   -1    0    0  502  503 -0.00000000000E+00 -0.00000000000E+00 -0.78973792722E+03  0.78973792722E+03  0.00000000000E+00 0.  1.
    9000007    1    1    2  501    0  0.22474805034E+03 -0.12628914970E+03 -0.74044699596E+02  0.48160487228E+03  0.40000000000E+03 0.  1.
   -9000007    1    1    2    0  503 -0.22474805034E+03  0.12628914970E+03 -0.40131789709E+03  0.62250838548E+03  0.40000000000E+03 0.  1.
<mgrwt>
<rscale>  2 0.47587880E+03</rscale>
<asrwt>0</asrwt>
<pdfrwt beam="1">  1       21 0.48365435E-01 0.47587880E+03</pdfrwt>
<pdfrwt beam="2">  1       21 0.12149814E+00 0.47587880E+03</pdfrwt>
<totfact> 0.17776152E+03</totfact>
</mgrwt>
</event>
<event>
 4    1  0.4716816E-002  0.4237362E+03  0.7818608E-02  0.1035857E+00
         21   -1    0    0  503  502  0.00000000000E+00  0.00000000000E+00  0.16597655097E+04  0.16597655097E+04  0.00000000000E+00 0.  1.
         21   -1    0    0  501  503 -0.00000000000E+00 -0.00000000000E+00 -0.64924425885E+03  0.64924425885E+03  0.00000000000E+00 0.  1.
    9000007    1    1    2  501    0  0.13965456653E+03  0.69956996770E+01 -0.54868062731E+03  0.69325519727E+03  0.40000000000E+03 0.  1.
   -9000007    1    1    2    0  502 -0.13965456653E+03 -0.69956996770E+01  0.15592018781E+04  0.16157545712E+04  0.40000000000E+03 0.  1.
<mgrwt>
<rscale>  2 0.42373617E+03</rscale>
<asrwt>0</asrwt>
<pdfrwt beam="1">  1       21 0.25534854E+00 0.42373617E+03</pdfrwt>
<pdfrwt beam="2">  1       21 0.99883733E-01 0.42373617E+03</pdfrwt>
<totfact> 0.39808546E+01</totfact>
</mgrwt>
</event>
<event>
 4    1  0.4716816E-002  0.4493015E+03  0.7818608E-02  0.1027931E+00
         21   -1    0    0  501  502  0.00000000000E+00  0.00000000000E+00  0.19182791202E+03  0.19182791202E+03  0.00000000000E+00 0. -1.
         21   -1    0    0  502  503 -0.00000000000E+00 -0.00000000000E+00 -0.10708560231E+04  0.10708560231E+04  0.00000000000E+00 0. -1.
    9000007    1    1    2  501    0  0.16147554403E+02 -0.20398791616E+03 -0.52248977564E+03  0.68910621757E+03  0.40000000000E+03 0. -1.
   -9000007    1    1    2    0  503 -0.16147554403E+02  0.20398791616E+03 -0.35653833549E+03  0.57357771760E+03  0.40000000000E+03 0. -1.
<mgrwt>
<rscale>  2 0.44930147E+03</rscale>
<asrwt>0</asrwt>
<pdfrwt beam="1">  1       21 0.29511987E-01 0.44930147E+03</pdfrwt>
<pdfrwt beam="2">  1       21 0.16474708E+00 0.44930147E+03</pdfrwt>
<totfact> 0.21874765E+03</totfact>
</mgrwt>
</event>
<event>
 4    1  0.4716816E-002  0.4200382E+03  0.7818608E-02  0.1037054E+00
         21   -1    0    0  503  502  0.00000000000E+00  0.00000000000E+00  0.24752400324E+03  0.24752400324E+03  0.00000000000E+00 0.  1.
         21   -1    0    0  501  503 -0.00000000000E+00 -0.00000000000E+00 -0.88931995530E+03  0.88931995530E+03  0.00000000000E+00 0.  1.
    9000007    1    1    2  501    0  0.22720866639E+02  0.12615818210E+03 -0.67645569022E+02  0.42545040569E+03  0.40000000000E+03 0.  1.
   -9000007    1    1    2    0  502 -0.22720866639E+02 -0.12615818210E+03 -0.57415038304E+03  0.71139355285E+03  0.40000000000E+03 0.  1.
<mgrwt>
<rscale>  2 0.42003824E+03</rscale>
<asrwt>0</asrwt>
<pdfrwt beam="1">  1       21 0.38080616E-01 0.42003824E+03</pdfrwt>
<pdfrwt beam="2">  1       21 0.13681845E+00 0.42003824E+03</pdfrwt>
<totfact> 0.21966953E+03</totfact>
</mgrwt>
</event>
<event>
 4    1  0.4716816E-002  0.6214288E+03  0.7818608E-02  0.9861919E-01
         21   -1    0    0  501  502  0.00000000000E+00  0.00000000000E+00  0.36039817632E+03  0.36039817632E+03  0.00000000000E+00 0.  1.
         21   -1    0    0  502  503 -0.00000000000E+00 -0.00000000000E+00 -0.12860980880E+04  0.12860980880E+04  0.00000000000E+00 0. -1.
    9000007    1    1    2  501    0 -0.46840722659E+03  0.82270512475E+02 -0.12658110718E+03  0.63418967497E+03  0.40000000000E+03 0. -1.
   -9000007    1    1    2    0  503  0.46840722659E+03 -0.82270512475E+02 -0.79911880453E+03  0.10123065894E+04  0.40000000000E+03 0. -1.
<mgrwt>
<rscale>  2 0.62142881E+03</rscale>
<asrwt>0</asrwt>
<pdfrwt beam="1">  1       21 0.55445873E-01 0.62142881E+03</pdfrwt>
<pdfrwt beam="2">  1       21 0.19786125E+00 0.62142881E+03</pdfrwt>
<totfact> 0.32311484E+02</totfact>
</mgrwt>
</event>
<event>
 4    1  0.4716816E-002  0.4158170E+03  0.7818608E-02  0.1038436E+00
         21   -1    0    0  501  502  0.00000000000E+00  0.00000000000E+00  0.21559769756E+03  0.21559769756E+03  0.00000000000E+00 0. -1.
         21   -1    0    0  502  503 -0.00000000000E+00 -0.00000000000E+00 -0.98784714311E+03  0.98784714311E+03  0.00000000000E+00 0.  1.
    9000007    1    1    2  501    0 -0.90822722499E+02  0.68227832991E+02 -0.64713603886E+03  0.76921314140E+03  0.40000000000E+03 0.  1.
   -9000007    1    1    2    0  503  0.90822722499E+02 -0.68227832991E+02 -0.12511340668E+03  0.43423169927E+03  0.40000000000E+03 0. -1.
<mgrwt>
<rscale>  2 0.41581703E+03</rscale>
<asrwt>0</asrwt>
<pdfrwt beam="1">  1       21 0.33168876E-01 0.41581703E+03</pdfrwt>
<pdfrwt beam="2">  1       21 0.15197648E+00 0.41581703E+03</pdfrwt>
<totfact> 0.21965557E+03</totfact>
</mgrwt>
</event>
<event>
 4    1  0.4716816E-002  0.4371077E+03  0.7818608E-02  0.1031638E+00
         21   -1    0    0  501  502  0.00000000000E+00  0.00000000000E+00  0.24220558942E+03  0.24220558942E+03  0.00000000000E+00 0. -1.
         21   -1    0    0  502  503 -0.00000000000E+00 -0.00000000000E+00 -0.79285056707E+03  0.79285056707E+03  0.00000000000E+00 0. -1.
    9000007    1    1    2  501    0  0.10174603796E+03  0.14391271079E+03 -0.23854618507E+03  0.49796325866E+03  0.40000000000E+03 0.  1.
   -9000007    1    1    2    0  503 -0.10174603796E+03 -0.14391271079E+03 -0.31209879258E+03  0.53709289783E+03  0.40000000000E+03 0.  1.
<mgrwt>
<rscale>  2 0.43710768E+03</rscale>
<asrwt>0</asrwt>
<pdfrwt beam="1">  1       21 0.37262399E-01 0.43710768E+03</pdfrwt>
<pdfrwt beam="2">  1       21 0.12197701E+00 0.43710768E+03</pdfrwt>
<totfact> 0.30699956E+03</totfact>
</mgrwt>
</event>
<event>
 4    1  0.4716816E-002  0.4362614E+03  0.7818608E-02  0.1031900E+00
         21   -1    0    0  501  502  0.00000000000E+00  0.00000000000E+00  0.12968787446E+03  0.12968787446E+03  0.00000000000E+00 0. -1.
         21   -1    0    0  502  503 -0.00000000000E+00 -0.00000000000E+00 -0.14961856320E+04  0.14961856320E+04  0.00000000000E+00 0. -1.
    9000007    1    1    2  501    0 -0.69811441281E+02  0.15953174817E+03 -0.79570516357E+03  0.90745287665E+03  0.40000000000E+03 0. -1.
   -9000007    1    1    2    0  503  0.69811441281E+02 -0.15953174817E+03 -0.57079259394E+03  0.71842062978E+03  0.40000000000E+03 0. -1.
<mgrwt>
<rscale>  2 0.43626141E+03</rscale>
<asrwt>0</asrwt>
<pdfrwt beam="1">  1       21 0.19951981E-01 0.43626141E+03</pdfrwt>
<pdfrwt beam="2">  1       21 0.23018240E+00 0.43626141E+03</pdfrwt>
<totfact> 0.16997435E+03</totfact>
</mgrwt>
</event>
<event>
 4    1  0.4716816E-002  0.4703687E+03  0.7818608E-02  0.1021816E+00
         21   -1    0    0  501  502  0.00000000000E+00  0.00000000000E+00  0.24078382541E+03  0.24078382541E+03  0.00000000000E+00 0.  1.
         21   -1    0    0  502  503 -0.00000000000E+00 -0.00000000000E+00 -0.13466565679E+04  0.13466565679E+04  0.00000000000E+00 0.  1.
    9000007    1    1    2  501    0  0.18919249614E+03 -0.15953983943E+03 -0.10557614679E+03  0.48207165830E+03  0.40000000000E+03 0.  1.
   -9000007    1    1    2    0  503 -0.18919249614E+03  0.15953983943E+03 -0.10002965957E+04  0.11053687350E+04  0.40000000000E+03 0.  1.
<mgrwt>
<rscale>  2 0.47036875E+03</rscale>
<asrwt>0</asrwt>
<pdfrwt beam="1">  1       21 0.37043667E-01 0.47036875E+03</pdfrwt>
<pdfrwt beam="2">  1       21 0.20717793E+00 0.47036875E+03</pdfrwt>
<totfact> 0.69595392E+02</totfact>
</mgrwt>
</event>
<event>
 4    1  0.4716816E-002  0.4698944E+03  0.7818608E-02  0.1021950E+00
         21   -1    0    0  501  502  0.00000000000E+00  0.00000000000E+00  0.64571316019E+03  0.64571316019E+03  0.00000000000E+00 0.  1.
         21   -1    0    0  502  503 -0.00000000000E+00 -0.00000000000E+00 -0.36060917447E+03  0.36060917447E+03  0.00000000000E+00 0.  1.
    9000007    1    1    2  501    0  0.19682125398E+03 -0.14853318010E+03  0.25701132995E+03  0.53558896117E+03  0.40000000000E+03 0.  1.
   -9000007    1    1    2    0  503 -0.19682125398E+03  0.14853318010E+03  0.28092655765E+02  0.47073337349E+03  0.40000000000E+03 0.  1.
<mgrwt>
<rscale>  2 0.46989436E+03</rscale>
<asrwt>0</asrwt>
<pdfrwt beam="1">  1       21 0.99340486E-01 0.46989436E+03</pdfrwt>
<pdfrwt beam="2">  1       21 0.55478335E-01 0.46989436E+03</pdfrwt>
<totfact> 0.21912376E+03</totfact>
</mgrwt>
</event>
<event>
 4    1  0.4716816E-002  0.4673548E+03  0.7818608E-02  0.1022669E+00
         21   -1    0    0  503  502  0.00000000000E+00  0.00000000000E+00  0.35310180153E+03  0.35310180153E+03  0.00000000000E+00 0.  1.
         21   -1    0    0  501  503 -0.00000000000E+00 -0.00000000000E+00 -0.62337714292E+03  0.62337714292E+03  0.00000000000E+00 0.  1.
    9000007    1    1    2  501    0 -0.79427212317E+02 -0.22828019566E+03 -0.17798268873E+03  0.50009835760E+03  0.40000000000E+03 0.  1.
   -9000007    1    1    2    0  502  0.79427212317E+02  0.22828019566E+03 -0.92292652663E+02  0.47638058685E+03  0.40000000000E+03 0.  1.
<mgrwt>
<rscale>  2 0.46735482E+03</rscale>
<asrwt>0</asrwt>
<pdfrwt beam="1">  1       21 0.54323355E-01 0.46735482E+03</pdfrwt>
<pdfrwt beam="2">  1       21 0.95904175E-01 0.46735482E+03</pdfrwt>
<totfact> 0.24987826E+03</totfact>
</mgrwt>
</event>
<event>
 4    1  0.4716816E-002  0.4059684E+03  0.7818608E-02  0.1041732E+00
         21   -1    0    0  503  502  0.00000000000E+00  0.00000000000E+00  0.68479858324E+03  0.68479858324E+03  0.00000000000E+00 0.  1.
         21   -1    0    0  501  503 -0.00000000000E+00 -0.00000000000E+00 -0.46848931277E+03  0.46848931277E+03  0.00000000000E+00 0.  1.
    9000007    1    1    2  501    0  0.46861760701E+02  0.51130497375E+02 -0.29396319799E+03  0.50122321789E+03  0.40000000000E+03 0.  1.
   -9000007    1    1    2    0  502 -0.46861760701E+02 -0.51130497375E+02  0.51027246846E+03  0.65206467812E+03  0.40000000000E+03 0.  1.
<mgrwt>
<rscale>  2 0.40596841E+03</rscale>
<asrwt>0</asrwt>
<pdfrwt beam="1">  1       21 0.10535363E+00 0.40596841E+03</pdfrwt>
<pdfrwt beam="2">  1       21 0.72075279E-01 0.40596841E+03</pdfrwt>
<totfact> 0.10919520E+03</totfact>
</mgrwt>
</event>
<event>
 4    1  0.4716816E-002  0.8603738E+03  0.7818608E-02  0.9476518E-01
         21   -1    0    0  503  502  0.00000000000E+00  0.00000000000E+00  0.12005918603E+04  0.12005918603E+04  0.00000000000E+00 0.  1.
         21   -1    0    0  501  503 -0.00000000000E+00 -0.00000000000E+00 -0.11568395754E+04  0.11568395754E+04  0.00000000000E+00 0. -1.
    9000007    1    1    2  501    0 -0.18447342740E+03  0.73906202262E+03 -0.78365012145E+03  0.11637657116E+04  0.40000000000E+03 0. -1.
   -9000007    1    1    2    0  502  0.18447342740E+03 -0.73906202262E+03  0.82740240643E+03  0.11936657241E+04  0.40000000000E+03 0.  1.
<mgrwt>
<rscale>  2 0.86037382E+03</rscale>
<asrwt>0</asrwt>
<pdfrwt beam="1">  1       21 0.18470644E+00 0.86037382E+03</pdfrwt>
<pdfrwt beam="2">  1       21 0.17797532E+00 0.86037382E+03</pdfrwt>
<totfact> 0.20144842E+01</totfact>
</mgrwt>
</event>
<event>
 4    1  0.4716816E-002  0.4624832E+03  0.7818608E-02  0.1024063E+00
         21   -1    0    0  503  502  0.00000000000E+00  0.00000000000E+00  0.18352567581E+03  0.18352567581E+03  0.00000000000E+00 0.  1.
         21   -1    0    0  501  503 -0.00000000000E+00 -0.00000000000E+00 -0.12392998784E+04  0.12392998784E+04  0.00000000000E+00 0. -1.
    9000007    1    1    2  501    0 -0.14752760723E+03 -0.17923827518E+03 -0.70154568228E+03  0.84027203840E+03  0.40000000000E+03 0. -1.
   -9000007    1    1    2    0  502  0.14752760723E+03  0.17923827518E+03 -0.35422852030E+03  0.58255351581E+03  0.40000000000E+03 0.  1.
<mgrwt>
<rscale>  2 0.46248325E+03</rscale>
<asrwt>0</asrwt>
<pdfrwt beam="1">  1       21 0.28234719E-01 0.46248325E+03</pdfrwt>
<pdfrwt beam="2">  1       21 0.19066152E+00 0.46248325E+03</pdfrwt>
<totfact> 0.15537687E+03</totfact>
</mgrwt>
</event>
<event>
 4    1  0.4716816E-002  0.5921493E+03  0.7818608E-02  0.9921829E-01
         21   -1    0    0  503  502  0.00000000000E+00  0.00000000000E+00  0.25814872950E+03  0.25814872950E+03  0.00000000000E+00 0.  1.
         21   -1    0    0  501  503 -0.00000000000E+00 -0.00000000000E+00 -0.15633928728E+04  0.15633928728E+04  0.00000000000E+00 0. -1.
    9000007    1    1    2  501    0  0.11625427912E+03 -0.42086311740E+03 -0.98250586176E+03  0.11471523828E+04  0.40000000000E+03 0. -1.
   -9000007    1    1    2    0  502 -0.11625427912E+03  0.42086311740E+03 -0.32273828155E+03  0.67438921950E+03  0.40000000000E+03 0. -1.
<mgrwt>
<rscale>  2 0.59214932E+03</rscale>
<asrwt>0</asrwt>
<pdfrwt beam="1">  1       21 0.39715190E-01 0.59214932E+03</pdfrwt>
<pdfrwt beam="2">  1       21 0.24052198E+00 0.59214932E+03</pdfrwt>
<totfact> 0.35004657E+02</totfact>
</mgrwt>
</event>
<event>
 4    1  0.4716816E-002  0.5117115E+03  0.7818608E-02  0.1010766E+00
         21   -1    0    0  503  502  0.00000000000E+00  0.00000000000E+00  0.17748843764E+03  0.17748843764E+03  0.00000000000E+00 0. -1.
         21   -1    0    0  501  503 -0.00000000000E+00 -0.00000000000E+00 -0.15199245898E+04  0.15199245898E+04  0.00000000000E+00 0. -1.
    9000007    1    1    2  501    0 -0.86620182739E+01  0.31901979712E+03 -0.52579461704E+03  0.73369519613E+03  0.40000000000E+03 0. -1.
   -9000007    1    1    2    0  502  0.86620182739E+01 -0.31901979712E+03 -0.81664153512E+03  0.96371783132E+03  0.40000000000E+03 0. -1.
<mgrwt>
<rscale>  2 0.51171150E+03</rscale>
<asrwt>0</asrwt>
<pdfrwt beam="1">  1       21 0.27305912E-01 0.51171150E+03</pdfrwt>
<pdfrwt beam="2">  1       21 0.23383457E+00 0.51171150E+03</pdfrwt>
<totfact> 0.84915869E+02</totfact>
</mgrwt>
</event>
<event>
 4    1  0.4716816E-002  0.5047797E+03  0.7818608E-02  0.1012539E+00
         21   -1    0    0  501  502  0.00000000000E+00  0.00000000000E+00  0.13126111331E+04  0.13126111331E+04  0.00000000000E+00 0.  1.
         21   -1    0    0  502  503 -0.00000000000E+00 -0.00000000000E+00 -0.45014511134E+03  0.45014511134E+03  0.00000000000E+00 0.  1.
    9000007    1    1    2  501    0 -0.43560009163E+02  0.30480333725E+03  0.10959369676E+04  0.12065986846E+04  0.40000000000E+03 0.  1.
   -9000007    1    1    2    0  503  0.43560009163E+02 -0.30480333725E+03 -0.23347094583E+03  0.55615755982E+03  0.40000000000E+03 0.  1.
<mgrwt>
<rscale>  2 0.50477970E+03</rscale>
<asrwt>0</asrwt>
<pdfrwt beam="1">  1       21 0.20194017E+00 0.50477970E+03</pdfrwt>
<pdfrwt beam="2">  1       21 0.69253095E-01 0.50477970E+03</pdfrwt>
<totfact> 0.19448579E+02</totfact>
</mgrwt>
</event>
<event>
 4    1  0.4716816E-002  0.4161915E+03  0.7818608E-02  0.1038313E+00
         21   -1    0    0  503  502  0.00000000000E+00  0.00000000000E+00  0.13802358159E+03  0.13802358159E+03  0.00000000000E+00 0. -1.
         21   -1    0    0  501  503 -0.00000000000E+00 -0.00000000000E+00 -0.12668229564E+04  0.12668229564E+04  0.00000000000E+00 0. -1.
    9000007    1    1    2  501    0 -0.89488812955E+02 -0.72160505638E+02 -0.63234559314E+03  0.75701805486E+03  0.40000000000E+03 0. -1.
   -9000007    1    1    2    0  502  0.89488812955E+02  0.72160505638E+02 -0.49645378168E+03  0.64782848314E+03  0.40000000000E+03 0. -1.
<mgrwt>
<rscale>  2 0.41619153E+03</rscale>
<asrwt>0</asrwt>
<pdfrwt beam="1">  1       21 0.21234398E-01 0.41619153E+03</pdfrwt>
<pdfrwt beam="2">  1       21 0.19489584E+00 0.41619153E+03</pdfrwt>
<totfact> 0.25795728E+03</totfact>
</mgrwt>
</event>
<event>
 4    1  0.4716816E-002  0.4197687E+03  0.7818608E-02  0.1037142E+00
         21   -1    0    0  503  502  0.00000000000E+00  0.00000000000E+00  0.60285092805E+03  0.60285092805E+03  0.00000000000E+00 0.  1.
         21   -1    0    0  501  503 -0.00000000000E+00 -0.00000000000E+00 -0.66937515742E+03  0.66937515742E+03  0.00000000000E+00 0.  1.
    9000007    1    1    2  501    0 -0.84129363244E-01 -0.12730185993E+03 -0.51070418329E+03  0.66107831113E+03  0.40000000000E+03 0.  1.
   -9000007    1    1    2    0  502  0.84129363244E-01  0.12730185993E+03  0.44417995391E+03  0.61114777434E+03  0.40000000000E+03 0.  1.
<mgrwt>
<rscale>  2 0.41976871E+03</rscale>
<asrwt>0</asrwt>
<pdfrwt beam="1">  1       21 0.92746296E-01 0.41976871E+03</pdfrwt>
<pdfrwt beam="2">  1       21 0.10298079E+00 0.41976871E+03</pdfrwt>
<totfact> 0.63965815E+02</totfact>
</mgrwt>
</event>
<event>
 4    1  0.4716816E-002  0.6200287E+03  0.7818608E-02  0.9864702E-01
         21   -1    0    0  503  502  0.00000000000E+00  0.00000000000E+00  0.88784003903E+03  0.88784003903E+03  0.00000000000E+00 0. -1.
         21   -1    0    0  501  503 -0.00000000000E+00 -0.00000000000E+00 -0.60667392064E+03  0.60667392064E+03  0.00000000000E+00 0.  1.
    9000007    1    1    2  501    0 -0.14485390428E+03 -0.45105763396E+03  0.54039737992E+03  0.82247490597E+03  0.40000000000E+03 0. -1.
   -9000007    1    1    2    0  502  0.14485390428E+03  0.45105763396E+03 -0.25923126153E+03  0.67203905369E+03  0.40000000000E+03 0.  1.
<mgrwt>
<rscale>  2 0.62002874E+03</rscale>
<asrwt>0</asrwt>
<pdfrwt beam="1">  1       21 0.13659078E+00 0.62002874E+03</pdfrwt>
<pdfrwt beam="2">  1       21 0.93334449E-01 0.62002874E+03</pdfrwt>
<totfact> 0.28354674E+02</totfact>
</mgrwt>
</event>
<event>
 4    1  0.4716816E-002  0.4668429E+03  0.7818608E-02  0.1022815E+00
         21   -1    0    0  501  502  0.00000000000E+00  0.00000000000E+00  0.25766381088E+03  0.25766381088E+03  0.00000000000E+00 0.  1.
         21   -1    0    0  502  503 -0.00000000000E+00 -0.00000000000E+00 -0.88968014499E+03  0.88968014499E+03  0.00000000000E+00 0.  1.
    9000007    1    1    2  501    0 -0.53377942997E+02  0.23471910454E+03 -0.18866240299E+03  0.50352335113E+03  0.40000000000E+03 0.  1.
   -9000007    1    1    2    0  503  0.53377942997E+02 -0.23471910454E+03 -0.44335393113E+03  0.64382060473E+03  0.40000000000E+03 0.  1.
<mgrwt>
<rscale>  2 0.46684287E+03</rscale>
<asrwt>0</asrwt>
<pdfrwt beam="1">  1       21 0.39640586E-01 0.46684287E+03</pdfrwt>
<pdfrwt beam="2">  1       21 0.13687387E+00 0.46684287E+03</pdfrwt>
<totfact> 0.19840394E+03</totfact>
</mgrwt>
</event>
<event>
 4    1  0.4716816E-002  0.4614469E+03  0.7818608E-02  0.1024362E+00
         21   -1    0    0  501  502  0.00000000000E+00  0.00000000000E+00  0.87278212314E+03  0.87278212314E+03  0.00000000000E+00 0. -1.
         21   -1    0    0  502  503 -0.00000000000E+00 -0.00000000000E+00 -0.35122046557E+03  0.35122046557E+03  0.00000000000E+00 0.  1.
    9000007    1    1    2  501    0 -0.16245495978E+03  0.16291606364E+03  0.59897072416E+03  0.75610791964E+03  0.40000000000E+03 0. -1.
   -9000007    1    1    2    0  503  0.16245495978E+03 -0.16291606364E+03 -0.77409066594E+02  0.46789466906E+03  0.40000000000E+03 0.  1.
<mgrwt>
<rscale>  2 0.46144692E+03</rscale>
<asrwt>0</asrwt>
<pdfrwt beam="1">  1       21 0.13427417E+00 0.46144692E+03</pdfrwt>
<pdfrwt beam="2">  1       21 0.54033918E-01 0.46144692E+03</pdfrwt>
<totfact> 0.10891649E+03</totfact>
</mgrwt>
</event>
<event>
 4    1  0.4716816E-002  0.4829014E+03  0.7818608E-02  0.1018341E+00
         21   -1    0    0  503  502  0.00000000000E+00  0.00000000000E+00  0.49751701237E+03  0.49751701237E+03  0.00000000000E+00 0. -1.
         21   -1    0    0  501  503 -0.00000000000E+00 -0.00000000000E+00 -0.51909772182E+03  0.51909772182E+03  0.00000000000E+00 0. -1.
    9000007    1    1    2  501    0  0.13185949583E+02  0.27022201531E+03 -0.16914893982E+03  0.51166900499E+03  0.40000000000E+03 0. -1.
   -9000007    1    1    2    0  502 -0.13185949583E+02 -0.27022201531E+03  0.14756823036E+03  0.50494572920E+03  0.40000000000E+03 0. -1.
<mgrwt>
<rscale>  2 0.48290145E+03</rscale>
<asrwt>0</asrwt>
<pdfrwt beam="1">  1       21 0.76541079E-01 0.48290145E+03</pdfrwt>
<pdfrwt beam="2">  1       21 0.79861188E-01 0.48290145E+03</pdfrwt>
<totfact> 0.17855962E+03</totfact>
</mgrwt>
</event>
<event>
 4    1  0.4716816E-002  0.4869565E+03  0.7818608E-02  0.1017241E+00
         21   -1    0    0  501  502  0.00000000000E+00  0.00000000000E+00  0.30343707047E+03  0.30343707047E+03  0.00000000000E+00 0. -1.
         21   -1    0    0  502  503 -0.00000000000E+00 -0.00000000000E+00 -0.10871237569E+04  0.10871237569E+04  0.00000000000E+00 0. -1.
    9000007    1    1    2  501    0 -0.26007761224E+03  0.97397472944E+02 -0.23174737647E+02  0.48750764157E+03  0.40000000000E+03 0. -1.
   -9000007    1    1    2    0  503  0.26007761224E+03 -0.97397472944E+02 -0.76051194876E+03  0.90305318577E+03  0.40000000000E+03 0. -1.
<mgrwt>
<rscale>  2 0.48695650E+03</rscale>
<asrwt>0</asrwt>
<pdfrwt beam="1">  1       21 0.46682626E-01 0.48695650E+03</pdfrwt>
<pdfrwt beam="2">  1       21 0.16724981E+00 0.48695650E+03</pdfrwt>
<totfact> 0.80888823E+02</totfact>
</mgrwt>
</event>
<event>
 4    1  0.4716816E-002  0.6180482E+03  0.7818608E-02  0.9868653E-01
         21   -1    0    0  501  502  0.00000000000E+00  0.00000000000E+00  0.79295133516E+03  0.79295133516E+03  0.00000000000E+00 0. -1.
         21   -1    0    0  502  503 -0.00000000000E+00 -0.00000000000E+00 -0.77009867113E+03  0.77009867113E+03  0.00000000000E+00 0.  1.
    9000007    1    1    2  501    0 -0.14254099240E+02  0.47093566148E+03  0.48966903546E+03  0.78851717856E+03  0.40000000000E+03 0. -1.
   -9000007    1    1    2    0  503  0.14254099240E+02 -0.47093566148E+03 -0.46681637143E+03  0.77453282773E+03  0.40000000000E+03 0.  1.
<mgrwt>
<rscale>  2 0.61804820E+03</rscale>
<asrwt>0</asrwt>
<pdfrwt beam="1">  1       21 0.12199251E+00 0.61804820E+03</pdfrwt>
<pdfrwt beam="2">  1       21 0.11847672E+00 0.61804820E+03</pdfrwt>
<totfact> 0.21120116E+02</totfact>
</mgrwt>
</event>
<event>
 4    1  0.4716816E-002  0.4271122E+03  0.7818608E-02  0.1034776E+00
         21   -1    0    0  503  502  0.00000000000E+00  0.00000000000E+00  0.43306155861E+03  0.43306155861E+03  0.00000000000E+00 0. -1.
         21   -1    0    0  501  503 -0.00000000000E+00 -0.00000000000E+00 -0.42229591949E+03  0.42229591949E+03  0.00000000000E+00 0. -1.
    9000007    1    1    2  501    0 -0.46112518539E+02 -0.14247282352E+03 -0.15955676358E+02  0.42741017000E+03  0.40000000000E+03 0. -1.
   -9000007    1    1    2    0  502  0.46112518539E+02  0.14247282352E+03  0.26721315473E+02  0.42794730810E+03  0.40000000000E+03 0. -1.
<mgrwt>
<rscale>  2 0.42711224E+03</rscale>
<asrwt>0</asrwt>
<pdfrwt beam="1">  1       21 0.66624855E-01 0.42711224E+03</pdfrwt>
<pdfrwt beam="2">  1       21 0.64968603E-01 0.42711224E+03</pdfrwt>
<totfact> 0.39781706E+03</totfact>
</mgrwt>
</event>
<event>
 4    1  0.4716816E-002  0.4224980E+03  0.7818608E-02  0.1036256E+00
         21   -1    0    0  501  502  0.00000000000E+00  0.00000000000E+00  0.10195594963E+04  0.10195594963E+04  0.00000000000E+00 0.  1.
         21   -1    0    0  502  503 -0.00000000000E+00 -0.00000000000E+00 -0.20772551677E+03  0.20772551677E+03  0.00000000000E+00 0.  1.
    9000007    1    1    2  501    0  0.13587862854E+03 -0.64454348726E+01  0.16265075301E+03  0.45272487537E+03  0.40000000000E+03 0.  1.
   -9000007    1    1    2    0  503 -0.13587862854E+03  0.64454348726E+01  0.64918322654E+03  0.77456013772E+03  0.40000000000E+03 0.  1.
<mgrwt>
<rscale>  2 0.42249798E+03</rscale>
<asrwt>0</asrwt>
<pdfrwt beam="1">  1       21 0.15685530E+00 0.42249798E+03</pdfrwt>
<pdfrwt beam="2">  1       21 0.31957772E-01 0.42249798E+03</pdfrwt>
<totfact> 0.21642706E+03</totfact>
</mgrwt>
</event>
<event>
 4    1  0.4716816E-002  0.4585375E+03  0.7818608E-02  0.1025206E+00
         21   -1    0    0  503  502  0.00000000000E+00  0.00000000000E+00  0.20475531590E+03  0.20475531590E+03  0.00000000000E+00 0.  1.
         21   -1    0    0  501  503 -0.00000000000E+00 -0.00000000000E+00 -0.17207559553E+04  0.17207559553E+04  0.00000000000E+00 0.  1.
    9000007    1    1    2  501    0 -0.16161556643E+03 -0.15536090459E+03 -0.13693662389E+04  0.14440985071E+04  0.40000000000E+03 0.  1.
   -9000007    1    1    2    0  502  0.16161556643E+03  0.15536090459E+03 -0.14663440045E+03  0.48141276404E+03  0.40000000000E+03 0.  1.
<mgrwt>
<rscale>  2 0.45853746E+03</rscale>
<asrwt>0</asrwt>
<pdfrwt beam="1">  1       21 0.31500817E-01 0.45853746E+03</pdfrwt>
<pdfrwt beam="2">  1       21 0.26473169E+00 0.45853746E+03</pdfrwt>
<totfact> 0.42287143E+02</totfact>
</mgrwt>
</event>
<event>
 4    1  0.4716816E-002  0.4546422E+03  0.7818608E-02  0.1026347E+00
         21   -1    0    0  503  502  0.00000000000E+00  0.00000000000E+00  0.91744880717E+03  0.91744880717E+03  0.00000000000E+00 0.  1.
         21   -1    0    0  501  503 -0.00000000000E+00 -0.00000000000E+00 -0.23841240628E+03  0.23841240628E+03  0.00000000000E+00 0.  1.
    9000007    1    1    2  501    0  0.17869887830E+03 -0.12151655746E+03  0.20397357215E+03  0.49830189743E+03  0.40000000000E+03 0.  1.
   -9000007    1    1    2    0  502 -0.17869887830E+03  0.12151655746E+03  0.47506282874E+03  0.65755931603E+03  0.40000000000E+03 0.  1.
<mgrwt>
<rscale>  2 0.45464224E+03</rscale>
<asrwt>0</asrwt>
<pdfrwt beam="1">  1       21 0.14114597E+00 0.45464224E+03</pdfrwt>
<pdfrwt beam="2">  1       21 0.36678832E-01 0.45464224E+03</pdfrwt>
<totfact> 0.21533599E+03</totfact>
</mgrwt>
</event>
<event>
 4    1  0.4716816E-002  0.4213758E+03  0.7818608E-02  0.1036619E+00
         21   -1    0    0  501  502  0.00000000000E+00  0.00000000000E+00  0.14931936321E+04  0.14931936321E+04  0.00000000000E+00 0.  1.
         21   -1    0    0  502  503 -0.00000000000E+00 -0.00000000000E+00 -0.22652697948E+03  0.22652697948E+03  0.00000000000E+00 0.  1.
    9000007    1    1    2  501    0 -0.27596040753E+02  0.12959958385E+03  0.12259934577E+04  0.12963863437E+04  0.40000000000E+03 0.  1.
   -9000007    1    1    2    0  503  0.27596040753E+02 -0.12959958385E+03  0.40673194861E+02  0.42333426790E+03  0.40000000000E+03 0.  1.
<mgrwt>
<rscale>  2 0.42137583E+03</rscale>
<asrwt>0</asrwt>
<pdfrwt beam="1">  1       21 0.22972209E+00 0.42137583E+03</pdfrwt>
<pdfrwt beam="2">  1       21 0.34850305E-01 0.42137583E+03</pdfrwt>
<totfact> 0.57862941E+02</totfact>
</mgrwt>
</event>
<event>
 4    1  0.4716816E-002  0.4501153E+03  0.7818608E-02  0.1027688E+00
         21   -1    0    0  501  502  0.00000000000E+00  0.00000000000E+00  0.29095631340E+03  0.29095631340E+03  0.00000000000E+00 0.  1.
         21   -1    0    0  502  503 -0.00000000000E+00 -0.00000000000E+00 -0.87757209837E+03  0.87757209837E+03  0.00000000000E+00 0.  1.
    9000007    1    1    2  501    0  0.10191929410E+03  0.17948876700E+03 -0.27793196720E+02  0.45097252885E+03  0.40000000000E+03 0.  1.
   -9000007    1    1    2    0  503 -0.10191929410E+03 -0.17948876700E+03 -0.55882258825E+03  0.71755588293E+03  0.40000000000E+03 0.  1.
<mgrwt>
<rscale>  2 0.45011527E+03</rscale>
<asrwt>0</asrwt>
<pdfrwt beam="1">  1       21 0.44762510E-01 0.45011527E+03</pdfrwt>
<pdfrwt beam="2">  1       21 0.13501109E+00 0.45011527E+03</pdfrwt>
<totfact> 0.16084758E+03</totfact>
</mgrwt>
</event>
<event>
 4    1  0.4716816E-002  0.4232690E+03  0.7818608E-02  0.1036008E+00
         21   -1    0    0  503  502  0.00000000000E+00  0.00000000000E+00  0.35523512640E+03  0.35523512640E+03  0.00000000000E+00 0.  1.
         21   -1    0    0  501  503 -0.00000000000E+00 -0.00000000000E+00 -0.91582969192E+03  0.91582969192E+03  0.00000000000E+00 0.  1.
    9000007    1    1    2  501    0 -0.11517165201E+03  0.76760139305E+02  0.14570680572E+03  0.44764617908E+03  0.40000000000E+03 0.  1.
   -9000007    1    1    2    0  502  0.11517165201E+03 -0.76760139305E+02 -0.70630137124E+03  0.82341863923E+03  0.40000000000E+03 0.  1.
<mgrwt>
<rscale>  2 0.42326898E+03</rscale>
<asrwt>0</asrwt>
<pdfrwt beam="1">  1       21 0.54651558E-01 0.42326898E+03</pdfrwt>
<pdfrwt beam="2">  1       21 0.14089688E+00 0.42326898E+03</pdfrwt>
<totfact> 0.95143683E+02</totfact>
</mgrwt>
</event>
<event>
 4    1  0.4716816E-002  0.5929818E+03  0.7818608E-02  0.9920075E-01
         21   -1    0    0  503  502  0.00000000000E+00  0.00000000000E+00  0.28444106085E+03  0.28444106085E+03  0.00000000000E+00 0. -1.
         21   -1    0    0  501  503 -0.00000000000E+00 -0.00000000000E+00 -0.16793435750E+04  0.16793435750E+04  0.00000000000E+00 0.  1.
    9000007    1    1    2  501    0 -0.32449654276E+03  0.29381863267E+03 -0.12018383639E+04  0.13401652317E+04  0.40000000000E+03 0.  1.
   -9000007    1    1    2    0  502  0.32449654276E+03 -0.29381863267E+03 -0.19306415023E+03  0.62361940418E+03  0.40000000000E+03 0. -1.
<mgrwt>
<rscale>  2 0.59298178E+03</rscale>
<asrwt>0</asrwt>
<pdfrwt beam="1">  1       21 0.43760163E-01 0.59298178E+03</pdfrwt>
<pdfrwt beam="2">  1       21 0.25836055E+00 0.59298178E+03</pdfrwt>
<totfact> 0.22137600E+02</totfact>
</mgrwt>
</event>
<event>
 4    1  0.4716816E-002  0.4725277E+03  0.7818608E-02  0.1021209E+00
         21   -1    0    0  501  502  0.00000000000E+00  0.00000000000E+00  0.40650612044E+03  0.40650612044E+03  0.00000000000E+00 0. -1.
         21   -1    0    0  502  503 -0.00000000000E+00 -0.00000000000E+00 -0.55079577773E+03  0.55079577773E+03  0.00000000000E+00 0. -1.
    9000007    1    1    2  501    0 -0.19017019541E+03 -0.16467462980E+03 -0.97320550586E+02  0.48244556842E+03  0.40000000000E+03 0. -1.
   -9000007    1    1    2    0  503  0.19017019541E+03  0.16467462980E+03 -0.46969106703E+02  0.47485632975E+03  0.40000000000E+03 0. -1.
<mgrwt>
<rscale>  2 0.47252771E+03</rscale>
<asrwt>0</asrwt>
<pdfrwt beam="1">  1       21 0.62539404E-01 0.47252771E+03</pdfrwt>
<pdfrwt beam="2">  1       21 0.84737811E-01 0.47252771E+03</pdfrwt>
<totfact> 0.24601205E+03</totfact>
</mgrwt>
</event>
<event>
 4    1  0.4716816E-002  0.4266871E+03  0.7818608E-02  0.1034912E+00
         21   -1    0    0  501  502  0.00000000000E+00  0.00000000000E+00  0.38073884111E+03  0.38073884111E+03  0.00000000000E+00 0.  1.
         21   -1    0    0  502  503 -0.00000000000E+00 -0.00000000000E+00 -0.51789737337E+03  0.51789737337E+03  0.00000000000E+00 0.  1.
    9000007    1    1    2  501    0 -0.10954271737E+03 -0.10031068156E+03  0.55849359910E+02  0.43032660941E+03  0.40000000000E+03 0. -1.
   -9000007    1    1    2    0  503  0.10954271737E+03  0.10031068156E+03 -0.19300789216E+03  0.46830960507E+03  0.40000000000E+03 0. -1.
<mgrwt>
<rscale>  2 0.42668705E+03</rscale>
<asrwt>0</asrwt>
<pdfrwt beam="1">  1       21 0.58575207E-01 0.42668705E+03</pdfrwt>
<pdfrwt beam="2">  1       21 0.79676518E-01 0.42668705E+03</pdfrwt>
<totfact> 0.33314261E+03</totfact>
</mgrwt>
</event>
<event>
 4    1  0.4716816E-002  0.5291129E+03  0.7818608E-02  0.1006447E+00
         21   -1    0    0  503  502  0.00000000000E+00  0.00000000000E+00  0.22874820264E+03  0.22874820264E+03  0.00000000000E+00 0. -1.
         21   -1    0    0  501  503 -0.00000000000E+00 -0.00000000000E+00 -0.12352835976E+04  0.12352835976E+04  0.00000000000E+00 0. -1.
    9000007    1    1    2  501    0 -0.33878367929E+03  0.72014658288E+02 -0.43293677908E+03  0.68366274364E+03  0.40000000000E+03 0. -1.
   -9000007    1    1    2    0  502  0.33878367929E+03 -0.72014658288E+02 -0.57359861590E+03  0.78036905661E+03  0.40000000000E+03 0. -1.
<mgrwt>
<rscale>  2 0.52911293E+03</rscale>
<asrwt>0</asrwt>
<pdfrwt beam="1">  1       21 0.35192031E-01 0.52911293E+03</pdfrwt>
<pdfrwt beam="2">  1       21 0.19004363E+00 0.52911293E+03</pdfrwt>
<totfact> 0.98285850E+02</totfact>
</mgrwt>
</event>
<event>
 4    1  0.4716816E-002  0.6770931E+03  0.7818608E-02  0.9757228E-01
         21   -1    0    0  501  502  0.00000000000E+00  0.00000000000E+00  0.59143150597E+03  0.59143150597E+03  0.00000000000E+00 0.  1.
         21   -1    0    0  502  503 -0.00000000000E+00 -0.00000000000E+00 -0.90318179124E+03  0.90318179124E+03  0.00000000000E+00 0.  1.
    9000007    1    1    2  501    0  0.39024299074E+03 -0.38231601183E+03 -0.43722721338E+03  0.80599178708E+03  0.40000000000E+03 0.  1.
   -9000007    1    1    2    0  503 -0.39024299074E+03  0.38231601183E+03  0.12547692811E+03  0.68862151013E+03  0.40000000000E+03 0.  1.
<mgrwt>
<rscale>  2 0.67709314E+03</rscale>
<asrwt>0</asrwt>
<pdfrwt beam="1">  1       21 0.90989463E-01 0.67709314E+03</pdfrwt>
<pdfrwt beam="2">  1       21 0.13895104E+00 0.67709314E+03</pdfrwt>
<totfact> 0.28257407E+02</totfact>
</mgrwt>
</event>
<event>
 4    1  0.4716816E-002  0.4373404E+03  0.7818608E-02  0.1031566E+00
         21   -1    0    0  501  502  0.00000000000E+00  0.00000000000E+00  0.16169730154E+03  0.16169730154E+03  0.00000000000E+00 0. -1.
         21   -1    0    0  502  503 -0.00000000000E+00 -0.00000000000E+00 -0.12629031702E+04  0.12629031702E+04  0.00000000000E+00 0.  1.
    9000007    1    1    2  501    0 -0.75331780768E+02 -0.15997408298E+03 -0.72991856573E+03  0.85090992297E+03  0.40000000000E+03 0. -1.
   -9000007    1    1    2    0  503  0.75331780768E+02  0.15997408298E+03 -0.37128730294E+03  0.57369054876E+03  0.40000000000E+03 0. -1.
<mgrwt>
<rscale>  2 0.43734035E+03</rscale>
<asrwt>0</asrwt>
<pdfrwt beam="1">  1       21 0.24876509E-01 0.43734035E+03</pdfrwt>
<pdfrwt beam="2">  1       21 0.19429279E+00 0.43734035E+03</pdfrwt>
<totfact> 0.19014593E+03</totfact>
</mgrwt>
</event>
<event>
 4    1  0.4716816E-002  0.5272800E+03  0.7818608E-02  0.1006894E+00
         21   -1    0    0  501  502  0.00000000000E+00  0.00000000000E+00  0.67367685800E+03  0.67367685800E+03  0.00000000000E+00 0.  1.
         21   -1    0    0  502  503 -0.00000000000E+00 -0.00000000000E+00 -0.54198710408E+03  0.54198710408E+03  0.00000000000E+00 0.  1.
    9000007    1    1    2  501    0  0.49494766315E+01  0.34351078969E+03  0.36271900861E+03  0.63999159304E+03  0.40000000000E+03 0.  1.
   -9000007    1    1    2    0  503 -0.49494766315E+01 -0.34351078969E+03 -0.23102925469E+03  0.57567236904E+03  0.40000000000E+03 0.  1.
<mgrwt>
<rscale>  2 0.52727996E+03</rscale>
<asrwt>0</asrwt>
<pdfrwt beam="1">  1       21 0.10364259E+00 0.52727996E+03</pdfrwt>
<pdfrwt beam="2">  1       21 0.83382632E-01 0.52727996E+03</pdfrwt>
<totfact> 0.77444404E+02</totfact>
</mgrwt>
</event>
<event>
 4    1  0.4716816E-002  0.4353059E+03  0.7818608E-02  0.1032197E+00
         21   -1    0    0  501  502  0.00000000000E+00  0.00000000000E+00  0.89959729214E+03  0.89959729214E+03  0.00000000000E+00 0. -1.
         21   -1    0    0  502  503 -0.00000000000E+00 -0.00000000000E+00 -0.31065320765E+03  0.31065320765E+03  0.00000000000E+00 0. -1.
    9000007    1    1    2  501    0 -0.71109927621E+02  0.15631573496E+03  0.63782112694E+03  0.77220918201E+03  0.40000000000E+03 0. -1.
   -9000007    1    1    2    0  503  0.71109927621E+02 -0.15631573496E+03 -0.48877042459E+02  0.43804131778E+03  0.40000000000E+03 0. -1.
<mgrwt>
<rscale>  2 0.43530590E+03</rscale>
<asrwt>0</asrwt>
<pdfrwt beam="1">  1       21 0.13839958E+00 0.43530590E+03</pdfrwt>
<pdfrwt beam="2">  1       21 0.47792801E-01 0.43530590E+03</pdfrwt>
<totfact> 0.13209974E+03</totfact>
</mgrwt>
</event>
<event>
 4    1  0.4716816E-002  0.5096201E+03  0.7818608E-02  0.1011298E+00
         21   -1    0    0  501  502  0.00000000000E+00  0.00000000000E+00  0.37142450966E+03  0.37142450966E+03  0.00000000000E+00 0.  1.
         21   -1    0    0  502  503 -0.00000000000E+00 -0.00000000000E+00 -0.77097713824E+03  0.77097713824E+03  0.00000000000E+00 0. -1.
    9000007    1    1    2  501    0 -0.12770102427E+03 -0.28879938921E+03 -0.25532120464E+02  0.51025927525E+03  0.40000000000E+03 0. -1.
   -9000007    1    1    2    0  503  0.12770102427E+03  0.28879938921E+03 -0.37402050812E+03  0.63214237265E+03  0.40000000000E+03 0. -1.
<mgrwt>
<rscale>  2 0.50962009E+03</rscale>
<asrwt>0</asrwt>
<pdfrwt beam="1">  1       21 0.57142233E-01 0.50962009E+03</pdfrwt>
<pdfrwt beam="2">  1       21 0.11861186E+00 0.50962009E+03</pdfrwt>
<totfact> 0.13051759E+03</totfact>
</mgrwt>
</event>
<event>
 4    1  0.4716816E-002  0.4076157E+03  0.7818608E-02  0.1041174E+00
         21   -1    0    0  501  502  0.00000000000E+00  0.00000000000E+00  0.41953541713E+03  0.41953541713E+03  0.00000000000E+00 0.  1.
         21   -1    0    0  502  503 -0.00000000000E+00 -0.00000000000E+00 -0.10932662502E+04  0.10932662502E+04  0.00000000000E+00 0.  1.
    9000007    1    1    2  501    0  0.53408073682E+02  0.57429169447E+02  0.26719111090E+03  0.48738241821E+03  0.40000000000E+03 0.  1.
   -9000007    1    1    2    0  503 -0.53408073682E+02 -0.57429169447E+02 -0.94092194401E+03  0.10254192492E+04  0.40000000000E+03 0.  1.
<mgrwt>
<rscale>  2 0.40761567E+03</rscale>
<asrwt>0</asrwt>
<pdfrwt beam="1">  1       21 0.64543911E-01 0.40761567E+03</pdfrwt>
<pdfrwt beam="2">  1       21 0.16819481E+00 0.40761567E+03</pdfrwt>
<totfact> 0.41049645E+02</totfact>
</mgrwt>
</event>
<event>
 4    1  0.4716816E-002  0.4573864E+03  0.7818608E-02  0.1025542E+00
         21   -1    0    0  503  502  0.00000000000E+00  0.00000000000E+00  0.15994989949E+03  0.15994989949E+03  0.00000000000E+00 0. -1.
         21   -1    0    0  501  503 -0.00000000000E+00 -0.00000000000E+00 -0.14980662206E+04  0.14980662206E+04  0.00000000000E+00 0.  1.
    9000007    1    1    2  501    0 -0.12335819018E+03  0.18435031651E+03 -0.37371103889E+03  0.59064559836E+03  0.40000000000E+03 0. -1.
   -9000007    1    1    2    0  502  0.12335819018E+03 -0.18435031651E+03 -0.96440528224E+03  0.10673705217E+04  0.40000000000E+03 0.  1.
<mgrwt>
<rscale>  2 0.45738636E+03</rscale>
<asrwt>0</asrwt>
<pdfrwt beam="1">  1       21 0.24607676E-01 0.45738636E+03</pdfrwt>
<pdfrwt beam="2">  1       21 0.23047173E+00 0.45738636E+03</pdfrwt>
<totfact> 0.11198520E+03</totfact>
</mgrwt>
</event>
<event>
 4    1  0.4716816E-002  0.6157353E+03  0.7818608E-02  0.9873288E-01
         21   -1    0    0  501  502  0.00000000000E+00  0.00000000000E+00  0.13109653668E+04  0.13109653668E+04  0.00000000000E+00 0. -1.
         21   -1    0    0  502  503 -0.00000000000E+00 -0.00000000000E+00 -0.62384865352E+03  0.62384865352E+03  0.00000000000E+00 0.  1.
    9000007    1    1    2  501    0 -0.11025176571E+03  0.45494446525E+03  0.10520990150E+04  0.12190333284E+04  0.40000000000E+03 0. -1.
   -9000007    1    1    2    0  503  0.11025176571E+03 -0.45494446525E+03 -0.36498230176E+03  0.71578069191E+03  0.40000000000E+03 0.  1.
<mgrwt>
<rscale>  2 0.61573527E+03</rscale>
<asrwt>0</asrwt>
<pdfrwt beam="1">  1       21 0.20168698E+00 0.61573527E+03</pdfrwt>
<pdfrwt beam="2">  1       21 0.95976716E-01 0.61573527E+03</pdfrwt>
<totfact> 0.86812060E+01</totfact>
</mgrwt>
</event>
<event>
 4    1  0.4716816E-002  0.4612309E+03  0.7818608E-02  0.1024425E+00
         21   -1    0    0  501  502  0.00000000000E+00  0.00000000000E+00  0.25105817323E+03  0.25105817323E+03  0.00000000000E+00 0.  1.
         21   -1    0    0  502  503 -0.00000000000E+00 -0.00000000000E+00 -0.87971484193E+03  0.87971484193E+03  0.00000000000E+00 0. -1.
    9000007    1    1    2  501    0  0.22963869587E+03  0.10106112493E+00 -0.20588156215E+03  0.50509519745E+03  0.40000000000E+03 0. -1.
   -9000007    1    1    2    0  503 -0.22963869587E+03 -0.10106112493E+00 -0.42277510656E+03  0.62567781771E+03  0.40000000000E+03 0.  1.
<mgrwt>
<rscale>  2 0.46123090E+03</rscale>
<asrwt>0</asrwt>
<pdfrwt beam="1">  1       21 0.38624334E-01 0.46123090E+03</pdfrwt>
<pdfrwt beam="2">  1       21 0.13534075E+00 0.46123090E+03</pdfrwt>
<totfact> 0.21602080E+03</totfact>
</mgrwt>
</event>
<event>
 4    1  0.4716816E-002  0.7936527E+03  0.7818608E-02  0.9569250E-01
         21   -1    0    0  501  502  0.00000000000E+00  0.00000000000E+00  0.12206263389E+04  0.12206263389E+04  0.00000000000E+00 0.  1.
         21   -1    0    0  502  503 -0.00000000000E+00 -0.00000000000E+00 -0.61285058249E+03  0.61285058249E+03  0.00000000000E+00 0. -1.
    9000007    1    1    2  501    0 -0.24044249746E+03  0.64192838657E+03  0.66825829191E+03  0.10375229119E+04  0.40000000000E+03 0.  1.
   -9000007    1    1    2    0  503  0.24044249746E+03 -0.64192838657E+03 -0.60482535520E+02  0.79595400945E+03  0.40000000000E+03 0. -1.
<mgrwt>
<rscale>  2 0.79365273E+03</rscale>
<asrwt>0</asrwt>
<pdfrwt beam="1">  1       21 0.18778867E+00 0.79365273E+03</pdfrwt>
<pdfrwt beam="2">  1       21 0.94284706E-01 0.79365273E+03</pdfrwt>
<totfact> 0.10611489E+02</totfact>
</mgrwt>
</event>
<event>
 4    1  0.4716816E-002  0.4916438E+03  0.7818608E-02  0.1015983E+00
         21   -1    0    0  503  502  0.00000000000E+00  0.00000000000E+00  0.99057091268E+03  0.99057091268E+03  0.00000000000E+00 0.  1.
         21   -1    0    0  501  503 -0.00000000000E+00 -0.00000000000E+00 -0.32523486458E+03  0.32523486458E+03  0.00000000000E+00 0.  1.
    9000007    1    1    2  501    0 -0.27719124965E+03 -0.69847227939E+02  0.38952652076E+01  0.49165922876E+03  0.40000000000E+03 0.  1.
   -9000007    1    1    2    0  502  0.27719124965E+03  0.69847227939E+02  0.66144078289E+03  0.82414654850E+03  0.40000000000E+03 0.  1.
<mgrwt>
<rscale>  2 0.49164380E+03</rscale>
<asrwt>0</asrwt>
<pdfrwt beam="1">  1       21 0.15239552E+00 0.49164380E+03</pdfrwt>
<pdfrwt beam="2">  1       21 0.50036133E-01 0.49164380E+03</pdfrwt>
<totfact> 0.90342058E+02</totfact>
</mgrwt>
</event>
<event>
 4    1  0.4716816E-002  0.4300964E+03  0.7818608E-02  0.1033830E+00
         21   -1    0    0  503  502  0.00000000000E+00  0.00000000000E+00  0.23559024681E+03  0.23559024681E+03  0.00000000000E+00 0.  1.
         21   -1    0    0  501  503 -0.00000000000E+00 -0.00000000000E+00 -0.91759328814E+03  0.91759328814E+03  0.00000000000E+00 0.  1.
    9000007    1    1    2  501    0  0.15753180412E+03  0.12909894983E+02 -0.56002662719E+03  0.70612517153E+03  0.40000000000E+03 0.  1.
   -9000007    1    1    2    0  502 -0.15753180412E+03 -0.12909894983E+02 -0.12197641414E+03  0.44705836342E+03  0.40000000000E+03 0.  1.
<mgrwt>
<rscale>  2 0.43009642E+03</rscale>
<asrwt>0</asrwt>
<pdfrwt beam="1">  1       21 0.36244653E-01 0.43009642E+03</pdfrwt>
<pdfrwt beam="2">  1       21 0.14116820E+00 0.43009642E+03</pdfrwt>
<totfact> 0.22266486E+03</totfact>
</mgrwt>
</event>
<event>
 4    1  0.4716816E-002  0.4563873E+03  0.7818608E-02  0.1025834E+00
         21   -1    0    0  501  502  0.00000000000E+00  0.00000000000E+00  0.22546925067E+03  0.22546925067E+03  0.00000000000E+00 0. -1.
         21   -1    0    0  502  503 -0.00000000000E+00 -0.00000000000E+00 -0.15132718453E+04  0.15132718453E+04  0.00000000000E+00 0.  1.
    9000007    1    1    2  501    0  0.12648680840E+03 -0.17969545943E+03 -0.10130534735E+03  0.46749560879E+03  0.40000000000E+03 0. -1.
   -9000007    1    1    2    0  503 -0.12648680840E+03  0.17969545943E+03 -0.11864972473E+04  0.12712454872E+04  0.40000000000E+03 0.  1.
<mgrwt>
<rscale>  2 0.45638730E+03</rscale>
<asrwt>0</asrwt>
<pdfrwt beam="1">  1       21 0.34687579E-01 0.45638730E+03</pdfrwt>
<pdfrwt beam="2">  1       21 0.23281104E+00 0.45638730E+03</pdfrwt>
<totfact> 0.54851591E+02</totfact>
</mgrwt>
</event>
<event>
 4    1  0.4716816E-002  0.5246610E+03  0.7818608E-02  0.1007535E+00
         21   -1    0    0  503  502  0.00000000000E+00  0.00000000000E+00  0.23755968831E+04  0.23755968831E+04  0.00000000000E+00 0. -1.
         21   -1    0    0  501  503 -0.00000000000E+00 -0.00000000000E+00 -0.43585054736E+03  0.43585054736E+03  0.00000000000E+00 0.  1.
    9000007    1    1    2  501    0  0.19377072249E+03  0.27878687875E+03 -0.23458146580E+03  0.57471530409E+03  0.40000000000E+03 0.  1.
   -9000007    1    1    2    0  502 -0.19377072249E+03 -0.27878687875E+03  0.21743278015E+04  0.22367321264E+04  0.40000000000E+03 0. -1.
<mgrwt>
<rscale>  2 0.52466105E+03</rscale>
<asrwt>0</asrwt>
<pdfrwt beam="1">  1       21 0.36547644E+00 0.52466105E+03</pdfrwt>
<pdfrwt beam="2">  1       21 0.67053932E-01 0.52466105E+03</pdfrwt>
<totfact> 0.20113413E+01</totfact>
</mgrwt>
</event>
<event>
 4    1  0.4716816E-002  0.4238872E+03  0.7818608E-02  0.1035809E+00
         21   -1    0    0  501  502  0.00000000000E+00  0.00000000000E+00  0.13146162440E+04  0.13146162440E+04  0.00000000000E+00 0. -1.
         21   -1    0    0  502  503 -0.00000000000E+00 -0.00000000000E+00 -0.14170003861E+03  0.14170003861E+03  0.00000000000E+00 0. -1.
    9000007    1    1    2  501    0  0.13733933778E+03  0.28605781624E+02  0.44938914080E+03  0.61776288680E+03  0.40000000000E+03 0. -1.
   -9000007    1    1    2    0  503 -0.13733933778E+03 -0.28605781624E+02  0.72352706460E+03  0.83855339583E+03  0.40000000000E+03 0. -1.
<mgrwt>
<rscale>  2 0.42388723E+03</rscale>
<asrwt>0</asrwt>
<pdfrwt beam="1">  1       21 0.20224865E+00 0.42388723E+03</pdfrwt>
<pdfrwt beam="2">  1       21 0.21800007E-01 0.42388723E+03</pdfrwt>
<totfact> 0.21832909E+03</totfact>
</mgrwt>
</event>
<event>
 4    1  0.4716816E-002  0.5187858E+03  0.7818608E-02  0.1008989E+00
         21   -1    0    0  501  502  0.00000000000E+00  0.00000000000E+00  0.17178770924E+03  0.17178770924E+03  0.00000000000E+00 0. -1.
         21   -1    0    0  502  503 -0.00000000000E+00 -0.00000000000E+00 -0.17943324645E+04  0.17943324645E+04  0.00000000000E+00 0. -1.
    9000007    1    1    2  501    0 -0.30227991796E+03 -0.13328769293E+03 -0.46112448585E+03  0.69409981223E+03  0.40000000000E+03 0. -1.
   -9000007    1    1    2    0  503  0.30227991796E+03  0.13328769293E+03 -0.11614202694E+04  0.12720203615E+04  0.40000000000E+03 0. -1.
<mgrwt>
<rscale>  2 0.51878585E+03</rscale>
<asrwt>0</asrwt>
<pdfrwt beam="1">  1       21 0.26428877E-01 0.51878585E+03</pdfrwt>
<pdfrwt beam="2">  1       21 0.27605116E+00 0.51878585E+03</pdfrwt>
<totfact> 0.49578440E+02</totfact>
</mgrwt>
</event>
<event>
 4    1  0.4716816E-002  0.4815609E+03  0.7818608E-02  0.1018707E+00
         21   -1    0    0  503  502  0.00000000000E+00  0.00000000000E+00  0.64170378649E+03  0.64170378649E+03  0.00000000000E+00 0. -1.
         21   -1    0    0  501  503 -0.00000000000E+00 -0.00000000000E+00 -0.36179716236E+03  0.36179716236E+03  0.00000000000E+00 0. -1.
    9000007    1    1    2  501    0 -0.14516573684E+03  0.22545021818E+03  0.15692783514E+03  0.50648517991E+03  0.40000000000E+03 0. -1.
   -9000007    1    1    2    0  502  0.14516573684E+03 -0.22545021818E+03  0.12297878900E+03  0.49701576894E+03  0.40000000000E+03 0. -1.
<mgrwt>
<rscale>  2 0.48156089E+03</rscale>
<asrwt>0</asrwt>
<pdfrwt beam="1">  1       21 0.98723659E-01 0.48156089E+03</pdfrwt>
<pdfrwt beam="2">  1       21 0.55661102E-01 0.48156089E+03</pdfrwt>
<totfact> 0.21996731E+03</totfact>
</mgrwt>
</event>
<event>
 4    1  0.4716816E-002  0.4048538E+03  0.7818608E-02  0.1042112E+00
         21   -1    0    0  501  502  0.00000000000E+00  0.00000000000E+00  0.38723904968E+03  0.38723904968E+03  0.00000000000E+00 0. -1.
         21   -1    0    0  502  503 -0.00000000000E+00 -0.00000000000E+00 -0.43348753185E+03  0.43348753185E+03  0.00000000000E+00 0. -1.
    9000007    1    1    2  501    0  0.15299285325E+01  0.62484237206E+02 -0.86126489880E+02  0.41391350889E+03  0.40000000000E+03 0. -1.
   -9000007    1    1    2    0  503 -0.15299285325E+01 -0.62484237206E+02  0.39878007710E+02  0.40681307265E+03  0.40000000000E+03 0. -1.
<mgrwt>
<rscale>  2 0.40485383E+03</rscale>
<asrwt>0</asrwt>
<pdfrwt beam="1">  1       21 0.59575238E-01 0.40485383E+03</pdfrwt>
<pdfrwt beam="2">  1       21 0.66690389E-01 0.40485383E+03</pdfrwt>
<totfact> 0.48427671E+03</totfact>
</mgrwt>
</event>
<event>
 4    1  0.4716816E-002  0.4477828E+03  0.7818608E-02  0.1028385E+00
         21   -1    0    0  503  502  0.00000000000E+00  0.00000000000E+00  0.85520015299E+03  0.85520015299E+03  0.00000000000E+00 0. -1.
         21   -1    0    0  501  503 -0.00000000000E+00 -0.00000000000E+00 -0.23698195392E+03  0.23698195392E+03  0.00000000000E+00 0. -1.
    9000007    1    1    2  501    0 -0.21244184508E+02  0.20014535871E+03  0.36545356743E+03  0.57798424713E+03  0.40000000000E+03 0. -1.
   -9000007    1    1    2    0  502  0.21244184508E+02 -0.20014535871E+03  0.25276463164E+03  0.51419785977E+03  0.40000000000E+03 0. -1.
<mgrwt>
<rscale>  2 0.44778285E+03</rscale>
<asrwt>0</asrwt>
<pdfrwt beam="1">  1       21 0.13156925E+00 0.44778285E+03</pdfrwt>
<pdfrwt beam="2">  1       21 0.36458762E-01 0.44778285E+03</pdfrwt>
<totfact> 0.26297671E+03</totfact>
</mgrwt>
</event>
<event>
 4    1  0.4716816E-002  0.4748609E+03  0.7818608E-02  0.1020557E+00
         21   -1    0    0  501  502  0.00000000000E+00  0.00000000000E+00  0.11016251398E+04  0.11016251398E+04  0.00000000000E+00 0. -1.
         21   -1    0    0  502  503 -0.00000000000E+00 -0.00000000000E+00 -0.30880543130E+03  0.30880543130E+03  0.00000000000E+00 0. -1.
    9000007    1    1    2  501    0  0.20029909165E+03  0.15928964481E+03  0.80589146616E+03  0.93538974352E+03  0.40000000000E+03 0. -1.
   -9000007    1    1    2    0  503 -0.20029909165E+03 -0.15928964481E+03 -0.13071757604E+02  0.47504082762E+03  0.40000000000E+03 0. -1.
<mgrwt>
<rscale>  2 0.47486094E+03</rscale>
<asrwt>0</asrwt>
<pdfrwt beam="1">  1       21 0.16948079E+00 0.47486094E+03</pdfrwt>
<pdfrwt beam="2">  1       21 0.47508528E-01 0.47486094E+03</pdfrwt>
<totfact> 0.75452747E+02</totfact>
</mgrwt>
</event>
<event>
 4    1  0.4716816E-002  0.4322221E+03  0.7818608E-02  0.1033160E+00
         21   -1    0    0  501  502  0.00000000000E+00  0.00000000000E+00  0.75752356979E+03  0.75752356979E+03  0.00000000000E+00 0. -1.
         21   -1    0    0  502  503 -0.00000000000E+00 -0.00000000000E+00 -0.36840984573E+03  0.36840984573E+03  0.00000000000E+00 0.  1.
    9000007    1    1    2  501    0 -0.13358751518E+03 -0.94711982164E+02  0.51824976733E+03  0.67483242744E+03  0.40000000000E+03 0. -1.
   -9000007    1    1    2    0  503  0.13358751518E+03  0.94711982164E+02 -0.12913604327E+03  0.45110098808E+03  0.40000000000E+03 0.  1.
<mgrwt>
<rscale>  2 0.43222215E+03</rscale>
<asrwt>0</asrwt>
<pdfrwt beam="1">  1       21 0.11654209E+00 0.43222215E+03</pdfrwt>
<pdfrwt beam="2">  1       21 0.56678438E-01 0.43222215E+03</pdfrwt>
<totfact> 0.14305133E+03</totfact>
</mgrwt>
</event>
<event>
 4    1  0.4716816E-002  0.4008582E+03  0.7818608E-02  0.1043483E+00
         21   -1    0    0  501  502  0.00000000000E+00  0.00000000000E+00  0.54454005941E+03  0.54454005941E+03  0.00000000000E+00 0. -1.
         21   -1    0    0  502  503 -0.00000000000E+00 -0.00000000000E+00 -0.52187467944E+03  0.52187467944E+03  0.00000000000E+00 0. -1.
    9000007    1    1    2  501    0  0.25017886017E+02 -0.78377379872E+01  0.36282970964E+03  0.54067802152E+03  0.40000000000E+03 0. -1.
   -9000007    1    1    2    0  503 -0.25017886017E+02  0.78377379872E+01 -0.34016432967E+03  0.52573671732E+03  0.40000000000E+03 0. -1.
<mgrwt>
<rscale>  2 0.40085824E+03</rscale>
<asrwt>0</asrwt>
<pdfrwt beam="1">  1       21 0.83775394E-01 0.40085824E+03</pdfrwt>
<pdfrwt beam="2">  1       21 0.80288412E-01 0.40085824E+03</pdfrwt>
<totfact> 0.14788246E+03</totfact>
</mgrwt>
</event>
<event>
 4    1  0.4716816E-002  0.4514779E+03  0.7818608E-02  0.1027282E+00
         21   -1    0    0  503  502  0.00000000000E+00  0.00000000000E+00  0.16832184219E+04  0.16832184219E+04  0.00000000000E+00 0. -1.
         21   -1    0    0  501  503 -0.00000000000E+00 -0.00000000000E+00 -0.14305732555E+03  0.14305732555E+03  0.00000000000E+00 0. -1.
    9000007    1    1    2  501    0  0.31871466503E+02  0.20692153906E+03  0.11278497638E+04  0.12148569477E+04  0.40000000000E+03 0. -1.
   -9000007    1    1    2    0  502 -0.31871466503E+02 -0.20692153906E+03  0.41231133249E+03  0.61141879968E+03  0.40000000000E+03 0. -1.
<mgrwt>
<rscale>  2 0.45147792E+03</rscale>
<asrwt>0</asrwt>
<pdfrwt beam="1">  1       21 0.25895667E+00 0.45147792E+03</pdfrwt>
<pdfrwt beam="2">  1       21 0.22008820E-01 0.45147792E+03</pdfrwt>
<totfact> 0.92880951E+02</totfact>
</mgrwt>
</event>
<event>
 4    1  0.4716816E-002  0.4260300E+03  0.7818608E-02  0.1035121E+00
         21   -1    0    0  503  502  0.00000000000E+00  0.00000000000E+00  0.16737673730E+03  0.16737673730E+03  0.00000000000E+00 0. -1.
         21   -1    0    0  501  503 -0.00000000000E+00 -0.00000000000E+00 -0.16356982561E+04  0.16356982561E+04  0.00000000000E+00 0. -1.
    9000007    1    1    2  501    0 -0.78787532113E+02  0.12366921455E+03 -0.12575559251E+04  0.13277606917E+04  0.40000000000E+03 0. -1.
   -9000007    1    1    2    0  502  0.78787532113E+02 -0.12366921455E+03 -0.21076559371E+03  0.47531430163E+03  0.40000000000E+03 0. -1.
<mgrwt>
<rscale>  2 0.42602999E+03</rscale>
<asrwt>0</asrwt>
<pdfrwt beam="1">  1       21 0.25750268E-01 0.42602999E+03</pdfrwt>
<pdfrwt beam="2">  1       21 0.25164588E+00 0.42602999E+03</pdfrwt>
<totfact> 0.76980959E+02</totfact>
</mgrwt>
</event>
<event>
 4    1  0.4716816E-002  0.4803981E+03  0.7818608E-02  0.1019026E+00
         21   -1    0    0  501  502  0.00000000000E+00  0.00000000000E+00  0.82279806453E+03  0.82279806453E+03  0.00000000000E+00 0. -1.
         21   -1    0    0  502  503 -0.00000000000E+00 -0.00000000000E+00 -0.36054300243E+03  0.36054300243E+03  0.00000000000E+00 0.  1.
    9000007    1    1    2  501    0 -0.12792874752E+03 -0.23327361940E+03  0.50993495770E+03  0.70058261971E+03  0.40000000000E+03 0. -1.
   -9000007    1    1    2    0  503  0.12792874752E+03  0.23327361940E+03 -0.47679895610E+02  0.48275844725E+03  0.40000000000E+03 0.  1.
<mgrwt>
<rscale>  2 0.48039811E+03</rscale>
<asrwt>0</asrwt>
<pdfrwt beam="1">  1       21 0.12658432E+00 0.48039811E+03</pdfrwt>
<pdfrwt beam="2">  1       21 0.55468155E-01 0.48039811E+03</pdfrwt>
<totfact> 0.11908093E+03</totfact>
</mgrwt>
</event>
<event>
 4    1  0.4716816E-002  0.4855272E+03  0.7818608E-02  0.1017627E+00
         21   -1    0    0  503  502  0.00000000000E+00  0.00000000000E+00  0.91740899547E+03  0.91740899547E+03  0.00000000000E+00 0.  1.
         21   -1    0    0  501  503 -0.00000000000E+00 -0.00000000000E+00 -0.46417335181E+03  0.46417335181E+03  0.00000000000E+00 0.  1.
    9000007    1    1    2  501    0 -0.17123680089E+03 -0.21544043426E+03 -0.23492972962E+03  0.53937797559E+03  0.40000000000E+03 0.  1.
   -9000007    1    1    2    0  502  0.17123680089E+03  0.21544043426E+03  0.68816537329E+03  0.84220437169E+03  0.40000000000E+03 0.  1.
<mgrwt>
<rscale>  2 0.48552716E+03</rscale>
<asrwt>0</asrwt>
<pdfrwt beam="1">  1       21 0.14113985E+00 0.48552716E+03</pdfrwt>
<pdfrwt beam="2">  1       21 0.71411285E-01 0.48552716E+03</pdfrwt>
<totfact> 0.51051972E+02</totfact>
</mgrwt>
</event>
<event>
 4    1  0.4716816E-002  0.6174110E+03  0.7818608E-02  0.9869928E-01
         21   -1    0    0  501  502  0.00000000000E+00  0.00000000000E+00  0.47955182513E+03  0.47955182513E+03  0.00000000000E+00 0.  1.
         21   -1    0    0  502  503 -0.00000000000E+00 -0.00000000000E+00 -0.86356382982E+03  0.86356382982E+03  0.00000000000E+00 0. -1.
    9000007    1    1    2  501    0  0.91086782279E+02  0.46141040108E+03 -0.26425538915E+01  0.61741666905E+03  0.40000000000E+03 0.  1.
   -9000007    1    1    2    0  503 -0.91086782279E+02 -0.46141040108E+03 -0.38136945080E+03  0.72569898590E+03  0.40000000000E+03 0. -1.
<mgrwt>
<rscale>  2 0.61741101E+03</rscale>
<asrwt>0</asrwt>
<pdfrwt beam="1">  1       21 0.73777205E-01 0.61741101E+03</pdfrwt>
<pdfrwt beam="2">  1       21 0.13285597E+00 0.61741101E+03</pdfrwt>
<totfact> 0.53021490E+02</totfact>
</mgrwt>
</event>
<event>
 4    1  0.4716816E-002  0.4477892E+03  0.7818608E-02  0.1028383E+00
         21   -1    0    0  503  502  0.00000000000E+00  0.00000000000E+00  0.38371285045E+03  0.38371285045E+03  0.00000000000E+00 0.  1.
         21   -1    0    0  501  503 -0.00000000000E+00 -0.00000000000E+00 -0.10719322934E+04  0.10719322934E+04  0.00000000000E+00 0. -1.
    9000007    1    1    2  501    0  0.50579183402E+02  0.19482531508E+03 -0.86515202329E+03  0.97416794270E+03  0.40000000000E+03 0. -1.
   -9000007    1    1    2    0  502 -0.50579183402E+02 -0.19482531508E+03  0.17693258038E+03  0.48147720111E+03  0.40000000000E+03 0.  1.
<mgrwt>
<rscale>  2 0.44778919E+03</rscale>
<asrwt>0</asrwt>
<pdfrwt beam="1">  1       21 0.59032746E-01 0.44778919E+03</pdfrwt>
<pdfrwt beam="2">  1       21 0.16491266E+00 0.44778919E+03</pdfrwt>
<totfact> 0.51760466E+02</totfact>
</mgrwt>
</event>
<event>
 4    1  0.4716816E-002  0.4623461E+03  0.7818608E-02  0.1024103E+00
         21   -1    0    0  501  502  0.00000000000E+00  0.00000000000E+00  0.22557980347E+03  0.22557980347E+03  0.00000000000E+00 0.  1.
         21   -1    0    0  502  503 -0.00000000000E+00 -0.00000000000E+00 -0.21072824427E+04  0.21072824427E+04  0.00000000000E+00 0.  1.
    9000007    1    1    2  501    0 -0.10847311607E+03  0.20493295854E+03 -0.75557663012E+02  0.46847934303E+03  0.40000000000E+03 0.  1.
   -9000007    1    1    2    0  503  0.10847311607E+03 -0.20493295854E+03 -0.18061449762E+04  0.18643829031E+04  0.40000000000E+03 0.  1.
<mgrwt>
<rscale>  2 0.46234612E+03</rscale>
<asrwt>0</asrwt>
<pdfrwt beam="1">  1       21 0.34704585E-01 0.46234612E+03</pdfrwt>
<pdfrwt beam="2">  1       21 0.32419730E+00 0.46234612E+03</pdfrwt>
<totfact> 0.15199197E+02</totfact>
</mgrwt>
</event>
<event>
 4    1  0.4716816E-002  0.6388098E+03  0.7818608E-02  0.9828006E-01
         21   -1    0    0  503  502  0.00000000000E+00  0.00000000000E+00  0.15890058515E+04  0.15890058515E+04  0.00000000000E+00 0. -1.
         21   -1    0    0  501  503 -0.00000000000E+00 -0.00000000000E+00 -0.31570425832E+03  0.31570425832E+03  0.00000000000E+00 0. -1.
    9000007    1    1    2  501    0 -0.30485062001E+03 -0.39388336852E+03  0.22532818665E+03  0.67738526720E+03  0.40000000000E+03 0. -1.
   -9000007    1    1    2    0  502  0.30485062001E+03  0.39388336852E+03  0.10479734065E+04  0.12273248426E+04  0.40000000000E+03 0. -1.
<mgrwt>
<rscale>  2 0.63880984E+03</rscale>
<asrwt>0</asrwt>
<pdfrwt beam="1">  1       21 0.24446243E+00 0.63880984E+03</pdfrwt>
<pdfrwt beam="2">  1       21 0.48569887E-01 0.63880984E+03</pdfrwt>
<totfact> 0.21274311E+02</totfact>
</mgrwt>
</event>
<event>
 4    1  0.4716816E-002  0.5763486E+03  0.7818608E-02  0.9955728E-01
         21   -1    0    0  501  502  0.00000000000E+00  0.00000000000E+00  0.43434849787E+03  0.43434849787E+03  0.00000000000E+00 0.  1.
         21   -1    0    0  502  503 -0.00000000000E+00 -0.00000000000E+00 -0.11581803776E+04  0.11581803776E+04  0.00000000000E+00 0. -1.
    9000007    1    1    2  501    0 -0.41232577625E+03  0.46531739796E+02 -0.82599373907E+03  0.10071958129E+04  0.40000000000E+03 0. -1.
   -9000007    1    1    2    0  503  0.41232577625E+03 -0.46531739796E+02  0.10216185937E+03  0.58533306252E+03  0.40000000000E+03 0.  1.
<mgrwt>
<rscale>  2 0.57634863E+03</rscale>
<asrwt>0</asrwt>
<pdfrwt beam="1">  1       21 0.66822846E-01 0.57634863E+03</pdfrwt>
<pdfrwt beam="2">  1       21 0.17818160E+00 0.57634863E+03</pdfrwt>
<totfact> 0.29814852E+02</totfact>
</mgrwt>
</event>
<event>
 4    1  0.4716816E-002  0.4593135E+03  0.7818608E-02  0.1024981E+00
         21   -1    0    0  501  502  0.00000000000E+00  0.00000000000E+00  0.24069745959E+03  0.24069745959E+03  0.00000000000E+00 0. -1.
         21   -1    0    0  502  503 -0.00000000000E+00 -0.00000000000E+00 -0.10059622856E+04  0.10059622856E+04  0.00000000000E+00 0. -1.
    9000007    1    1    2  501    0 -0.92970487188E+01  0.22557145396E+03 -0.15900991148E+03  0.48605870829E+03  0.40000000000E+03 0.  1.
   -9000007    1    1    2    0  503  0.92970487188E+01 -0.22557145396E+03 -0.60625491451E+03  0.76060103689E+03  0.40000000000E+03 0.  1.
<mgrwt>
<rscale>  2 0.45931353E+03</rscale>
<asrwt>0</asrwt>
<pdfrwt beam="1">  1       21 0.37030378E-01 0.45931353E+03</pdfrwt>
<pdfrwt beam="2">  1       21 0.15476343E+00 0.45931353E+03</pdfrwt>
<totfact> 0.16431225E+03</totfact>
</mgrwt>
</event>
<event>
 4    1  0.4716816E-002  0.5624410E+03  0.7818608E-02  0.9986547E-01
         21   -1    0    0  503  502  0.00000000000E+00  0.00000000000E+00  0.24985574570E+03  0.24985574570E+03  0.00000000000E+00 0.  1.
         21   -1    0    0  501  503 -0.00000000000E+00 -0.00000000000E+00 -0.13585297459E+04  0.13585297459E+04  0.00000000000E+00 0. -1.
    9000007    1    1    2  501    0  0.33361936192E+03 -0.21222157805E+03 -0.76411251639E+03  0.94879281961E+03  0.40000000000E+03 0. -1.
   -9000007    1    1    2    0  502 -0.33361936192E+03  0.21222157805E+03 -0.34456148383E+03  0.65959267202E+03  0.40000000000E+03 0.  1.
<mgrwt>
<rscale>  2 0.56244100E+03</rscale>
<asrwt>0</asrwt>
<pdfrwt beam="1">  1       21 0.38439346E-01 0.56244100E+03</pdfrwt>
<pdfrwt beam="2">  1       21 0.20900457E+00 0.56244100E+03</pdfrwt>
<totfact> 0.60383155E+02</totfact>
</mgrwt>
</event>
<event>
 4    1  0.4716816E-002  0.5647251E+03  0.7818608E-02  0.9981420E-01
         21   -1    0    0  503  502  0.00000000000E+00  0.00000000000E+00  0.99455737501E+03  0.99455737501E+03  0.00000000000E+00 0. -1.
         21   -1    0    0  501  503 -0.00000000000E+00 -0.00000000000E+00 -0.32484555818E+03  0.32484555818E+03  0.00000000000E+00 0.  1.
    9000007    1    1    2  501    0  0.31944050726E+03 -0.23847894382E+03  0.25996957772E+03  0.62169013637E+03  0.40000000000E+03 0.  1.
   -9000007    1    1    2    0  502 -0.31944050726E+03  0.23847894382E+03  0.40974223912E+03  0.69771279682E+03  0.40000000000E+03 0.  1.
<mgrwt>
<rscale>  2 0.56472511E+03</rscale>
<asrwt>0</asrwt>
<pdfrwt beam="1">  1       21 0.15300883E+00 0.56472511E+03</pdfrwt>
<pdfrwt beam="2">  1       21 0.49976240E-01 0.56472511E+03</pdfrwt>
<totfact> 0.87217477E+02</totfact>
</mgrwt>
</event>
<event>
 4    1  0.4716816E-002  0.5608706E+03  0.7818608E-02  0.9990087E-01
         21   -1    0    0  503  502  0.00000000000E+00  0.00000000000E+00  0.71365774865E+03  0.71365774865E+03  0.00000000000E+00 0. -1.
         21   -1    0    0  501  503 -0.00000000000E+00 -0.00000000000E+00 -0.44322919530E+03  0.44322919530E+03  0.00000000000E+00 0. -1.
    9000007    1    1    2  501    0  0.17365751377E+03 -0.35273058232E+03  0.92335156993E+02  0.56842024683E+03  0.40000000000E+03 0. -1.
   -9000007    1    1    2    0  502 -0.17365751377E+03  0.35273058232E+03  0.17809339636E+03  0.58846669712E+03  0.40000000000E+03 0. -1.
<mgrwt>
<rscale>  2 0.56087057E+03</rscale>
<asrwt>0</asrwt>
<pdfrwt beam="1">  1       21 0.10979350E+00 0.56087057E+03</pdfrwt>
<pdfrwt beam="2">  1       21 0.68189107E-01 0.56087057E+03</pdfrwt>
<totfact> 0.10527548E+03</totfact>
</mgrwt>
</event>
<event>
 4    1  0.4716816E-002  0.6857056E+03  0.7818608E-02  0.9741995E-01
         21   -1    0    0  503  502  0.00000000000E+00  0.00000000000E+00  0.61724971795E+03  0.61724971795E+03  0.00000000000E+00 0.  1.
         21   -1    0    0  501  503 -0.00000000000E+00 -0.00000000000E+00 -0.95940926123E+03  0.95940926123E+03  0.00000000000E+00 0. -1.
    9000007    1    1    2  501    0 -0.46290257551E+03  0.30969879292E+03 -0.52889642690E+03  0.86598127412E+03  0.40000000000E+03 0. -1.
   -9000007    1    1    2    0  502  0.46290257551E+03 -0.30969879292E+03  0.18673688362E+03  0.71067770505E+03  0.40000000000E+03 0.  1.
<mgrwt>
<rscale>  2 0.68570558E+03</rscale>
<asrwt>0</asrwt>
<pdfrwt beam="1">  1       21 0.94961496E-01 0.68570558E+03</pdfrwt>
<pdfrwt beam="2">  1       21 0.14760142E+00 0.68570558E+03</pdfrwt>
<totfact> 0.21577609E+02</totfact>
</mgrwt>
</event>
<event>
 4    1  0.4716816E-002  0.6471158E+03  0.7818608E-02  0.9812206E-01
         21   -1    0    0  501  502  0.00000000000E+00  0.00000000000E+00  0.12417143320E+04  0.12417143320E+04  0.00000000000E+00 0. -1.
         21   -1    0    0  502  503 -0.00000000000E+00 -0.00000000000E+00 -0.33833783037E+03  0.33833783037E+03  0.00000000000E+00 0.  1.
    9000007    1    1    2  501    0  0.40593539708E+03 -0.30655383451E+03  0.49663993689E+03  0.81572668644E+03  0.40000000000E+03 0.  1.
   -9000007    1    1    2    0  503 -0.40593539708E+03  0.30655383451E+03  0.40673656472E+03  0.76432547592E+03  0.40000000000E+03 0. -1.
<mgrwt>
<rscale>  2 0.64711575E+03</rscale>
<asrwt>0</asrwt>
<pdfrwt beam="1">  1       21 0.19103297E+00 0.64711575E+03</pdfrwt>
<pdfrwt beam="2">  1       21 0.52051974E-01 0.64711575E+03</pdfrwt>
<totfact> 0.40907789E+02</totfact>
</mgrwt>
</event>
<event>
 4    1  0.4716816E-002  0.4409164E+03  0.7818608E-02  0.1030466E+00
         21   -1    0    0  503  502  0.00000000000E+00  0.00000000000E+00  0.11707583384E+04  0.11707583384E+04  0.00000000000E+00 0.  1.
         21   -1    0    0  501  503 -0.00000000000E+00 -0.00000000000E+00 -0.47105549547E+03  0.47105549547E+03  0.00000000000E+00 0.  1.
    9000007    1    1    2  501    0  0.14482436927E+02 -0.18492583324E+03 -0.31070505783E+03  0.53939311985E+03  0.40000000000E+03 0.  1.
   -9000007    1    1    2    0  502 -0.14482436927E+02  0.18492583324E+03  0.10104079008E+04  0.11024207140E+04  0.40000000000E+03 0.  1.
<mgrwt>
<rscale>  2 0.44091644E+03</rscale>
<asrwt>0</asrwt>
<pdfrwt beam="1">  1       21 0.18011667E+00 0.44091644E+03</pdfrwt>
<pdfrwt beam="2">  1       21 0.72470077E-01 0.44091644E+03</pdfrwt>
<totfact> 0.25562422E+02</totfact>
</mgrwt>
</event>
<event>
 4    1  0.4716816E-002  0.4420786E+03  0.7818608E-02  0.1030111E+00
         21   -1    0    0  501  502  0.00000000000E+00  0.00000000000E+00  0.54641741089E+03  0.54641741089E+03  0.00000000000E+00 0. -1.
         21   -1    0    0  502  503 -0.00000000000E+00 -0.00000000000E+00 -0.74635655430E+03  0.74635655430E+03  0.00000000000E+00 0. -1.
    9000007    1    1    2  501    0 -0.82852953867E+02 -0.16902317310E+03  0.36649958974E+03  0.57424332324E+03  0.40000000000E+03 0. -1.
   -9000007    1    1    2    0  503  0.82852953867E+02  0.16902317310E+03 -0.56643873314E+03  0.71853064194E+03  0.40000000000E+03 0. -1.
<mgrwt>
<rscale>  2 0.44207855E+03</rscale>
<asrwt>0</asrwt>
<pdfrwt beam="1">  1       21 0.84064217E-01 0.44207855E+03</pdfrwt>
<pdfrwt beam="2">  1       21 0.11482409E+00 0.44207855E+03</pdfrwt>
<totfact> 0.60975503E+02</totfact>
</mgrwt>
</event>
<event>
 4    1  0.4716816E-002  0.4326382E+03  0.7818608E-02  0.1033030E+00
         21   -1    0    0  503  502  0.00000000000E+00  0.00000000000E+00  0.24492529073E+03  0.24492529073E+03  0.00000000000E+00 0.  1.
         21   -1    0    0  501  503 -0.00000000000E+00 -0.00000000000E+00 -0.93097257343E+03  0.93097257343E+03  0.00000000000E+00 0.  1.
    9000007    1    1    2  501    0  0.15766690158E+03 -0.48134776707E+02 -0.59185936904E+03  0.73312571999E+03  0.40000000000E+03 0.  1.
   -9000007    1    1    2    0  502 -0.15766690158E+03  0.48134776707E+02 -0.94187913657E+02  0.44277214418E+03  0.40000000000E+03 0.  1.
<mgrwt>
<rscale>  2 0.43263820E+03</rscale>
<asrwt>0</asrwt>
<pdfrwt beam="1">  1       21 0.37680814E-01 0.43263820E+03</pdfrwt>
<pdfrwt beam="2">  1       21 0.14322655E+00 0.43263820E+03</pdfrwt>
<totfact> 0.19772423E+03</totfact>
</mgrwt>
</event>
<event>
 4    1  0.4716816E-002  0.4421243E+03  0.7818608E-02  0.1030097E+00
         21   -1    0    0  503  502  0.00000000000E+00  0.00000000000E+00  0.11194108817E+04  0.11194108817E+04  0.00000000000E+00 0. -1.
         21   -1    0    0  501  503 -0.00000000000E+00 -0.00000000000E+00 -0.41179339898E+03  0.41179339898E+03  0.00000000000E+00 0. -1.
    9000007    1    1    2  501    0 -0.12576421184E+03  0.14020430585E+03 -0.22721584509E+03  0.49709247089E+03  0.40000000000E+03 0. -1.
   -9000007    1    1    2    0  502  0.12576421184E+03 -0.14020430585E+03  0.93483332780E+03  0.10341118098E+04  0.40000000000E+03 0. -1.
<mgrwt>
<rscale>  2 0.44212429E+03</rscale>
<asrwt>0</asrwt>
<pdfrwt beam="1">  1       21 0.17221706E+00 0.44212429E+03</pdfrwt>
<pdfrwt beam="2">  1       21 0.63352831E-01 0.44212429E+03</pdfrwt>
<totfact> 0.39297430E+02</totfact>
</mgrwt>
</event>
<event>
 4    1  0.4716816E-002  0.4039712E+03  0.7818608E-02  0.1042413E+00
         21   -1    0    0  501  502  0.00000000000E+00  0.00000000000E+00  0.10812991324E+03  0.10812991324E+03  0.00000000000E+00 0.  1.
         21   -1    0    0  502  503 -0.00000000000E+00 -0.00000000000E+00 -0.18366246571E+04  0.18366246571E+04  0.00000000000E+00 0.  1.
    9000007    1    1    2  501    0 -0.30194614281E+02 -0.47760048600E+02 -0.45370172783E+03  0.60748497497E+03  0.40000000000E+03 0.  1.
   -9000007    1    1    2    0  503  0.30194614281E+02  0.47760048600E+02 -0.12747930160E+04  0.13372695954E+04  0.40000000000E+03 0.  1.
<mgrwt>
<rscale>  2 0.40397121E+03</rscale>
<asrwt>0</asrwt>
<pdfrwt beam="1">  1       21 0.16635371E-01 0.40397121E+03</pdfrwt>
<pdfrwt beam="2">  1       21 0.28255764E+00 0.40397121E+03</pdfrwt>
<totfact> 0.11660593E+03</totfact>
</mgrwt>
</event>
<event>
 4    1  0.4716816E-002  0.6435956E+03  0.7818608E-02  0.9818871E-01
         21   -1    0    0  501  502  0.00000000000E+00  0.00000000000E+00  0.59808179786E+03  0.59808179786E+03  0.00000000000E+00 0.  1.
         21   -1    0    0  502  503 -0.00000000000E+00 -0.00000000000E+00 -0.12680057518E+04  0.12680057518E+04  0.00000000000E+00 0. -1.
    9000007    1    1    2  501    0  0.33932057691E+03 -0.37293003736E+03  0.29358641622E+03  0.70739539896E+03  0.40000000000E+03 0.  1.
   -9000007    1    1    2    0  503 -0.33932057691E+03  0.37293003736E+03 -0.96351037011E+03  0.11586921507E+04  0.40000000000E+03 0. -1.
<mgrwt>
<rscale>  2 0.64359558E+03</rscale>
<asrwt>0</asrwt>
<pdfrwt beam="1">  1       21 0.92012586E-01 0.64359558E+03</pdfrwt>
<pdfrwt beam="2">  1       21 0.19507781E+00 0.64359558E+03</pdfrwt>
<totfact> 0.10540636E+02</totfact>
</mgrwt>
</event>
<event>
 4    1  0.4716816E-002  0.4097147E+03  0.7818608E-02  0.1040467E+00
         21   -1    0    0  501  502  0.00000000000E+00  0.00000000000E+00  0.33765601746E+03  0.33765601746E+03  0.00000000000E+00 0.  1.
         21   -1    0    0  502  503 -0.00000000000E+00 -0.00000000000E+00 -0.51869335306E+03  0.51869335306E+03  0.00000000000E+00 0.  1.
    9000007    1    1    2  501    0  0.50125085815E+02  0.73168487536E+02 -0.32600193113E+01  0.40972768947E+03  0.40000000000E+03 0. -1.
   -9000007    1    1    2    0  503 -0.50125085815E+02 -0.73168487536E+02 -0.17777731628E+03  0.44662168105E+03  0.40000000000E+03 0. -1.
<mgrwt>
<rscale>  2 0.40971472E+03</rscale>
<asrwt>0</asrwt>
<pdfrwt beam="1">  1       21 0.51947080E-01 0.40971472E+03</pdfrwt>
<pdfrwt beam="2">  1       21 0.79798977E-01 0.40971472E+03</pdfrwt>
<totfact> 0.43279380E+03</totfact>
</mgrwt>
</event>
<event>
 4    1  0.4716816E-002  0.4026659E+03  0.7818608E-02  0.1042860E+00
         21   -1    0    0  503  502  0.00000000000E+00  0.00000000000E+00  0.15503616470E+03  0.15503616470E+03  0.00000000000E+00 0. -1.
         21   -1    0    0  501  503 -0.00000000000E+00 -0.00000000000E+00 -0.11018507317E+04  0.11018507317E+04  0.00000000000E+00 0. -1.
    9000007    1    1    2  501    0  0.33142036595E+02 -0.32271112468E+02 -0.33169074718E+03  0.52168819332E+03  0.40000000000E+03 0. -1.
   -9000007    1    1    2    0  502 -0.33142036595E+02  0.32271112468E+02 -0.61512381984E+03  0.73519870309E+03  0.40000000000E+03 0. -1.
<mgrwt>
<rscale>  2 0.40266589E+03</rscale>
<asrwt>0</asrwt>
<pdfrwt beam="1">  1       21 0.23851717E-01 0.40266589E+03</pdfrwt>
<pdfrwt beam="2">  1       21 0.16951550E+00 0.40266589E+03</pdfrwt>
<totfact> 0.31213718E+03</totfact>
</mgrwt>
</event>
<event>
 4    1  0.4716816E-002  0.5342963E+03  0.7818608E-02  0.1005195E+00
         21   -1    0    0  503  502  0.00000000000E+00  0.00000000000E+00  0.75041981224E+03  0.75041981224E+03  0.00000000000E+00 0. -1.
         21   -1    0    0  501  503 -0.00000000000E+00 -0.00000000000E+00 -0.38043806069E+03  0.38043806069E+03  0.00000000000E+00 0. -1.
    9000007    1    1    2  501    0  0.74548990457E+02  0.34628744267E+03  0.18079603583E+03  0.56405651446E+03  0.40000000000E+03 0. -1.
   -9000007    1    1    2    0  502 -0.74548990457E+02 -0.34628744267E+03  0.18918571572E+03  0.56680135847E+03  0.40000000000E+03 0. -1.
<mgrwt>
<rscale>  2 0.53429631E+03</rscale>
<asrwt>0</asrwt>
<pdfrwt beam="1">  1       21 0.11544920E+00 0.53429631E+03</pdfrwt>
<pdfrwt beam="2">  1       21 0.58528933E-01 0.53429631E+03</pdfrwt>
<totfact> 0.13147801E+03</totfact>
</mgrwt>
</event>
<event>
 4    1  0.4716816E-002  0.4946887E+03  0.7818608E-02  0.1015175E+00
         21   -1    0    0  503  502  0.00000000000E+00  0.00000000000E+00  0.55003598810E+03  0.55003598810E+03  0.00000000000E+00 0. -1.
         21   -1    0    0  501  503 -0.00000000000E+00 -0.00000000000E+00 -0.52470556108E+03  0.52470556108E+03  0.00000000000E+00 0. -1.
    9000007    1    1    2  501    0 -0.21916402245E+02 -0.29023538169E+03 -0.19689248820E+03  0.53243173964E+03  0.40000000000E+03 0.  1.
   -9000007    1    1    2    0  502  0.21916402245E+02  0.29023538169E+03  0.22222291522E+03  0.54230980954E+03  0.40000000000E+03 0.  1.
<mgrwt>
<rscale>  2 0.49468870E+03</rscale>
<asrwt>0</asrwt>
<pdfrwt beam="1">  1       21 0.84620921E-01 0.49468870E+03</pdfrwt>
<pdfrwt beam="2">  1       21 0.80723933E-01 0.49468870E+03</pdfrwt>
<totfact> 0.13744017E+03</totfact>
</mgrwt>
</event>
<event>
 4    1  0.4716816E-002  0.4158177E+03  0.7818608E-02  0.1038436E+00
         21   -1    0    0  501  502  0.00000000000E+00  0.00000000000E+00  0.17704653265E+04  0.17704653265E+04  0.00000000000E+00 0.  1.
         21   -1    0    0  502  503 -0.00000000000E+00 -0.00000000000E+00 -0.10246098702E+03  0.10246098702E+03  0.00000000000E+00 0.  1.
    9000007    1    1    2  501    0 -0.79936191112E+02  0.80712772004E+02  0.10367045033E+04  0.11169872753E+04  0.40000000000E+03 0.  1.
   -9000007    1    1    2    0  503  0.79936191112E+02 -0.80712772004E+02  0.63129983624E+03  0.75593903818E+03  0.40000000000E+03 0.  1.
<mgrwt>
<rscale>  2 0.41581768E+03</rscale>
<asrwt>0</asrwt>
<pdfrwt beam="1">  1       21 0.27237926E+00 0.41581768E+03</pdfrwt>
<pdfrwt beam="2">  1       21 0.15763230E-01 0.41581768E+03</pdfrwt>
<totfact> 0.14741271E+03</totfact>
</mgrwt>
</event>
<event>
 4    1  0.4716816E-002  0.5110235E+03  0.7818608E-02  0.1010941E+00
         21   -1    0    0  501  502  0.00000000000E+00  0.00000000000E+00  0.33461792776E+03  0.33461792776E+03  0.00000000000E+00 0.  1.
         21   -1    0    0  502  503 -0.00000000000E+00 -0.00000000000E+00 -0.85446235403E+03  0.85446235403E+03  0.00000000000E+00 0.  1.
    9000007    1    1    2  501    0  0.31773909473E+03 -0.13672342109E+02 -0.84916372548E+02  0.51803074772E+03  0.40000000000E+03 0.  1.
   -9000007    1    1    2    0  503 -0.31773909473E+03  0.13672342109E+02 -0.43492805373E+03  0.67104953407E+03  0.40000000000E+03 0.  1.
<mgrwt>
<rscale>  2 0.51102355E+03</rscale>
<asrwt>0</asrwt>
<pdfrwt beam="1">  1       21 0.51479681E-01 0.51102355E+03</pdfrwt>
<pdfrwt beam="2">  1       21 0.13145575E+00 0.51102355E+03</pdfrwt>
<totfact> 0.12534833E+03</totfact>
</mgrwt>
</event>
<event>
 4    1  0.4716816E-002  0.4191314E+03  0.7818608E-02  0.1037349E+00
         21   -1    0    0  501  502  0.00000000000E+00  0.00000000000E+00  0.58145511331E+03  0.58145511331E+03  0.00000000000E+00 0.  1.
         21   -1    0    0  502  503 -0.00000000000E+00 -0.00000000000E+00 -0.44273185509E+03  0.44273185509E+03  0.00000000000E+00 0.  1.
    9000007    1    1    2  501    0  0.90545121000E+02  0.86445022450E+02  0.35795388663E+03  0.55118249773E+03  0.40000000000E+03 0.  1.
   -9000007    1    1    2    0  503 -0.90545121000E+02 -0.86445022450E+02 -0.21923062841E+03  0.47300447067E+03  0.40000000000E+03 0.  1.
<mgrwt>
<rscale>  2 0.41913144E+03</rscale>
<asrwt>0</asrwt>
<pdfrwt beam="1">  1       21 0.89454633E-01 0.41913144E+03</pdfrwt>
<pdfrwt beam="2">  1       21 0.68112593E-01 0.41913144E+03</pdfrwt>
<totfact> 0.18278521E+03</totfact>
</mgrwt>
</event>
<event>
 4    1  0.4716816E-002  0.5143526E+03  0.7818608E-02  0.1010099E+00
         21   -1    0    0  501  502  0.00000000000E+00  0.00000000000E+00  0.91727044372E+03  0.91727044372E+03  0.00000000000E+00 0.  1.
         21   -1    0    0  502  503 -0.00000000000E+00 -0.00000000000E+00 -0.28865276654E+03  0.28865276654E+03  0.00000000000E+00 0.  1.
    9000007    1    1    2  501    0 -0.28880828387E+03 -0.14542493645E+03  0.33145135091E+03  0.61189756904E+03  0.40000000000E+03 0.  1.
   -9000007    1    1    2    0  503  0.28880828387E+03  0.14542493645E+03  0.29716632626E+03  0.59402564123E+03  0.40000000000E+03 0.  1.
<mgrwt>
<rscale>  2 0.51435264E+03</rscale>
<asrwt>0</asrwt>
<pdfrwt beam="1">  1       21 0.14111853E+00 0.51435264E+03</pdfrwt>
<pdfrwt beam="2">  1       21 0.44408118E-01 0.51435264E+03</pdfrwt>
<totfact> 0.14196835E+03</totfact>
</mgrwt>
</event>
<event>
 4    1  0.4716816E-002  0.5428688E+03  0.7818608E-02  0.1003158E+00
         21   -1    0    0  503  502  0.00000000000E+00  0.00000000000E+00  0.12431616183E+04  0.12431616183E+04  0.00000000000E+00 0. -1.
         21   -1    0    0  501  503 -0.00000000000E+00 -0.00000000000E+00 -0.33929311877E+03  0.33929311877E+03  0.00000000000E+00 0. -1.
    9000007    1    1    2  501    0  0.34950150166E+03 -0.11205005919E+03  0.17618978845E+02  0.54315462241E+03  0.40000000000E+03 0. -1.
   -9000007    1    1    2    0  502 -0.34950150166E+03  0.11205005919E+03  0.88624952067E+03  0.10393001146E+04  0.40000000000E+03 0. -1.
<mgrwt>
<rscale>  2 0.54286878E+03</rscale>
<asrwt>0</asrwt>
<pdfrwt beam="1">  1       21 0.19125563E+00 0.54286878E+03</pdfrwt>
<pdfrwt beam="2">  1       21 0.52198942E-01 0.54286878E+03</pdfrwt>
<totfact> 0.42091258E+02</totfact>
</mgrwt>
</event>
<event>
 4    1  0.4716816E-002  0.4199953E+03  0.7818608E-02  0.1037068E+00
         21   -1    0    0  501  502  0.00000000000E+00  0.00000000000E+00  0.13258796172E+03  0.13258796172E+03  0.00000000000E+00 0. -1.
         21   -1    0    0  502  503 -0.00000000000E+00 -0.00000000000E+00 -0.15687935715E+04  0.15687935715E+04  0.00000000000E+00 0. -1.
    9000007    1    1    2  501    0  0.70665160459E+01 -0.12785203347E+03 -0.38649186578E+03  0.57076443514E+03  0.40000000000E+03 0. -1.
   -9000007    1    1    2    0  503 -0.70665160459E+01  0.12785203347E+03 -0.10497137440E+04  0.11306170981E+04  0.40000000000E+03 0. -1.
<mgrwt>
<rscale>  2 0.41999533E+03</rscale>
<asrwt>0</asrwt>
<pdfrwt beam="1">  1       21 0.20398149E-01 0.41999533E+03</pdfrwt>
<pdfrwt beam="2">  1       21 0.24135284E+00 0.41999533E+03</pdfrwt>
<totfact> 0.13994376E+03</totfact>
</mgrwt>
</event>
<event>
 4    1  0.4716816E-002  0.4455301E+03  0.7818608E-02  0.1029063E+00
         21   -1    0    0  503  502  0.00000000000E+00  0.00000000000E+00  0.47212056096E+03  0.47212056096E+03  0.00000000000E+00 0. -1.
         21   -1    0    0  501  503 -0.00000000000E+00 -0.00000000000E+00 -0.50114683234E+03  0.50114683234E+03  0.00000000000E+00 0. -1.
    9000007    1    1    2  501    0  0.18639577260E+03 -0.61267492249E+02 -0.20980408795E+03  0.49245796264E+03  0.40000000000E+03 0. -1.
   -9000007    1    1    2    0  502 -0.18639577260E+03  0.61267492249E+02  0.18077781656E+03  0.48080943066E+03  0.40000000000E+03 0. -1.
<mgrwt>
<rscale>  2 0.44553012E+03</rscale>
<asrwt>0</asrwt>
<pdfrwt beam="1">  1       21 0.72633933E-01 0.44553012E+03</pdfrwt>
<pdfrwt beam="2">  1       21 0.77099512E-01 0.44553012E+03</pdfrwt>
<totfact> 0.22120164E+03</totfact>
</mgrwt>
</event>
<event>
 4    1  0.4716816E-002  0.4270416E+03  0.7818608E-02  0.1034799E+00
         21   -1    0    0  503  502  0.00000000000E+00  0.00000000000E+00  0.42508490413E+03  0.42508490413E+03  0.00000000000E+00 0. -1.
         21   -1    0    0  501  503 -0.00000000000E+00 -0.00000000000E+00 -0.95474487034E+03  0.95474487034E+03  0.00000000000E+00 0. -1.
    9000007    1    1    2  501    0 -0.55072965330E+01 -0.14944626845E+03 -0.77679037837E+03  0.88643545135E+03  0.40000000000E+03 0. -1.
   -9000007    1    1    2    0  502  0.55072965330E+01  0.14944626845E+03  0.24713041217E+03  0.49339432312E+03  0.40000000000E+03 0. -1.
<mgrwt>
<rscale>  2 0.42704159E+03</rscale>
<asrwt>0</asrwt>
<pdfrwt beam="1">  1       21 0.65397679E-01 0.42704159E+03</pdfrwt>
<pdfrwt beam="2">  1       21 0.14688382E+00 0.42704159E+03</pdfrwt>
<totfact> 0.57369632E+02</totfact>
</mgrwt>
</event>
<event>
 4    1  0.4716816E-002  0.4529556E+03  0.7818608E-02  0.1026844E+00
         21   -1    0    0  503  502  0.00000000000E+00  0.00000000000E+00  0.36038689953E+03  0.36038689953E+03  0.00000000000E+00 0. -1.
         21   -1    0    0  501  503 -0.00000000000E+00 -0.00000000000E+00 -0.61601704416E+03  0.61601704416E+03  0.00000000000E+00 0. -1.
    9000007    1    1    2  501    0 -0.14949847339E+03 -0.15105952861E+03 -0.26225684459E+03  0.52339987320E+03  0.40000000000E+03 0. -1.
   -9000007    1    1    2    0  502  0.14949847339E+03  0.15105952861E+03  0.66266999546E+01  0.45300407049E+03  0.40000000000E+03 0. -1.
<mgrwt>
<rscale>  2 0.45295560E+03</rscale>
<asrwt>0</asrwt>
<pdfrwt beam="1">  1       21 0.55444138E-01 0.45295560E+03</pdfrwt>
<pdfrwt beam="2">  1       21 0.94771853E-01 0.45295560E+03</pdfrwt>
<totfact> 0.24728774E+03</totfact>
</mgrwt>
</event>
<event>
 4    1  0.4716816E-002  0.4112865E+03  0.7818608E-02  0.1039940E+00
         21   -1    0    0  501  502  0.00000000000E+00  0.00000000000E+00  0.24205424833E+03  0.24205424833E+03  0.00000000000E+00 0. -1.
         21   -1    0    0  502  503 -0.00000000000E+00 -0.00000000000E+00 -0.70175817099E+03  0.70175817099E+03  0.00000000000E+00 0. -1.
    9000007    1    1    2  501    0  0.50530200826E+02  0.81260771888E+02 -0.19940846526E+03  0.45707805708E+03  0.40000000000E+03 0. -1.
   -9000007    1    1    2    0  503 -0.50530200826E+02 -0.81260771888E+02 -0.26029545741E+03  0.48673436224E+03  0.40000000000E+03 0. -1.
<mgrwt>
<rscale>  2 0.41128654E+03</rscale>
<asrwt>0</asrwt>
<pdfrwt beam="1">  1       21 0.37239115E-01 0.41128654E+03</pdfrwt>
<pdfrwt beam="2">  1       21 0.10796280E+00 0.41128654E+03</pdfrwt>
<totfact> 0.42125451E+03</totfact>
</mgrwt>
</event>
<event>
 4    1  0.4716816E-002  0.5259601E+03  0.7818608E-02  0.1007217E+00
         21   -1    0    0  501  502  0.00000000000E+00  0.00000000000E+00  0.15877032372E+03  0.15877032372E+03  0.00000000000E+00 0.  1.
         21   -1    0    0  502  503 -0.00000000000E+00 -0.00000000000E+00 -0.19669547832E+04  0.19669547832E+04  0.00000000000E+00 0.  1.
    9000007    1    1    2  501    0 -0.30919869602E+03  0.14501798716E+03 -0.54493393006E+03  0.75735529202E+03  0.40000000000E+03 0.  1.
   -9000007    1    1    2    0  503  0.30919869602E+03 -0.14501798716E+03 -0.12632505294E+04  0.13683698149E+04  0.40000000000E+03 0.  1.
<mgrwt>
<rscale>  2 0.52596012E+03</rscale>
<asrwt>0</asrwt>
<pdfrwt beam="1">  1       21 0.24426204E-01 0.52596012E+03</pdfrwt>
<pdfrwt beam="2">  1       21 0.30260843E+00 0.52596012E+03</pdfrwt>
<totfact> 0.39792870E+02</totfact>
</mgrwt>
</event>
<event>
 4    1  0.4716816E-002  0.5000911E+03  0.7818608E-02  0.1013755E+00
         21   -1    0    0  503  502  0.00000000000E+00  0.00000000000E+00  0.24928416231E+03  0.24928416231E+03  0.00000000000E+00 0.  1.
         21   -1    0    0  501  503 -0.00000000000E+00 -0.00000000000E+00 -0.13458159681E+04  0.13458159681E+04  0.00000000000E+00 0. -1.
    9000007    1    1    2  501    0 -0.12098403659E+02  0.29990791824E+03 -0.95065423039E+03  0.10741669314E+04  0.40000000000E+03 0. -1.
   -9000007    1    1    2    0  502  0.12098403659E+02 -0.29990791824E+03 -0.14587757539E+03  0.52093319898E+03  0.40000000000E+03 0.  1.
<mgrwt>
<rscale>  2 0.50009112E+03</rscale>
<asrwt>0</asrwt>
<pdfrwt beam="1">  1       21 0.38351409E-01 0.50009112E+03</pdfrwt>
<pdfrwt beam="2">  1       21 0.20704861E+00 0.50009112E+03</pdfrwt>
<totfact> 0.64091943E+02</totfact>
</mgrwt>
</event>
<event>
 4    1  0.4716816E-002  0.5268959E+03  0.7818608E-02  0.1006988E+00
         21   -1    0    0  503  502  0.00000000000E+00  0.00000000000E+00  0.14524798880E+03  0.14524798880E+03  0.00000000000E+00 0.  1.
         21   -1    0    0  501  503 -0.00000000000E+00 -0.00000000000E+00 -0.19334234189E+04  0.19334234189E+04  0.00000000000E+00 0. -1.
    9000007    1    1    2  501    0  0.34201386988E+03 -0.25412257643E+02 -0.10051481118E+04  0.11348753220E+04  0.40000000000E+03 0.  1.
   -9000007    1    1    2    0  502 -0.34201386988E+03  0.25412257643E+02 -0.78302731833E+03  0.94379608565E+03  0.40000000000E+03 0. -1.
<mgrwt>
<rscale>  2 0.52689588E+03</rscale>
<asrwt>0</asrwt>
<pdfrwt beam="1">  1       21 0.22345846E-01 0.52689588E+03</pdfrwt>
<pdfrwt beam="2">  1       21 0.29744974E+00 0.52689588E+03</pdfrwt>
<totfact> 0.50790887E+02</totfact>
</mgrwt>
</event>
<event>
 4    1  0.4716816E-002  0.4517924E+03  0.7818608E-02  0.1027189E+00
         21   -1    0    0  503  502  0.00000000000E+00  0.00000000000E+00  0.54666055271E+03  0.54666055271E+03  0.00000000000E+00 0.  1.
         21   -1    0    0  501  503 -0.00000000000E+00 -0.00000000000E+00 -0.42096806953E+03  0.42096806953E+03  0.00000000000E+00 0.  1.
    9000007    1    1    2  501    0  0.39381880031E+02 -0.20631383155E+03 -0.99808980895E+02  0.46268581373E+03  0.40000000000E+03 0.  1.
   -9000007    1    1    2    0  502 -0.39381880031E+02  0.20631383155E+03  0.22550146407E+03  0.50494280850E+03  0.40000000000E+03 0.  1.
<mgrwt>
<rscale>  2 0.45179235E+03</rscale>
<asrwt>0</asrwt>
<pdfrwt beam="1">  1       21 0.84101624E-01 0.45179235E+03</pdfrwt>
<pdfrwt beam="2">  1       21 0.64764318E-01 0.45179235E+03</pdfrwt>
<totfact> 0.23344760E+03</totfact>
</mgrwt>
</event>
<event>
 4    1  0.4716816E-002  0.5070905E+03  0.7818608E-02  0.1011945E+00
         21   -1    0    0  503  502  0.00000000000E+00  0.00000000000E+00  0.77521828755E+03  0.77521828755E+03  0.00000000000E+00 0. -1.
         21   -1    0    0  501  503 -0.00000000000E+00 -0.00000000000E+00 -0.60193557259E+03  0.60193557259E+03  0.00000000000E+00 0. -1.
    9000007    1    1    2  501    0 -0.24547665956E+03  0.19204678267E+03 -0.37472703617E+03  0.63052447118E+03  0.40000000000E+03 0. -1.
   -9000007    1    1    2    0  502  0.24547665956E+03 -0.19204678267E+03  0.54800975113E+03  0.74662938896E+03  0.40000000000E+03 0. -1.
<mgrwt>
<rscale>  2 0.50709048E+03</rscale>
<asrwt>0</asrwt>
<pdfrwt beam="1">  1       21 0.11926435E+00 0.50709048E+03</pdfrwt>
<pdfrwt beam="2">  1       21 0.92605472E-01 0.50709048E+03</pdfrwt>
<totfact> 0.42885598E+02</totfact>
</mgrwt>
</event>
<event>
 4    1  0.4716816E-002  0.6474653E+03  0.7818608E-02  0.9811547E-01
         21   -1    0    0  503  502  0.00000000000E+00  0.00000000000E+00  0.44100252313E+03  0.44100252313E+03  0.00000000000E+00 0. -1.
         21   -1    0    0  501  503 -0.00000000000E+00 -0.00000000000E+00 -0.15510479172E+04  0.15510479172E+04  0.00000000000E+00 0.  1.
    9000007    1    1    2  501    0  0.90731474242E+02 -0.50097821397E+03 -0.11747491205E+04  0.13413600812E+04  0.40000000000E+03 0.  1.
   -9000007    1    1    2    0  502 -0.90731474242E+02  0.50097821397E+03  0.64703726417E+02  0.65069035916E+03  0.40000000000E+03 0. -1.
<mgrwt>
<rscale>  2 0.64746534E+03</rscale>
<asrwt>0</asrwt>
<pdfrwt beam="1">  1       21 0.67846543E-01 0.64746534E+03</pdfrwt>
<pdfrwt beam="2">  1       21 0.23862275E+00 0.64746534E+03</pdfrwt>
<totfact> 0.11086825E+02</totfact>
</mgrwt>
</event>
<event>
 4    1  0.4716816E-002  0.4032769E+03  0.7818608E-02  0.1042651E+00
         21   -1    0    0  503  502  0.00000000000E+00  0.00000000000E+00  0.44307399166E+03  0.44307399166E+03  0.00000000000E+00 0.  1.
         21   -1    0    0  501  503 -0.00000000000E+00 -0.00000000000E+00 -0.36706610775E+03  0.36706610775E+03  0.00000000000E+00 0.  1.
    9000007    1    1    2  501    0  0.47038095232E+01  0.51089111301E+02  0.40299334595E+02  0.40528540498E+03  0.40000000000E+03 0.  1.
   -9000007    1    1    2    0  502 -0.47038095232E+01 -0.51089111301E+02  0.35708549313E+02  0.40485469444E+03  0.40000000000E+03 0.  1.
<mgrwt>
<rscale>  2 0.40327686E+03</rscale>
<asrwt>0</asrwt>
<pdfrwt beam="1">  1       21 0.68165229E-01 0.40327686E+03</pdfrwt>
<pdfrwt beam="2">  1       21 0.56471709E-01 0.40327686E+03</pdfrwt>
<totfact> 0.51839336E+03</totfact>
</mgrwt>
</event>
<event>
 4    1  0.4716816E-002  0.4294366E+03  0.7818608E-02  0.1034038E+00
         21   -1    0    0  501  502  0.00000000000E+00  0.00000000000E+00  0.52638993810E+03  0.52638993810E+03  0.00000000000E+00 0.  1.
         21   -1    0    0  502  503 -0.00000000000E+00 -0.00000000000E+00 -0.39334401141E+03  0.39334401141E+03  0.00000000000E+00 0. -1.
    9000007    1    1    2  501    0  0.59921971605E+01 -0.15614057934E+03  0.21857674001E+03  0.48186261342E+03  0.40000000000E+03 0.  1.
   -9000007    1    1    2    0  503 -0.59921971605E+01  0.15614057934E+03 -0.85530813322E+02  0.43787133609E+03  0.40000000000E+03 0. -1.
<mgrwt>
<rscale>  2 0.42943659E+03</rscale>
<asrwt>0</asrwt>
<pdfrwt beam="1">  1       21 0.80983067E-01 0.42943659E+03</pdfrwt>
<pdfrwt beam="2">  1       21 0.60514463E-01 0.42943659E+03</pdfrwt>
<totfact> 0.29850239E+03</totfact>
</mgrwt>
</event>
<event>
 4    1  0.4716816E-002  0.4654202E+03  0.7818608E-02  0.1023221E+00
         21   -1    0    0  501  502  0.00000000000E+00  0.00000000000E+00  0.58243432772E+03  0.58243432772E+03  0.00000000000E+00 0. -1.
         21   -1    0    0  502  503 -0.00000000000E+00 -0.00000000000E+00 -0.43030239338E+03  0.43030239338E+03  0.00000000000E+00 0.  1.
    9000007    1    1    2  501    0 -0.15006468226E+03  0.18465246546E+03  0.26259223390E+03  0.53438808292E+03  0.40000000000E+03 0. -1.
   -9000007    1    1    2    0  503  0.15006468226E+03 -0.18465246546E+03 -0.11046029956E+03  0.47834863817E+03  0.40000000000E+03 0.  1.
<mgrwt>
<rscale>  2 0.46542018E+03</rscale>
<asrwt>0</asrwt>
<pdfrwt beam="1">  1       21 0.89605282E-01 0.46542018E+03</pdfrwt>
<pdfrwt beam="2">  1       21 0.66200368E-01 0.46542018E+03</pdfrwt>
<totfact> 0.19058301E+03</totfact>
</mgrwt>
</event>
<event>
 4    1  0.4716816E-002  0.5363934E+03  0.7818608E-02  0.1004693E+00
         21   -1    0    0  501  502  0.00000000000E+00  0.00000000000E+00  0.19719151752E+03  0.19719151752E+03  0.00000000000E+00 0. -1.
         21   -1    0    0  502  503 -0.00000000000E+00 -0.00000000000E+00 -0.14707171572E+04  0.14707171572E+04  0.00000000000E+00 0. -1.
    9000007    1    1    2  501    0 -0.18503921797E+03 -0.30574235493E+03 -0.71095010705E+03  0.89059977235E+03  0.40000000000E+03 0. -1.
   -9000007    1    1    2    0  503  0.18503921797E+03  0.30574235493E+03 -0.56257553261E+03  0.77730890235E+03  0.40000000000E+03 0. -1.
<mgrwt>
<rscale>  2 0.53639342E+03</rscale>
<asrwt>0</asrwt>
<pdfrwt beam="1">  1       21 0.30337158E-01 0.53639342E+03</pdfrwt>
<pdfrwt beam="2">  1       21 0.22626417E+00 0.53639342E+03</pdfrwt>
<totfact> 0.76178196E+02</totfact>
</mgrwt>
</event>
<event>
 4    1  0.4716816E-002  0.4228592E+03  0.7818608E-02  0.1036140E+00
         21   -1    0    0  501  502  0.00000000000E+00  0.00000000000E+00  0.24238566148E+03  0.24238566148E+03  0.00000000000E+00 0.  1.
         21   -1    0    0  502  503 -0.00000000000E+00 -0.00000000000E+00 -0.74059131226E+03  0.74059131226E+03  0.00000000000E+00 0.  1.
    9000007    1    1    2  501    0 -0.68795345818E+02  0.11864697171E+03 -0.27976836667E+03  0.50703081020E+03  0.40000000000E+03 0.  1.
   -9000007    1    1    2    0  503  0.68795345818E+02 -0.11864697171E+03 -0.21843728411E+03  0.47594616354E+03  0.40000000000E+03 0.  1.
<mgrwt>
<rscale>  2 0.42285920E+03</rscale>
<asrwt>0</asrwt>
<pdfrwt beam="1">  1       21 0.37290102E-01 0.42285920E+03</pdfrwt>
<pdfrwt beam="2">  1       21 0.11393712E+00 0.42285920E+03</pdfrwt>
<totfact> 0.36597326E+03</totfact>
</mgrwt>
</event>
<event>
 4    1  0.4716816E-002  0.5822811E+03  0.7818608E-02  0.9942865E-01
         21   -1    0    0  501  502  0.00000000000E+00  0.00000000000E+00  0.96188262031E+03  0.96188262031E+03  0.00000000000E+00 0. -1.
         21   -1    0    0  502  503 -0.00000000000E+00 -0.00000000000E+00 -0.36452683934E+03  0.36452683934E+03  0.00000000000E+00 0. -1.
    9000007    1    1    2  501    0  0.94626362602E+02 -0.41242837433E+03  0.41920634336E+03  0.71748538018E+03  0.40000000000E+03 0. -1.
   -9000007    1    1    2    0  503 -0.94626362602E+02  0.41242837433E+03  0.17814943761E+03  0.60892407948E+03  0.40000000000E+03 0. -1.
<mgrwt>
<rscale>  2 0.58228113E+03</rscale>
<asrwt>0</asrwt>
<pdfrwt beam="1">  1       21 0.14798194E+00 0.58228113E+03</pdfrwt>
<pdfrwt beam="2">  1       21 0.56081053E-01 0.58228113E+03</pdfrwt>
<totfact> 0.74092316E+02</totfact>
</mgrwt>
</event>
<event>
 4    1  0.4716816E-002  0.7011545E+03  0.7818608E-02  0.9715260E-01
         21   -1    0    0  503  502  0.00000000000E+00  0.00000000000E+00  0.13121892986E+04  0.13121892986E+04  0.00000000000E+00 0.  1.
         21   -1    0    0  501  503 -0.00000000000E+00 -0.00000000000E+00 -0.99009381246E+03  0.99009381246E+03  0.00000000000E+00 0. -1.
    9000007    1    1    2  501    0 -0.55825417635E+03  0.14131472008E+03 -0.74652864667E+03  0.10241692223E+04  0.40000000000E+03 0. -1.
   -9000007    1    1    2    0  502  0.55825417635E+03 -0.14131472008E+03  0.10686241328E+04  0.12781138888E+04  0.40000000000E+03 0.  1.
<mgrwt>
<rscale>  2 0.70115446E+03</rscale>
<asrwt>0</asrwt>
<pdfrwt beam="1">  1       21 0.20187528E+00 0.70115446E+03</pdfrwt>
<pdfrwt beam="2">  1       21 0.15232212E+00 0.70115446E+03</pdfrwt>
<totfact> 0.25376424E+01</totfact>
</mgrwt>
</event>
<event>
 4    1  0.4716816E-002  0.4297403E+03  0.7818608E-02  0.1033942E+00
         21   -1    0    0  501  502  0.00000000000E+00  0.00000000000E+00  0.16384217479E+03  0.16384217479E+03  0.00000000000E+00 0.  1.
         21   -1    0    0  502  503 -0.00000000000E+00 -0.00000000000E+00 -0.13518143831E+04  0.13518143831E+04  0.00000000000E+00 0. -1.
    9000007    1    1    2  501    0  0.15663114412E+03  0.11974289591E+02 -0.28505072929E+03  0.51568461019E+03  0.40000000000E+03 0.  1.
   -9000007    1    1    2    0  503 -0.15663114412E+03 -0.11974289591E+02 -0.90292147904E+03  0.99997194772E+03  0.40000000000E+03 0. -1.
<mgrwt>
<rscale>  2 0.42974027E+03</rscale>
<asrwt>0</asrwt>
<pdfrwt beam="1">  1       21 0.25206489E-01 0.42974027E+03</pdfrwt>
<pdfrwt beam="2">  1       21 0.20797144E+00 0.42974027E+03</pdfrwt>
<totfact> 0.15086097E+03</totfact>
</mgrwt>
</event>
<event>
 4    1  0.4716816E-002  0.5204666E+03  0.7818608E-02  0.1008571E+00
         21   -1    0    0  501  502  0.00000000000E+00  0.00000000000E+00  0.18122715564E+03  0.18122715564E+03  0.00000000000E+00 0.  1.
         21   -1    0    0  502  503 -0.00000000000E+00 -0.00000000000E+00 -0.21673122174E+04  0.21673122174E+04  0.00000000000E+00 0. -1.
    9000007    1    1    2  501    0  0.14400566944E+03 -0.30024627568E+03 -0.33888827658E+03  0.62107223646E+03  0.40000000000E+03 0.  1.
   -9000007    1    1    2    0  503 -0.14400566944E+03  0.30024627568E+03 -0.16471967852E+04  0.17274671366E+04  0.40000000000E+03 0. -1.
<mgrwt>
<rscale>  2 0.52046658E+03</rscale>
<asrwt>0</asrwt>
<pdfrwt beam="1">  1       21 0.27881102E-01 0.52046658E+03</pdfrwt>
<pdfrwt beam="2">  1       21 0.33343264E+00 0.52046658E+03</pdfrwt>
<totfact> 0.20000936E+02</totfact>
</mgrwt>
</event>
<event>
 4    1  0.4716816E-002  0.6541112E+03  0.7818608E-02  0.9799095E-01
         21   -1    0    0  503  502  0.00000000000E+00  0.00000000000E+00  0.11622437904E+04  0.11622437904E+04  0.00000000000E+00 0.  1.
         21   -1    0    0  501  503 -0.00000000000E+00 -0.00000000000E+00 -0.43116431281E+03  0.43116431281E+03  0.00000000000E+00 0. -1.
    9000007    1    1    2  501    0 -0.33170664559E+03 -0.39728092123E+03  0.60925337520E+02  0.65694240680E+03  0.40000000000E+03 0.  1.
   -9000007    1    1    2    0  502  0.33170664559E+03  0.39728092123E+03  0.67015414005E+03  0.93646569640E+03  0.40000000000E+03 0. -1.
<mgrwt>
<rscale>  2 0.65411117E+03</rscale>
<asrwt>0</asrwt>
<pdfrwt beam="1">  1       21 0.17880674E+00 0.65411117E+03</pdfrwt>
<pdfrwt beam="2">  1       21 0.66332971E-01 0.65411117E+03</pdfrwt>
<totfact> 0.29178226E+02</totfact>
</mgrwt>
</event>
<event>
 4    1  0.4716816E-002  0.5255092E+03  0.7818608E-02  0.1007327E+00
         21   -1    0    0  501  502  0.00000000000E+00  0.00000000000E+00  0.20095717145E+03  0.20095717145E+03  0.00000000000E+00 0.  1.
         21   -1    0    0  502  503 -0.00000000000E+00 -0.00000000000E+00 -0.13821489875E+04  0.13821489875E+04  0.00000000000E+00 0.  1.
    9000007    1    1    2  501    0  0.10689839673E+03 -0.32362418859E+03 -0.53065258649E+03  0.74682799239E+03  0.40000000000E+03 0.  1.
   -9000007    1    1    2    0  503 -0.10689839673E+03  0.32362418859E+03 -0.65053922959E+03  0.83627816658E+03  0.40000000000E+03 0.  1.
<mgrwt>
<rscale>  2 0.52550917E+03</rscale>
<asrwt>0</asrwt>
<pdfrwt beam="1">  1       21 0.30916488E-01 0.52550917E+03</pdfrwt>
<pdfrwt beam="2">  1       21 0.21263831E+00 0.52550917E+03</pdfrwt>
<totfact> 0.90195974E+02</totfact>
</mgrwt>
</event>
<event>
 4    1  0.4716816E-002  0.4165388E+03  0.7818608E-02  0.1038199E+00
         21   -1    0    0  503  502  0.00000000000E+00  0.00000000000E+00  0.28609567367E+04  0.28609567367E+04  0.00000000000E+00 0. -1.
         21   -1    0    0  501  503 -0.00000000000E+00 -0.00000000000E+00 -0.60943840306E+02  0.60943840306E+02  0.00000000000E+00 0. -1.
    9000007    1    1    2  501    0  0.77365625294E+02  0.86713140286E+02  0.12978160183E+04  0.13630227533E+04  0.40000000000E+03 0.  1.
   -9000007    1    1    2    0  502 -0.77365625294E+02 -0.86713140286E+02  0.15021968781E+04  0.15588778237E+04  0.40000000000E+03 0.  1.
<mgrwt>
<rscale>  2 0.41653884E+03</rscale>
<asrwt>0</asrwt>
<pdfrwt beam="1">  1       21 0.44014709E+00 0.41653884E+03</pdfrwt>
<pdfrwt beam="2">  1       21 0.93759776E-02 0.41653884E+03</pdfrwt>
<totfact> 0.34430357E+02</totfact>
</mgrwt>
</event>
<event>
 4    1  0.4716816E-002  0.6142949E+03  0.7818608E-02  0.9876185E-01
         21   -1    0    0  503  502  0.00000000000E+00  0.00000000000E+00  0.12581073952E+04  0.12581073952E+04  0.00000000000E+00 0.  1.
         21   -1    0    0  501  503 -0.00000000000E+00 -0.00000000000E+00 -0.32588291499E+03  0.32588291499E+03  0.00000000000E+00 0. -1.
    9000007    1    1    2  501    0 -0.30243778135E+03  0.35480918735E+03  0.24265648633E+03  0.66048492895E+03  0.40000000000E+03 0. -1.
   -9000007    1    1    2    0  502  0.30243778135E+03 -0.35480918735E+03  0.68956799392E+03  0.92350538128E+03  0.40000000000E+03 0.  1.
<mgrwt>
<rscale>  2 0.61429486E+03</rscale>
<asrwt>0</asrwt>
<pdfrwt beam="1">  1       21 0.19355498E+00 0.61429486E+03</pdfrwt>
<pdfrwt beam="2">  1       21 0.50135834E-01 0.61429486E+03</pdfrwt>
<totfact> 0.43079430E+02</totfact>
</mgrwt>
</event>
<event>
 4    1  0.4716816E-002  0.4066123E+03  0.7818608E-02  0.1041514E+00
         21   -1    0    0  503  502  0.00000000000E+00  0.00000000000E+00  0.12325720503E+04  0.12325720503E+04  0.00000000000E+00 0.  1.
         21   -1    0    0  501  503 -0.00000000000E+00 -0.00000000000E+00 -0.14034257226E+03  0.14034257226E+03  0.00000000000E+00 0.  1.
    9000007    1    1    2  501    0  0.51598757071E+02  0.51683201637E+02  0.69046175425E+03  0.80129334151E+03  0.40000000000E+03 0.  1.
   -9000007    1    1    2    0  502 -0.51598757071E+02 -0.51683201637E+02  0.40176772379E+03  0.57162128104E+03  0.40000000000E+03 0.  1.
<mgrwt>
<rscale>  2 0.40661233E+03</rscale>
<asrwt>0</asrwt>
<pdfrwt beam="1">  1       21 0.18962646E+00 0.40661233E+03</pdfrwt>
<pdfrwt beam="2">  1       21 0.21591166E-01 0.40661233E+03</pdfrwt>
<totfact> 0.27245170E+03</totfact>
</mgrwt>
</event>
<event>
 4    1  0.4716816E-002  0.5092167E+03  0.7818608E-02  0.1011401E+00
         21   -1    0    0  501  502  0.00000000000E+00  0.00000000000E+00  0.82272112274E+03  0.82272112274E+03  0.00000000000E+00 0.  1.
         21   -1    0    0  502  503 -0.00000000000E+00 -0.00000000000E+00 -0.31543743829E+03  0.31543743829E+03  0.00000000000E+00 0. -1.
    9000007    1    1    2  501    0 -0.20854266673E+03  0.23624473390E+03  0.23724583391E+03  0.56177148722E+03  0.40000000000E+03 0.  1.
   -9000007    1    1    2    0  503  0.20854266673E+03 -0.23624473390E+03  0.27003785053E+03  0.57638707382E+03  0.40000000000E+03 0.  1.
<mgrwt>
<rscale>  2 0.50921667E+03</rscale>
<asrwt>0</asrwt>
<pdfrwt beam="1">  1       21 0.12657248E+00 0.50921667E+03</pdfrwt>
<pdfrwt beam="2">  1       21 0.48528837E-01 0.50921667E+03</pdfrwt>
<totfact> 0.15696924E+03</totfact>
</mgrwt>
</event>
<event>
 4    1  0.4716816E-002  0.4506108E+03  0.7818608E-02  0.1027540E+00
         21   -1    0    0  501  502  0.00000000000E+00  0.00000000000E+00  0.11069540110E+03  0.11069540110E+03  0.00000000000E+00 0.  1.
         21   -1    0    0  502  503 -0.00000000000E+00 -0.00000000000E+00 -0.26051222621E+04  0.26051222621E+04  0.00000000000E+00 0.  1.
    9000007    1    1    2  501    0  0.66972519481E+02 -0.19637907365E+03 -0.50857839451E+03  0.67948660200E+03  0.40000000000E+03 0.  1.
   -9000007    1    1    2    0  503 -0.66972519481E+02  0.19637907365E+03 -0.19858484665E+04  0.20363310612E+04  0.40000000000E+03 0.  1.
<mgrwt>
<rscale>  2 0.45061076E+03</rscale>
<asrwt>0</asrwt>
<pdfrwt beam="1">  1       21 0.17030061E-01 0.45061076E+03</pdfrwt>
<pdfrwt beam="2">  1       21 0.40078806E+00 0.45061076E+03</pdfrwt>
<totfact> 0.20435349E+02</totfact>
</mgrwt>
</event>
<event>
 4    1  0.4716816E-002  0.4374655E+03  0.7818608E-02  0.1031527E+00
         21   -1    0    0  503  502  0.00000000000E+00  0.00000000000E+00  0.59842641899E+03  0.59842641899E+03  0.00000000000E+00 0.  1.
         21   -1    0    0  501  503 -0.00000000000E+00 -0.00000000000E+00 -0.33070103312E+03  0.33070103312E+03  0.00000000000E+00 0.  1.
    9000007    1    1    2  501    0 -0.47444429316E+02 -0.17066069920E+03  0.49512644242E+02  0.44025850368E+03  0.40000000000E+03 0.  1.
   -9000007    1    1    2    0  502  0.47444429316E+02  0.17066069920E+03  0.21821274162E+03  0.48886894842E+03  0.40000000000E+03 0.  1.
<mgrwt>
<rscale>  2 0.43746548E+03</rscale>
<asrwt>0</asrwt>
<pdfrwt beam="1">  1       21 0.92065603E-01 0.43746548E+03</pdfrwt>
<pdfrwt beam="2">  1       21 0.50877082E-01 0.43746548E+03</pdfrwt>
<totfact> 0.32049148E+03</totfact>
</mgrwt>
</event>
<event>
 4    1  0.4716816E-002  0.4398312E+03  0.7818608E-02  0.1030799E+00
         21   -1    0    0  501  502  0.00000000000E+00  0.00000000000E+00  0.14981901824E+04  0.14981901824E+04  0.00000000000E+00 0.  1.
         21   -1    0    0  502  503 -0.00000000000E+00 -0.00000000000E+00 -0.14599387520E+03  0.14599387520E+03  0.00000000000E+00 0.  1.
    9000007    1    1    2  501    0  0.17489289560E+03  0.53515991765E+02  0.95555588098E+03  0.10519213507E+04  0.40000000000E+03 0.  1.
   -9000007    1    1    2    0  503 -0.17489289560E+03 -0.53515991765E+02  0.39664042619E+03  0.59226270691E+03  0.40000000000E+03 0.  1.
<mgrwt>
<rscale>  2 0.43983120E+03</rscale>
<asrwt>0</asrwt>
<pdfrwt beam="1">  1       21 0.23049079E+00 0.43983120E+03</pdfrwt>
<pdfrwt beam="2">  1       21 0.22460597E-01 0.43983120E+03</pdfrwt>
<totfact> 0.13468568E+03</totfact>
</mgrwt>
</event>
<event>
 4    1  0.4716816E-002  0.4356089E+03  0.7818608E-02  0.1032103E+00
         21   -1    0    0  503  502  0.00000000000E+00  0.00000000000E+00  0.72963845576E+03  0.72963845576E+03  0.00000000000E+00 0.  1.
         21   -1    0    0  501  503 -0.00000000000E+00 -0.00000000000E+00 -0.29893747840E+03  0.29893747840E+03  0.00000000000E+00 0.  1.
    9000007    1    1    2  501    0  0.77636271201E+02 -0.15403819460E+03  0.29901682407E+02  0.43663401908E+03  0.40000000000E+03 0.  1.
   -9000007    1    1    2    0  502 -0.77636271201E+02  0.15403819460E+03  0.40079929495E+03  0.59194191509E+03  0.40000000000E+03 0.  1.
<mgrwt>
<rscale>  2 0.43560895E+03</rscale>
<asrwt>0</asrwt>
<pdfrwt beam="1">  1       21 0.11225207E+00 0.43560895E+03</pdfrwt>
<pdfrwt beam="2">  1       21 0.45990381E-01 0.43560895E+03</pdfrwt>
<totfact> 0.24496349E+03</totfact>
</mgrwt>
</event>
<event>
 4    1  0.4716816E-002  0.4082574E+03  0.7818608E-02  0.1040957E+00
         21   -1    0    0  501  502  0.00000000000E+00  0.00000000000E+00  0.42287634790E+03  0.42287634790E+03  0.00000000000E+00 0.  1.
         21   -1    0    0  502  503 -0.00000000000E+00 -0.00000000000E+00 -0.40960640619E+03  0.40960640619E+03  0.00000000000E+00 0.  1.
    9000007    1    1    2  501    0 -0.36410447898E+01 -0.81613857529E+02 -0.74238040959E+02  0.41495224505E+03  0.40000000000E+03 0. -1.
   -9000007    1    1    2    0  503  0.36410447898E+01  0.81613857529E+02  0.87507982661E+02  0.41753050904E+03  0.40000000000E+03 0. -1.
<mgrwt>
<rscale>  2 0.40825737E+03</rscale>
<asrwt>0</asrwt>
<pdfrwt beam="1">  1       21 0.65057900E-01 0.40825737E+03</pdfrwt>
<pdfrwt beam="2">  1       21 0.63016370E-01 0.40825737E+03</pdfrwt>
<totfact> 0.45179153E+03</totfact>
</mgrwt>
</event>
<event>
 4    1  0.4716816E-002  0.4755911E+03  0.7818608E-02  0.1020354E+00
         21   -1    0    0  503  502  0.00000000000E+00  0.00000000000E+00  0.43354940967E+03  0.43354940967E+03  0.00000000000E+00 0.  1.
         21   -1    0    0  501  503 -0.00000000000E+00 -0.00000000000E+00 -0.89417219559E+03  0.89417219559E+03  0.00000000000E+00 0.  1.
    9000007    1    1    2  501    0  0.23015173256E+03  0.11496552229E+03 -0.65876891896E+03  0.81250438762E+03  0.40000000000E+03 0.  1.
   -9000007    1    1    2    0  502 -0.23015173256E+03 -0.11496552229E+03  0.19814613303E+03  0.51521721764E+03  0.40000000000E+03 0.  1.
<mgrwt>
<rscale>  2 0.47559110E+03</rscale>
<asrwt>0</asrwt>
<pdfrwt beam="1">  1       21 0.66699910E-01 0.47559110E+03</pdfrwt>
<pdfrwt beam="2">  1       21 0.13756495E+00 0.47559110E+03</pdfrwt>
<totfact> 0.64005960E+02</totfact>
</mgrwt>
</event>
<event>
 4    1  0.4716816E-002  0.4387900E+03  0.7818608E-02  0.1031119E+00
         21   -1    0    0  503  502  0.00000000000E+00  0.00000000000E+00  0.55583170340E+03  0.55583170340E+03  0.00000000000E+00 0.  1.
         21   -1    0    0  501  503 -0.00000000000E+00 -0.00000000000E+00 -0.43645747069E+03  0.43645747069E+03  0.00000000000E+00 0.  1.
    9000007    1    1    2  501    0  0.11609670288E+03 -0.13805138165E+03 -0.16569125320E+03  0.46903115012E+03  0.40000000000E+03 0.  1.
   -9000007    1    1    2    0  502 -0.11609670288E+03  0.13805138165E+03  0.28506548591E+03  0.52325802397E+03  0.40000000000E+03 0.  1.
<mgrwt>
<rscale>  2 0.43878996E+03</rscale>
<asrwt>0</asrwt>
<pdfrwt beam="1">  1       21 0.85512570E-01 0.43878996E+03</pdfrwt>
<pdfrwt beam="2">  1       21 0.67147303E-01 0.43878996E+03</pdfrwt>
<totfact> 0.20818658E+03</totfact>
</mgrwt>
</event>
<event>
 4    1  0.4716816E-002  0.4359347E+03  0.7818608E-02  0.1032001E+00
         21   -1    0    0  501  502  0.00000000000E+00  0.00000000000E+00  0.58055620774E+03  0.58055620774E+03  0.00000000000E+00 0.  1.
         21   -1    0    0  502  503 -0.00000000000E+00 -0.00000000000E+00 -0.40983589490E+03  0.40983589490E+03  0.00000000000E+00 0. -1.
    9000007    1    1    2  501    0  0.11118059441E+03  0.13295840068E+03  0.30753213840E+03  0.53349327740E+03  0.40000000000E+03 0.  1.
   -9000007    1    1    2    0  503 -0.11118059441E+03 -0.13295840068E+03 -0.13681182556E+03  0.45689882523E+03  0.40000000000E+03 0. -1.
<mgrwt>
<rscale>  2 0.43593470E+03</rscale>
<asrwt>0</asrwt>
<pdfrwt beam="1">  1       21 0.89316340E-01 0.43593470E+03</pdfrwt>
<pdfrwt beam="2">  1       21 0.63051676E-01 0.43593470E+03</pdfrwt>
<totfact> 0.21636288E+03</totfact>
</mgrwt>
</event>
<event>
 4    1  0.4716816E-002  0.4100063E+03  0.7818608E-02  0.1040369E+00
         21   -1    0    0  501  502  0.00000000000E+00  0.00000000000E+00  0.14759298489E+04  0.14759298489E+04  0.00000000000E+00 0.  1.
         21   -1    0    0  502  503 -0.00000000000E+00 -0.00000000000E+00 -0.11688014039E+03  0.11688014039E+03  0.00000000000E+00 0.  1.
    9000007    1    1    2  501    0  0.83844758776E+02  0.32790526014E+02  0.55230870484E+03  0.68785904632E+03  0.40000000000E+03 0.  1.
   -9000007    1    1    2    0  503 -0.83844758776E+02 -0.32790526014E+02  0.80674100368E+03  0.90495094297E+03  0.40000000000E+03 0.  1.
<mgrwt>
<rscale>  2 0.41000630E+03</rscale>
<asrwt>0</asrwt>
<pdfrwt beam="1">  1       21 0.22706612E+00 0.41000630E+03</pdfrwt>
<pdfrwt beam="2">  1       21 0.17981561E-01 0.41000630E+03</pdfrwt>
<totfact> 0.21917664E+03</totfact>
</mgrwt>
</event>
<event>
 4    1  0.4716816E-002  0.7847799E+03  0.7818608E-02  0.9582313E-01
         21   -1    0    0  501  502  0.00000000000E+00  0.00000000000E+00  0.85735107962E+03  0.85735107962E+03  0.00000000000E+00 0. -1.
         21   -1    0    0  502  503 -0.00000000000E+00 -0.00000000000E+00 -0.72861345931E+03  0.72861345931E+03  0.00000000000E+00 0.  1.
    9000007    1    1    2  501    0  0.64634862827E+03  0.19522544068E+03 -0.29739474425E+02  0.78534321051E+03  0.40000000000E+03 0.  1.
   -9000007    1    1    2    0  503 -0.64634862827E+03 -0.19522544068E+03  0.15847709474E+03  0.80062132842E+03  0.40000000000E+03 0. -1.
<mgrwt>
<rscale>  2 0.78477992E+03</rscale>
<asrwt>0</asrwt>
<pdfrwt beam="1">  1       21 0.13190017E+00 0.78477992E+03</pdfrwt>
<pdfrwt beam="2">  1       21 0.11209438E+00 0.78477992E+03</pdfrwt>
<totfact> 0.18805403E+02</totfact>
</mgrwt>
</event>
<event>
 4    1  0.4716816E-002  0.6884449E+03  0.7818608E-02  0.9737200E-01
         21   -1    0    0  501  502  0.00000000000E+00  0.00000000000E+00  0.28906685566E+04  0.28906685566E+04  0.00000000000E+00 0. -1.
         21   -1    0    0  502  503 -0.00000000000E+00 -0.00000000000E+00 -0.19476068421E+03  0.19476068421E+03  0.00000000000E+00 0. -1.
    9000007    1    1    2  501    0 -0.35492912017E+03  0.43356860664E+03  0.19614464633E+04  0.20787565142E+04  0.40000000000E+03 0. -1.
   -9000007    1    1    2    0  503  0.35492912017E+03 -0.43356860664E+03  0.73446140909E+03  0.10066727266E+04  0.40000000000E+03 0. -1.
<mgrwt>
<rscale>  2 0.68844493E+03</rscale>
<asrwt>0</asrwt>
<pdfrwt beam="1">  1       21 0.44471821E+00 0.68844493E+03</pdfrwt>
<pdfrwt beam="2">  1       21 0.29963184E-01 0.68844493E+03</pdfrwt>
<totfact> 0.30711007E+01</totfact>
</mgrwt>
</event>
<event>
 4    1  0.4716816E-002  0.4567547E+03  0.7818608E-02  0.1025727E+00
         21   -1    0    0  503  502  0.00000000000E+00  0.00000000000E+00  0.71534856238E+03  0.71534856238E+03  0.00000000000E+00 0. -1.
         21   -1    0    0  501  503 -0.00000000000E+00 -0.00000000000E+00 -0.33745217931E+03  0.33745217931E+03  0.00000000000E+00 0. -1.
    9000007    1    1    2  501    0  0.92813430334E+02 -0.20002627377E+03 -0.50048728365E+01  0.45678210538E+03  0.40000000000E+03 0. -1.
   -9000007    1    1    2    0  502 -0.92813430334E+02  0.20002627377E+03  0.38290125591E+03  0.59601863631E+03  0.40000000000E+03 0. -1.
<mgrwt>
<rscale>  2 0.45675469E+03</rscale>
<asrwt>0</asrwt>
<pdfrwt beam="1">  1       21 0.11005362E+00 0.45675469E+03</pdfrwt>
<pdfrwt beam="2">  1       21 0.51915720E-01 0.45675469E+03</pdfrwt>
<totfact> 0.19742580E+03</totfact>
</mgrwt>
</event>
<event>
 4    1  0.4716816E-002  0.9170948E+03  0.7818608E-02  0.9404461E-01
         21   -1    0    0  501  502  0.00000000000E+00  0.00000000000E+00  0.55234716942E+03  0.55234716942E+03  0.00000000000E+00 0. -1.
         21   -1    0    0  502  503 -0.00000000000E+00 -0.00000000000E+00 -0.16329375636E+04  0.16329375636E+04  0.00000000000E+00 0. -1.
    9000007    1    1    2  501    0 -0.81636284596E+03  0.12089039456E+03 -0.25640873702E+03  0.95226478680E+03  0.40000000000E+03 0. -1.
   -9000007    1    1    2    0  503  0.81636284596E+03 -0.12089039456E+03 -0.82418165718E+03  0.12330199462E+04  0.40000000000E+03 0. -1.
<mgrwt>
<rscale>  2 0.91709475E+03</rscale>
<asrwt>0</asrwt>
<pdfrwt beam="1">  1       21 0.84976489E-01 0.91709475E+03</pdfrwt>
<pdfrwt beam="2">  1       21 0.25122116E+00 0.91709475E+03</pdfrwt>
<totfact> 0.50018211E+01</totfact>
</mgrwt>
</event>
<event>
 4    1  0.4716816E-002  0.4579583E+03  0.7818608E-02  0.1025375E+00
         21   -1    0    0  503  502  0.00000000000E+00  0.00000000000E+00  0.16047673733E+03  0.16047673733E+03  0.00000000000E+00 0.  1.
         21   -1    0    0  501  503 -0.00000000000E+00 -0.00000000000E+00 -0.15191320444E+04  0.15191320444E+04  0.00000000000E+00 0.  1.
    9000007    1    1    2  501    0 -0.36165246357E+02  0.22004071311E+03 -0.99322927301E+03  0.10937231045E+04  0.40000000000E+03 0.  1.
   -9000007    1    1    2    0  502  0.36165246357E+02 -0.22004071311E+03 -0.36542603408E+03  0.58588567729E+03  0.40000000000E+03 0.  1.
<mgrwt>
<rscale>  2 0.45795834E+03</rscale>
<asrwt>0</asrwt>
<pdfrwt beam="1">  1       21 0.24688729E-01 0.45795834E+03</pdfrwt>
<pdfrwt beam="2">  1       21 0.23371262E+00 0.45795834E+03</pdfrwt>
<totfact> 0.10614707E+03</totfact>
</mgrwt>
</event>
<event>
 4    1  0.4716816E-002  0.4598972E+03  0.7818608E-02  0.1024811E+00
         21   -1    0    0  501  502  0.00000000000E+00  0.00000000000E+00  0.11054868775E+04  0.11054868775E+04  0.00000000000E+00 0.  1.
         21   -1    0    0  502  503 -0.00000000000E+00 -0.00000000000E+00 -0.44998830025E+03  0.44998830025E+03  0.00000000000E+00 0.  1.
    9000007    1    1    2  501    0 -0.20048122714E+03 -0.10636132852E+03  0.91740874706E+03  0.10262281734E+04  0.40000000000E+03 0.  1.
   -9000007    1    1    2    0  503  0.20048122714E+03  0.10636132852E+03 -0.26191016978E+03  0.52924700441E+03  0.40000000000E+03 0.  1.
<mgrwt>
<rscale>  2 0.45989722E+03</rscale>
<asrwt>0</asrwt>
<pdfrwt beam="1">  1       21 0.17007490E+00 0.45989722E+03</pdfrwt>
<pdfrwt beam="2">  1       21 0.69228970E-01 0.45989722E+03</pdfrwt>
<totfact> 0.33128291E+02</totfact>
</mgrwt>
</event>
<event>
 4    1  0.4716816E-002  0.4791131E+03  0.7818608E-02  0.1019379E+00
         21   -1    0    0  503  502  0.00000000000E+00  0.00000000000E+00  0.45722936187E+03  0.45722936187E+03  0.00000000000E+00 0.  1.
         21   -1    0    0  501  503 -0.00000000000E+00 -0.00000000000E+00 -0.95398796715E+03  0.95398796715E+03  0.00000000000E+00 0.  1.
    9000007    1    1    2  501    0  0.25850169435E+03 -0.52213528103E+02 -0.73404186459E+03  0.87656536406E+03  0.40000000000E+03 0.  1.
   -9000007    1    1    2    0  502 -0.25850169435E+03  0.52213528103E+02  0.23728325931E+03  0.53465196497E+03  0.40000000000E+03 0.  1.
<mgrwt>
<rscale>  2 0.47911312E+03</rscale>
<asrwt>0</asrwt>
<pdfrwt beam="1">  1       21 0.70342980E-01 0.47911312E+03</pdfrwt>
<pdfrwt beam="2">  1       21 0.14676738E+00 0.47911312E+03</pdfrwt>
<totfact> 0.47682043E+02</totfact>
</mgrwt>
</event>
<event>
 4    1  0.4716816E-002  0.4232327E+03  0.7818608E-02  0.1036019E+00
         21   -1    0    0  503  502  0.00000000000E+00  0.00000000000E+00  0.34849405529E+03  0.34849405529E+03  0.00000000000E+00 0.  1.
         21   -1    0    0  501  503 -0.00000000000E+00 -0.00000000000E+00 -0.83536480375E+03  0.83536480375E+03  0.00000000000E+00 0. -1.
    9000007    1    1    2  501    0  0.10706443859E+03 -0.87539068758E+02 -0.61057488200E+03  0.74291827889E+03  0.40000000000E+03 0. -1.
   -9000007    1    1    2    0  502 -0.10706443859E+03  0.87539068758E+02  0.12370413354E+03  0.44094058015E+03  0.40000000000E+03 0.  1.
<mgrwt>
<rscale>  2 0.42323266E+03</rscale>
<asrwt>0</asrwt>
<pdfrwt beam="1">  1       21 0.53614470E-01 0.42323266E+03</pdfrwt>
<pdfrwt beam="2">  1       21 0.12851766E+00 0.42323266E+03</pdfrwt>
<totfact> 0.12612937E+03</totfact>
</mgrwt>
</event>
<event>
 4    1  0.4716816E-002  0.6061987E+03  0.7818608E-02  0.9892629E-01
         21   -1    0    0  501  502  0.00000000000E+00  0.00000000000E+00  0.15326172645E+04  0.15326172645E+04  0.00000000000E+00 0.  1.
         21   -1    0    0  502  503 -0.00000000000E+00 -0.00000000000E+00 -0.30672200151E+03  0.30672200151E+03  0.00000000000E+00 0.  1.
    9000007    1    1    2  501    0 -0.11141023374E+03 -0.44166116901E+03  0.10426212135E+04  0.12060413854E+04  0.40000000000E+03 0.  1.
   -9000007    1    1    2    0  503  0.11141023374E+03  0.44166116901E+03  0.18327404950E+03  0.63329788063E+03  0.40000000000E+03 0.  1.
<mgrwt>
<rscale>  2 0.60619867E+03</rscale>
<asrwt>0</asrwt>
<pdfrwt beam="1">  1       21 0.23578727E+00 0.60619867E+03</pdfrwt>
<pdfrwt beam="2">  1       21 0.47188001E-01 0.60619867E+03</pdfrwt>
<totfact> 0.25978137E+02</totfact>
</mgrwt>
</event>
<event>
 4    1  0.4716816E-002  0.4848168E+03  0.7818608E-02  0.1017820E+00
         21   -1    0    0  503  502  0.00000000000E+00  0.00000000000E+00  0.59837976769E+03  0.59837976769E+03  0.00000000000E+00 0.  1.
         21   -1    0    0  501  503 -0.00000000000E+00 -0.00000000000E+00 -0.40255353901E+03  0.40255353901E+03  0.00000000000E+00 0. -1.
    9000007    1    1    2  501    0  0.22349011274E+03  0.15842812077E+03  0.17578948692E+03  0.51570266982E+03  0.40000000000E+03 0.  1.
   -9000007    1    1    2    0  502 -0.22349011274E+03 -0.15842812077E+03  0.20036741764E+02  0.48523063688E+03  0.40000000000E+03 0. -1.
<mgrwt>
<rscale>  2 0.48481677E+03</rscale>
<asrwt>0</asrwt>
<pdfrwt beam="1">  1       21 0.92058426E-01 0.48481677E+03</pdfrwt>
<pdfrwt beam="2">  1       21 0.61931313E-01 0.48481677E+03</pdfrwt>
<totfact> 0.20579688E+03</totfact>
</mgrwt>
</event>
<event>
 4    1  0.4716816E-002  0.5390807E+03  0.7818608E-02  0.1004053E+00
         21   -1    0    0  503  502  0.00000000000E+00  0.00000000000E+00  0.15418093487E+04  0.15418093487E+04  0.00000000000E+00 0.  1.
         21   -1    0    0  501  503 -0.00000000000E+00 -0.00000000000E+00 -0.19331935570E+03  0.19331935570E+03  0.00000000000E+00 0.  1.
    9000007    1    1    2  501    0  0.14398518941E+03  0.33147585887E+03  0.53705197271E+03  0.76094204850E+03  0.40000000000E+03 0.  1.
   -9000007    1    1    2    0  502 -0.14398518941E+03 -0.33147585887E+03  0.81143802030E+03  0.97418665592E+03  0.40000000000E+03 0.  1.
<mgrwt>
<rscale>  2 0.53908068E+03</rscale>
<asrwt>0</asrwt>
<pdfrwt beam="1">  1       21 0.23720143E+00 0.53908068E+03</pdfrwt>
<pdfrwt beam="2">  1       21 0.29741440E-01 0.53908068E+03</pdfrwt>
<totfact> 0.67501694E+02</totfact>
</mgrwt>
</event>
<event>
 4    1  0.4716816E-002  0.4015617E+03  0.7818608E-02  0.1043240E+00
         21   -1    0    0  501  502  0.00000000000E+00  0.00000000000E+00  0.12779606826E+04  0.12779606826E+04  0.00000000000E+00 0. -1.
         21   -1    0    0  502  503 -0.00000000000E+00 -0.00000000000E+00 -0.20001607974E+03  0.20001607974E+03  0.00000000000E+00 0. -1.
    9000007    1    1    2  501    0 -0.25619291234E+01  0.35287846349E+02  0.98796825087E+03  0.10664581850E+04  0.40000000000E+03 0. -1.
   -9000007    1    1    2    0  503  0.25619291234E+01 -0.35287846349E+02  0.89976351959E+02  0.41151857734E+03  0.40000000000E+03 0. -1.
<mgrwt>
<rscale>  2 0.40156170E+03</rscale>
<asrwt>0</asrwt>
<pdfrwt beam="1">  1       21 0.19660933E+00 0.40156170E+03</pdfrwt>
<pdfrwt beam="2">  1       21 0.30771705E-01 0.40156170E+03</pdfrwt>
<totfact> 0.12281541E+03</totfact>
</mgrwt>
</event>
<event>
 4    1  0.4716816E-002  0.5174901E+03  0.7818608E-02  0.1009312E+00
         21   -1    0    0  503  502  0.00000000000E+00  0.00000000000E+00  0.19908096431E+04  0.19908096431E+04  0.00000000000E+00 0.  1.
         21   -1    0    0  501  503 -0.00000000000E+00 -0.00000000000E+00 -0.32621094158E+03  0.32621094158E+03  0.00000000000E+00 0.  1.
    9000007    1    1    2  501    0  0.28216550033E+03  0.16786494699E+03 -0.55788263197E+02  0.52048855926E+03  0.40000000000E+03 0.  1.
   -9000007    1    1    2    0  502 -0.28216550033E+03 -0.16786494699E+03  0.17203869647E+04  0.17965320254E+04  0.40000000000E+03 0.  1.
<mgrwt>
<rscale>  2 0.51749011E+03</rscale>
<asrwt>0</asrwt>
<pdfrwt beam="1">  1       21 0.30627840E+00 0.51749011E+03</pdfrwt>
<pdfrwt beam="2">  1       21 0.50186300E-01 0.51749011E+03</pdfrwt>
<totfact> 0.87768230E+01</totfact>
</mgrwt>
</event>
<event>
 4    1  0.4716816E-002  0.4481832E+03  0.7818608E-02  0.1028265E+00
         21   -1    0    0  503  502  0.00000000000E+00  0.00000000000E+00  0.18951773466E+03  0.18951773466E+03  0.00000000000E+00 0. -1.
         21   -1    0    0  501  503 -0.00000000000E+00 -0.00000000000E+00 -0.10599230914E+04  0.10599230914E+04  0.00000000000E+00 0. -1.
    9000007    1    1    2  501    0  0.50522325961E+02  0.19574386371E+03 -0.43177204946E+03  0.62233051371E+03  0.40000000000E+03 0. -1.
   -9000007    1    1    2    0  502 -0.50522325961E+02 -0.19574386371E+03 -0.43863330728E+03  0.62711031235E+03  0.40000000000E+03 0. -1.
<mgrwt>
<rscale>  2 0.44818318E+03</rscale>
<asrwt>0</asrwt>
<pdfrwt beam="1">  1       21 0.29156574E-01 0.44818318E+03</pdfrwt>
<pdfrwt beam="2">  1       21 0.16306509E+00 0.44818318E+03</pdfrwt>
<totfact> 0.23072113E+03</totfact>
</mgrwt>
</event>
<event>
 4    1  0.4716816E-002  0.4894500E+03  0.7818608E-02  0.1016570E+00
         21   -1    0    0  501  502  0.00000000000E+00  0.00000000000E+00  0.17030450050E+04  0.17030450050E+04  0.00000000000E+00 0.  1.
         21   -1    0    0  502  503 -0.00000000000E+00 -0.00000000000E+00 -0.15323018037E+03  0.15323018037E+03  0.00000000000E+00 0.  1.
    9000007    1    1    2  501    0 -0.20188766910E+03 -0.19698393196E+03  0.10406734347E+04  0.11500271728E+04  0.40000000000E+03 0.  1.
   -9000007    1    1    2    0  503  0.20188766910E+03  0.19698393196E+03  0.50914138993E+03  0.70624801262E+03  0.40000000000E+03 0.  1.
<mgrwt>
<rscale>  2 0.48945000E+03</rscale>
<asrwt>0</asrwt>
<pdfrwt beam="1">  1       21 0.26200691E+00 0.48945000E+03</pdfrwt>
<pdfrwt beam="2">  1       21 0.23573875E-01 0.48945000E+03</pdfrwt>
<totfact> 0.76486677E+02</totfact>
</mgrwt>
</event>
<event>
 4    1  0.4716816E-002  0.4001474E+03  0.7818608E-02  0.1043729E+00
         21   -1    0    0  503  502  0.00000000000E+00  0.00000000000E+00  0.20923815955E+04  0.20923815955E+04  0.00000000000E+00 0. -1.
         21   -1    0    0  501  503 -0.00000000000E+00 -0.00000000000E+00 -0.37542238070E+03  0.37542238070E+03  0.00000000000E+00 0. -1.
    9000007    1    1    2  501    0 -0.43840897650E+01 -0.99377922857E+01 -0.24250733224E+03  0.46789719613E+03  0.40000000000E+03 0. -1.
   -9000007    1    1    2    0  502  0.43840897650E+01  0.99377922857E+01  0.19594665471E+04  0.19999067801E+04  0.40000000000E+03 0. -1.
<mgrwt>
<rscale>  2 0.40014745E+03</rscale>
<asrwt>0</asrwt>
<pdfrwt beam="1">  1       21 0.32190485E+00 0.40014745E+03</pdfrwt>
<pdfrwt beam="2">  1       21 0.57757290E-01 0.40014745E+03</pdfrwt>
<totfact> 0.56432902E+01</totfact>
</mgrwt>
</event>
<event>
 4    1  0.4716816E-002  0.4308664E+03  0.7818608E-02  0.1033587E+00
         21   -1    0    0  503  502  0.00000000000E+00  0.00000000000E+00  0.42878447641E+03  0.42878447641E+03  0.00000000000E+00 0. -1.
         21   -1    0    0  501  503 -0.00000000000E+00 -0.00000000000E+00 -0.44304923410E+03  0.44304923410E+03  0.00000000000E+00 0. -1.
    9000007    1    1    2  501    0 -0.60313583770E+02  0.14835138616E+03 -0.72919386110E+02  0.43699324827E+03  0.40000000000E+03 0. -1.
   -9000007    1    1    2    0  502  0.60313583770E+02 -0.14835138616E+03  0.58654628424E+02  0.43484046224E+03  0.40000000000E+03 0. -1.
<mgrwt>
<rscale>  2 0.43086641E+03</rscale>
<asrwt>0</asrwt>
<pdfrwt beam="1">  1       21 0.65966843E-01 0.43086641E+03</pdfrwt>
<pdfrwt beam="2">  1       21 0.68161421E-01 0.43086641E+03</pdfrwt>
<totfact> 0.36497258E+03</totfact>
</mgrwt>
</event>
<event>
 4    1  0.4716816E-002  0.4036731E+03  0.7818608E-02  0.1042515E+00
         21   -1    0    0  501  502  0.00000000000E+00  0.00000000000E+00  0.59511718804E+03  0.59511718804E+03  0.00000000000E+00 0.  1.
         21   -1    0    0  502  503 -0.00000000000E+00 -0.00000000000E+00 -0.38501222491E+03  0.38501222491E+03  0.00000000000E+00 0.  1.
    9000007    1    1    2  501    0 -0.42760381710E+02 -0.33519557283E+02  0.36842056752E+03  0.54652147765E+03  0.40000000000E+03 0.  1.
   -9000007    1    1    2    0  503  0.42760381710E+02  0.33519557283E+02 -0.15831560439E+03  0.43360793530E+03  0.40000000000E+03 0.  1.
<mgrwt>
<rscale>  2 0.40367315E+03</rscale>
<asrwt>0</asrwt>
<pdfrwt beam="1">  1       21 0.91556491E-01 0.40367315E+03</pdfrwt>
<pdfrwt beam="2">  1       21 0.59232650E-01 0.40367315E+03</pdfrwt>
<totfact> 0.23705582E+03</totfact>
</mgrwt>
</event>
<event>
 4    1  0.4716816E-002  0.6902315E+03  0.7818608E-02  0.9734085E-01
         21   -1    0    0  503  502  0.00000000000E+00  0.00000000000E+00  0.12891762027E+04  0.12891762027E+04  0.00000000000E+00 0.  1.
         21   -1    0    0  501  503 -0.00000000000E+00 -0.00000000000E+00 -0.94850153452E+03  0.94850153452E+03  0.00000000000E+00 0. -1.
    9000007    1    1    2  501    0 -0.68395434093E+02 -0.55833818149E+03 -0.70377722256E+03  0.98575952408E+03  0.40000000000E+03 0. -1.
   -9000007    1    1    2    0  502  0.68395434093E+02  0.55833818149E+03  0.10444518907E+04  0.12519182131E+04  0.40000000000E+03 0.  1.
<mgrwt>
<rscale>  2 0.69023145E+03</rscale>
<asrwt>0</asrwt>
<pdfrwt beam="1">  1       21 0.19833480E+00 0.69023145E+03</pdfrwt>
<pdfrwt beam="2">  1       21 0.14592331E+00 0.69023145E+03</pdfrwt>
<totfact> 0.30313956E+01</totfact>
</mgrwt>
</event>
<event>
 4    1  0.4716816E-002  0.4940214E+03  0.7818608E-02  0.1015351E+00
         21   -1    0    0  503  502  0.00000000000E+00  0.00000000000E+00  0.13966556042E+04  0.13966556042E+04  0.00000000000E+00 0. -1.
         21   -1    0    0  501  503 -0.00000000000E+00 -0.00000000000E+00 -0.44554998038E+03  0.44554998038E+03  0.00000000000E+00 0.  1.
    9000007    1    1    2  501    0 -0.28887732653E+03  0.24639039443E+02 -0.24255393467E+03  0.55035407082E+03  0.40000000000E+03 0.  1.
   -9000007    1    1    2    0  502  0.28887732653E+03 -0.24639039443E+02  0.11936595585E+04  0.12918515138E+04  0.40000000000E+03 0. -1.
<mgrwt>
<rscale>  2 0.49402145E+03</rscale>
<asrwt>0</asrwt>
<pdfrwt beam="1">  1       21 0.21487009E+00 0.49402145E+03</pdfrwt>
<pdfrwt beam="2">  1       21 0.68546151E-01 0.49402145E+03</pdfrwt>
<totfact> 0.16450616E+02</totfact>
</mgrwt>
</event>
<event>
 4    1  0.4716816E-002  0.4660850E+03  0.7818608E-02  0.1023031E+00
         21   -1    0    0  501  502  0.00000000000E+00  0.00000000000E+00  0.11411880433E+04  0.11411880433E+04  0.00000000000E+00 0. -1.
         21   -1    0    0  502  503 -0.00000000000E+00 -0.00000000000E+00 -0.33428117004E+03  0.33428117004E+03  0.00000000000E+00 0. -1.
    9000007    1    1    2  501    0 -0.96402264777E+02  0.21895618832E+03 -0.80616733422E+02  0.47300556737E+03  0.40000000000E+03 0. -1.
   -9000007    1    1    2    0  503  0.96402264777E+02 -0.21895618832E+03  0.88752360665E+03  0.10024636459E+04  0.40000000000E+03 0. -1.
<mgrwt>
<rscale>  2 0.46608498E+03</rscale>
<asrwt>0</asrwt>
<pdfrwt beam="1">  1       21 0.17556739E+00 0.46608498E+03</pdfrwt>
<pdfrwt beam="2">  1       21 0.51427873E-01 0.46608498E+03</pdfrwt>
<totfact> 0.57835351E+02</totfact>
</mgrwt>
</event>
<event>
 4    1  0.4716816E-002  0.4889055E+03  0.7818608E-02  0.1016716E+00
         21   -1    0    0  503  502  0.00000000000E+00  0.00000000000E+00  0.14060656385E+04  0.14060656385E+04  0.00000000000E+00 0. -1.
         21   -1    0    0  501  503 -0.00000000000E+00 -0.00000000000E+00 -0.17374473561E+03  0.17374473561E+03  0.00000000000E+00 0. -1.
    9000007    1    1    2  501    0  0.22162778238E+03  0.17294422271E+03  0.73215460826E+03  0.88038568167E+03  0.40000000000E+03 0. -1.
   -9000007    1    1    2    0  502 -0.22162778238E+03 -0.17294422271E+03  0.50016629459E+03  0.69942469240E+03  0.40000000000E+03 0. -1.
<mgrwt>
<rscale>  2 0.48890549E+03</rscale>
<asrwt>0</asrwt>
<pdfrwt beam="1">  1       21 0.21631778E+00 0.48890549E+03</pdfrwt>
<pdfrwt beam="2">  1       21 0.26729960E-01 0.48890549E+03</pdfrwt>
<totfact> 0.11561467E+03</totfact>
</mgrwt>
</event>
<event>
 4    1  0.4716816E-002  0.7206665E+03  0.7818608E-02  0.9682528E-01
         21   -1    0    0  501  502  0.00000000000E+00  0.00000000000E+00  0.53487618680E+03  0.53487618680E+03  0.00000000000E+00 0. -1.
         21   -1    0    0  502  503 -0.00000000000E+00 -0.00000000000E+00 -0.12443197387E+04  0.12443197387E+04  0.00000000000E+00 0. -1.
    9000007    1    1    2  501    0  0.54898100306E+03 -0.24079051761E+03 -0.77165841326E+03  0.10558489105E+04  0.40000000000E+03 0. -1.
   -9000007    1    1    2    0  503 -0.54898100306E+03  0.24079051761E+03  0.62214861371E+02  0.72334701497E+03  0.40000000000E+03 0. -1.
<mgrwt>
<rscale>  2 0.72066651E+03</rscale>
<asrwt>0</asrwt>
<pdfrwt beam="1">  1       21 0.82288644E-01 0.72066651E+03</pdfrwt>
<pdfrwt beam="2">  1       21 0.19143381E+00 0.72066651E+03</pdfrwt>
<totfact> 0.14168007E+02</totfact>
</mgrwt>
</event>
<event>
 4    1  0.4716816E-002  0.4896993E+03  0.7818608E-02  0.1016503E+00
         21   -1    0    0  501  502  0.00000000000E+00  0.00000000000E+00  0.35945842707E+03  0.35945842707E+03  0.00000000000E+00 0.  1.
         21   -1    0    0  502  503 -0.00000000000E+00 -0.00000000000E+00 -0.70686958325E+03  0.70686958325E+03  0.00000000000E+00 0.  1.
    9000007    1    1    2  501    0  0.18549222037E+03 -0.21306812004E+03 -0.47288850413E+02  0.49197725859E+03  0.40000000000E+03 0.  1.
   -9000007    1    1    2    0  503 -0.18549222037E+03  0.21306812004E+03 -0.30012230577E+03  0.57435075173E+03  0.40000000000E+03 0.  1.
<mgrwt>
<rscale>  2 0.48969928E+03</rscale>
<asrwt>0</asrwt>
<pdfrwt beam="1">  1       21 0.55301297E-01 0.48969928E+03</pdfrwt>
<pdfrwt beam="2">  1       21 0.10874917E+00 0.48969928E+03</pdfrwt>
<totfact> 0.17537479E+03</totfact>
</mgrwt>
</event>
<event>
 4    1  0.4716816E-002  0.4345658E+03  0.7818608E-02  0.1032427E+00
         21   -1    0    0  501  502  0.00000000000E+00  0.00000000000E+00  0.33608903314E+03  0.33608903314E+03  0.00000000000E+00 0. -1.
         21   -1    0    0  502  503 -0.00000000000E+00 -0.00000000000E+00 -0.80596711624E+03  0.80596711624E+03  0.00000000000E+00 0. -1.
    9000007    1    1    2  501    0  0.74844309476E+02  0.15246566161E+03  0.79297022420E+02  0.44174140218E+03  0.40000000000E+03 0. -1.
   -9000007    1    1    2    0  503 -0.74844309476E+02 -0.15246566161E+03 -0.54917510552E+03  0.70031474721E+03  0.40000000000E+03 0. -1.
<mgrwt>
<rscale>  2 0.43456582E+03</rscale>
<asrwt>0</asrwt>
<pdfrwt beam="1">  1       21 0.51706006E-01 0.43456582E+03</pdfrwt>
<pdfrwt beam="2">  1       21 0.12399494E+00 0.43456582E+03</pdfrwt>
<totfact> 0.14876279E+03</totfact>
</mgrwt>
</event>
<event>
 4    1  0.4716816E-002  0.4729892E+03  0.7818608E-02  0.1021080E+00
         21   -1    0    0  501  502  0.00000000000E+00  0.00000000000E+00  0.27773598760E+04  0.27773598760E+04  0.00000000000E+00 0.  1.
         21   -1    0    0  502  503 -0.00000000000E+00 -0.00000000000E+00 -0.20193580892E+03  0.20193580892E+03  0.00000000000E+00 0.  1.
    9000007    1    1    2  501    0  0.24390316434E+02 -0.25124470367E+03  0.24426517670E+04  0.24880246067E+04  0.40000000000E+03 0.  1.
   -9000007    1    1    2    0  503 -0.24390316434E+02  0.25124470367E+03  0.13277230012E+03  0.49127107826E+03  0.40000000000E+03 0.  1.
<mgrwt>
<rscale>  2 0.47298921E+03</rscale>
<asrwt>0</asrwt>
<pdfrwt beam="1">  1       21 0.42728611E+00 0.47298921E+03</pdfrwt>
<pdfrwt beam="2">  1       21 0.31067049E-01 0.47298921E+03</pdfrwt>
<totfact> 0.42312231E+01</totfact>
</mgrwt>
</event>
<event>
 4    1  0.4716816E-002  0.4376386E+03  0.7818608E-02  0.1031474E+00
         21   -1    0    0  503  502  0.00000000000E+00  0.00000000000E+00  0.32544334139E+03  0.32544334139E+03  0.00000000000E+00 0. -1.
         21   -1    0    0  501  503 -0.00000000000E+00 -0.00000000000E+00 -0.61024671656E+03  0.61024671656E+03  0.00000000000E+00 0. -1.
    9000007    1    1    2  501    0  0.17359299371E+03 -0.37322776814E+02 -0.23069340776E+03  0.49471907738E+03  0.40000000000E+03 0. -1.
   -9000007    1    1    2    0  502 -0.17359299371E+03  0.37322776814E+02 -0.54109967414E+02  0.44097098057E+03  0.40000000000E+03 0. -1.
<mgrwt>
<rscale>  2 0.43763857E+03</rscale>
<asrwt>0</asrwt>
<pdfrwt beam="1">  1       21 0.50068206E-01 0.43763857E+03</pdfrwt>
<pdfrwt beam="2">  1       21 0.93884111E-01 0.43763857E+03</pdfrwt>
<totfact> 0.31648889E+03</totfact>
</mgrwt>
</event>
<event>
 4    1  0.4716816E-002  0.4655955E+03  0.7818608E-02  0.1023171E+00
         21   -1    0    0  501  502  0.00000000000E+00  0.00000000000E+00  0.43126374050E+03  0.43126374050E+03  0.00000000000E+00 0.  1.
         21   -1    0    0  502  503 -0.00000000000E+00 -0.00000000000E+00 -0.56462041709E+03  0.56462041709E+03  0.00000000000E+00 0. -1.
    9000007    1    1    2  501    0  0.18159096013E+03  0.15428500457E+03  0.98273374869E+02  0.47585375447E+03  0.40000000000E+03 0.  1.
   -9000007    1    1    2    0  503 -0.18159096013E+03 -0.15428500457E+03 -0.23163005145E+03  0.52003040312E+03  0.40000000000E+03 0.  1.
<mgrwt>
<rscale>  2 0.46559547E+03</rscale>
<asrwt>0</asrwt>
<pdfrwt beam="1">  1       21 0.66348268E-01 0.46559547E+03</pdfrwt>
<pdfrwt beam="2">  1       21 0.86864679E-01 0.46559547E+03</pdfrwt>
<totfact> 0.20405003E+03</totfact>
</mgrwt>
</event>
<event>
 4    1  0.4716816E-002  0.5561376E+03  0.7818608E-02  0.1000083E+00
         21   -1    0    0  503  502  0.00000000000E+00  0.00000000000E+00  0.12048048878E+04  0.12048048878E+04  0.00000000000E+00 0. -1.
         21   -1    0    0  501  503 -0.00000000000E+00 -0.00000000000E+00 -0.85527739797E+03  0.85527739797E+03  0.00000000000E+00 0. -1.
    9000007    1    1    2  501    0 -0.23089234025E+03 -0.30980277183E+03 -0.68693712123E+03  0.88383914755E+03  0.40000000000E+03 0. -1.
   -9000007    1    1    2    0  502  0.23089234025E+03  0.30980277183E+03  0.10364646111E+04  0.11762431382E+04  0.40000000000E+03 0. -1.
<mgrwt>
<rscale>  2 0.55613760E+03</rscale>
<asrwt>0</asrwt>
<pdfrwt beam="1">  1       21 0.18535460E+00 0.55613760E+03</pdfrwt>
<pdfrwt beam="2">  1       21 0.13158114E+00 0.55613760E+03</pdfrwt>
<totfact> 0.52123967E+01</totfact>
</mgrwt>
</event>
<event>
 4    1  0.4716816E-002  0.5785272E+03  0.7818608E-02  0.9950985E-01
         21   -1    0    0  501  502  0.00000000000E+00  0.00000000000E+00  0.19949121500E+03  0.19949121500E+03  0.00000000000E+00 0.  1.
         21   -1    0    0  502  503 -0.00000000000E+00 -0.00000000000E+00 -0.18956066714E+04  0.18956066714E+04  0.00000000000E+00 0. -1.
    9000007    1    1    2  501    0 -0.24317685426E+03  0.33993934552E+03 -0.49291832929E+03  0.76004093339E+03  0.40000000000E+03 0.  1.
   -9000007    1    1    2    0  503  0.24317685426E+03 -0.33993934552E+03 -0.12031971271E+04  0.13350569530E+04  0.40000000000E+03 0. -1.
<mgrwt>
<rscale>  2 0.57852722E+03</rscale>
<asrwt>0</asrwt>
<pdfrwt beam="1">  1       21 0.30690955E-01 0.57852722E+03</pdfrwt>
<pdfrwt beam="2">  1       21 0.29163181E+00 0.57852722E+03</pdfrwt>
<totfact> 0.28836474E+02</totfact>
</mgrwt>
</event>
<event>
 4    1  0.4716816E-002  0.4502171E+03  0.7818608E-02  0.1027657E+00
         21   -1    0    0  501  502  0.00000000000E+00  0.00000000000E+00  0.72486167798E+03  0.72486167798E+03  0.00000000000E+00 0. -1.
         21   -1    0    0  502  503 -0.00000000000E+00 -0.00000000000E+00 -0.31879634399E+03  0.31879634399E+03  0.00000000000E+00 0.  1.
    9000007    1    1    2  501    0 -0.17320196185E+03 -0.11267879017E+03  0.38593111994E+03  0.59299094317E+03  0.40000000000E+03 0. -1.
   -9000007    1    1    2    0  503  0.17320196185E+03  0.11267879017E+03  0.20134214050E+02  0.45066707881E+03  0.40000000000E+03 0.  1.
<mgrwt>
<rscale>  2 0.45021709E+03</rscale>
<asrwt>0</asrwt>
<pdfrwt beam="1">  1       21 0.11151718E+00 0.45021709E+03</pdfrwt>
<pdfrwt beam="2">  1       21 0.49045591E-01 0.45021709E+03</pdfrwt>
<totfact> 0.21619087E+03</totfact>
</mgrwt>
</event>
<event>
 4    1  0.4716816E-002  0.4065974E+03  0.7818608E-02  0.1041519E+00
         21   -1    0    0  501  502  0.00000000000E+00  0.00000000000E+00  0.23578437834E+03  0.23578437834E+03  0.00000000000E+00 0.  1.
         21   -1    0    0  502  503 -0.00000000000E+00 -0.00000000000E+00 -0.71196866934E+03  0.71196866934E+03  0.00000000000E+00 0.  1.
    9000007    1    1    2  501    0 -0.62406238215E+02 -0.37774001399E+02 -0.17969121507E+03  0.44453385307E+03  0.40000000000E+03 0.  1.
   -9000007    1    1    2    0  503  0.62406238215E+02  0.37774001399E+02 -0.29649307593E+03  0.50321919461E+03  0.40000000000E+03 0.  1.
<mgrwt>
<rscale>  2 0.40659736E+03</rscale>
<asrwt>0</asrwt>
<pdfrwt beam="1">  1       21 0.36274520E-01 0.40659736E+03</pdfrwt>
<pdfrwt beam="2">  1       21 0.10953364E+00 0.40659736E+03</pdfrwt>
<totfact> 0.42952438E+03</totfact>
</mgrwt>
</event>
<event>
 4    1  0.4716816E-002  0.4478333E+03  0.7818608E-02  0.1028370E+00
         21   -1    0    0  503  502  0.00000000000E+00  0.00000000000E+00  0.97365022761E+03  0.97365022761E+03  0.00000000000E+00 0. -1.
         21   -1    0    0  501  503 -0.00000000000E+00 -0.00000000000E+00 -0.42713339885E+03  0.42713339885E+03  0.00000000000E+00 0. -1.
    9000007    1    1    2  501    0 -0.52383000244E+01  0.20131368877E+03 -0.23071069682E+03  0.50376786986E+03  0.40000000000E+03 0. -1.
   -9000007    1    1    2    0  502  0.52383000244E+01 -0.20131368877E+03  0.77722752558E+03  0.89701575660E+03  0.40000000000E+03 0. -1.
<mgrwt>
<rscale>  2 0.44783327E+03</rscale>
<asrwt>0</asrwt>
<pdfrwt beam="1">  1       21 0.14979234E+00 0.44783327E+03</pdfrwt>
<pdfrwt beam="2">  1       21 0.65712831E-01 0.44783327E+03</pdfrwt>
<totfact> 0.53305041E+02</totfact>
</mgrwt>
</event>
<event>
 4    1  0.4716816E-002  0.5208867E+03  0.7818608E-02  0.1008467E+00
         21   -1    0    0  503  502  0.00000000000E+00  0.00000000000E+00  0.50206895307E+03  0.50206895307E+03  0.00000000000E+00 0.  1.
         21   -1    0    0  501  503 -0.00000000000E+00 -0.00000000000E+00 -0.10592487008E+04  0.10592487008E+04  0.00000000000E+00 0.  1.
    9000007    1    1    2  501    0  0.30206587048E+03  0.14170081292E+03 -0.82494953873E+03  0.97563551183E+03  0.40000000000E+03 0.  1.
   -9000007    1    1    2    0  502 -0.30206587048E+03 -0.14170081292E+03  0.26776979103E+03  0.58568214202E+03  0.40000000000E+03 0.  1.
<mgrwt>
<rscale>  2 0.52088666E+03</rscale>
<asrwt>0</asrwt>
<pdfrwt beam="1">  1       21 0.77241378E-01 0.52088666E+03</pdfrwt>
<pdfrwt beam="2">  1       21 0.16296134E+00 0.52088666E+03</pdfrwt>
<totfact> 0.28351596E+02</totfact>
</mgrwt>
</event>
<event>
 4    1  0.4716816E-002  0.4328711E+03  0.7818608E-02  0.1032957E+00
         21   -1    0    0  501  502  0.00000000000E+00  0.00000000000E+00  0.14449457752E+03  0.14449457752E+03  0.00000000000E+00 0.  1.
         21   -1    0    0  502  503 -0.00000000000E+00 -0.00000000000E+00 -0.13503943748E+04  0.13503943748E+04  0.00000000000E+00 0.  1.
    9000007    1    1    2  501    0  0.13846621698E+03  0.90578755247E+02 -0.75188495437E+03  0.86758768361E+03  0.40000000000E+03 0.  1.
   -9000007    1    1    2    0  503 -0.13846621698E+03 -0.90578755247E+02 -0.45401484297E+03  0.62730126876E+03  0.40000000000E+03 0.  1.
<mgrwt>
<rscale>  2 0.43287112E+03</rscale>
<asrwt>0</asrwt>
<pdfrwt beam="1">  1       21 0.22229935E-01 0.43287112E+03</pdfrwt>
<pdfrwt beam="2">  1       21 0.20775298E+00 0.43287112E+03</pdfrwt>
<totfact> 0.19270512E+03</totfact>
</mgrwt>
</event>
<event>
 4    1  0.4716816E-002  0.5880596E+03  0.7818608E-02  0.9930493E-01
         21   -1    0    0  501  502  0.00000000000E+00  0.00000000000E+00  0.88937667856E+03  0.88937667856E+03  0.00000000000E+00 0. -1.
         21   -1    0    0  502  503 -0.00000000000E+00 -0.00000000000E+00 -0.43651593136E+03  0.43651593136E+03  0.00000000000E+00 0.  1.
    9000007    1    1    2  501    0 -0.42344083627E+03  0.80696807731E+02  0.44555177273E+03  0.73778757023E+03  0.40000000000E+03 0. -1.
   -9000007    1    1    2    0  503  0.42344083627E+03 -0.80696807731E+02  0.73089744785E+01  0.58810503969E+03  0.40000000000E+03 0.  1.
<mgrwt>
<rscale>  2 0.58805962E+03</rscale>
<asrwt>0</asrwt>
<pdfrwt beam="1">  1       21 0.13682718E+00 0.58805962E+03</pdfrwt>
<pdfrwt beam="2">  1       21 0.67156297E-01 0.58805962E+03</pdfrwt>
<totfact> 0.61305275E+02</totfact>
</mgrwt>
</event>
<event>
 4    1  0.4716816E-002  0.5428535E+03  0.7818608E-02  0.1003162E+00
         21   -1    0    0  501  502  0.00000000000E+00  0.00000000000E+00  0.31708955867E+03  0.31708955867E+03  0.00000000000E+00 0. -1.
         21   -1    0    0  502  503 -0.00000000000E+00 -0.00000000000E+00 -0.93518204118E+03  0.93518204118E+03  0.00000000000E+00 0.  1.
    9000007    1    1    2  501    0  0.36535633315E+03  0.34708411062E+02 -0.25963696845E+03  0.60174851837E+03  0.40000000000E+03 0.  1.
   -9000007    1    1    2    0  503 -0.36535633315E+03 -0.34708411062E+02 -0.35845551407E+03  0.65052308148E+03  0.40000000000E+03 0.  1.
<mgrwt>
<rscale>  2 0.54285350E+03</rscale>
<asrwt>0</asrwt>
<pdfrwt beam="1">  1       21 0.48783009E-01 0.54285350E+03</pdfrwt>
<pdfrwt beam="2">  1       21 0.14387416E+00 0.54285350E+03</pdfrwt>
<totfact> 0.10942368E+03</totfact>
</mgrwt>
</event>
<event>
 4    1  0.4716816E-002  0.4439427E+03  0.7818608E-02  0.1029544E+00
         21   -1    0    0  503  502  0.00000000000E+00  0.00000000000E+00  0.11061359572E+04  0.11061359572E+04  0.00000000000E+00 0.  1.
         21   -1    0    0  501  503 -0.00000000000E+00 -0.00000000000E+00 -0.33108409831E+03  0.33108409831E+03  0.00000000000E+00 0. -1.
    9000007    1    1    2  501    0 -0.19950742301E+02  0.19153876278E+03 -0.10083577744E+03  0.45525046269E+03  0.40000000000E+03 0. -1.
   -9000007    1    1    2    0  502  0.19950742301E+02 -0.19153876278E+03  0.87588763636E+03  0.98196959285E+03  0.40000000000E+03 0.  1.
<mgrwt>
<rscale>  2 0.44394271E+03</rscale>
<asrwt>0</asrwt>
<pdfrwt beam="1">  1       21 0.17017476E+00 0.44394271E+03</pdfrwt>
<pdfrwt beam="2">  1       21 0.50936016E-01 0.44394271E+03</pdfrwt>
<totfact> 0.65226360E+02</totfact>
</mgrwt>
</event>
<event>
 4    1  0.4716816E-002  0.4099431E+03  0.7818608E-02  0.1040390E+00
         21   -1    0    0  501  502  0.00000000000E+00  0.00000000000E+00  0.48026874734E+03  0.48026874734E+03  0.00000000000E+00 0.  1.
         21   -1    0    0  502  503 -0.00000000000E+00 -0.00000000000E+00 -0.52133212630E+03  0.52133212630E+03  0.00000000000E+00 0. -1.
    9000007    1    1    2  501    0 -0.57798872952E+02 -0.68648590762E+02 -0.30769853402E+03  0.51257363038E+03  0.40000000000E+03 0. -1.
   -9000007    1    1    2    0  503  0.57798872952E+02  0.68648590762E+02  0.26663515506E+03  0.48902724325E+03  0.40000000000E+03 0.  1.
<mgrwt>
<rscale>  2 0.40994309E+03</rscale>
<asrwt>0</asrwt>
<pdfrwt beam="1">  1       21 0.73887500E-01 0.40994309E+03</pdfrwt>
<pdfrwt beam="2">  1       21 0.80204942E-01 0.40994309E+03</pdfrwt>
<totfact> 0.19703375E+03</totfact>
</mgrwt>
</event>
<event>
 4    1  0.4716816E-002  0.4567564E+03  0.7818608E-02  0.1025726E+00
         21   -1    0    0  501  502  0.00000000000E+00  0.00000000000E+00  0.53810807728E+03  0.53810807728E+03  0.00000000000E+00 0. -1.
         21   -1    0    0  502  503 -0.00000000000E+00 -0.00000000000E+00 -0.72558217558E+03  0.72558217558E+03  0.00000000000E+00 0. -1.
    9000007    1    1    2  501    0  0.17421192011E+03  0.13519114148E+03  0.33743208698E+03  0.56787925756E+03  0.40000000000E+03 0. -1.
   -9000007    1    1    2    0  503 -0.17421192011E+03 -0.13519114148E+03 -0.52490618528E+03  0.69581099531E+03  0.40000000000E+03 0. -1.
<mgrwt>
<rscale>  2 0.45675643E+03</rscale>
<asrwt>0</asrwt>
<pdfrwt beam="1">  1       21 0.82785858E-01 0.45675643E+03</pdfrwt>
<pdfrwt beam="2">  1       21 0.11162803E+00 0.45675643E+03</pdfrwt>
<totfact> 0.67364969E+02</totfact>
</mgrwt>
</event>
<event>
 4    1  0.4716816E-002  0.5270139E+03  0.7818608E-02  0.1006959E+00
         21   -1    0    0  503  502  0.00000000000E+00  0.00000000000E+00  0.24475310333E+03  0.24475310333E+03  0.00000000000E+00 0.  1.
         21   -1    0    0  501  503 -0.00000000000E+00 -0.00000000000E+00 -0.15855238280E+04  0.15855238280E+04  0.00000000000E+00 0.  1.
    9000007    1    1    2  501    0  0.22039278953E+03 -0.26300319161E+03 -0.11583180762E+04  0.12725739374E+04  0.40000000000E+03 0.  1.
   -9000007    1    1    2    0  502 -0.22039278953E+03  0.26300319161E+03 -0.18245264842E+03  0.55770299389E+03  0.40000000000E+03 0.  1.
<mgrwt>
<rscale>  2 0.52701391E+03</rscale>
<asrwt>0</asrwt>
<pdfrwt beam="1">  1       21 0.37654323E-01 0.52701391E+03</pdfrwt>
<pdfrwt beam="2">  1       21 0.24392675E+00 0.52701391E+03</pdfrwt>
<totfact> 0.38244403E+02</totfact>
</mgrwt>
</event>
<event>
 4    1  0.4716816E-002  0.4005760E+03  0.7818608E-02  0.1043580E+00
         21   -1    0    0  501  502  0.00000000000E+00  0.00000000000E+00  0.25856743243E+03  0.25856743243E+03  0.00000000000E+00 0. -1.
         21   -1    0    0  502  503 -0.00000000000E+00 -0.00000000000E+00 -0.97397555119E+03  0.97397555119E+03  0.00000000000E+00 0. -1.
    9000007    1    1    2  501    0 -0.15585216746E+01  0.21418265565E+02  0.13514798165E+02  0.40080396812E+03  0.40000000000E+03 0. -1.
   -9000007    1    1    2    0  503  0.15585216746E+01 -0.21418265565E+02 -0.72892291692E+03  0.83173901550E+03  0.40000000000E+03 0. -1.
<mgrwt>
<rscale>  2 0.40057605E+03</rscale>
<asrwt>0</asrwt>
<pdfrwt beam="1">  1       21 0.39779606E-01 0.40057605E+03</pdfrwt>
<pdfrwt beam="2">  1       21 0.14984239E+00 0.40057605E+03</pdfrwt>
<totfact> 0.15891888E+03</totfact>
</mgrwt>
</event>
<event>
 4    1  0.4716816E-002  0.4181524E+03  0.7818608E-02  0.1037669E+00
         21   -1    0    0  503  502  0.00000000000E+00  0.00000000000E+00  0.33451566134E+03  0.33451566134E+03  0.00000000000E+00 0. -1.
         21   -1    0    0  501  503 -0.00000000000E+00 -0.00000000000E+00 -0.52409870923E+03  0.52409870923E+03  0.00000000000E+00 0.  1.
    9000007    1    1    2  501    0 -0.87353380176E+02  0.84975328309E+02 -0.72615346583E+02  0.42441065963E+03  0.40000000000E+03 0. -1.
   -9000007    1    1    2    0  502  0.87353380176E+02 -0.84975328309E+02 -0.11696770131E+03  0.43420371094E+03  0.40000000000E+03 0.  1.
<mgrwt>
<rscale>  2 0.41815239E+03</rscale>
<asrwt>0</asrwt>
<pdfrwt beam="1">  1       21 0.51463948E-01 0.41815239E+03</pdfrwt>
<pdfrwt beam="2">  1       21 0.80630571E-01 0.41815239E+03</pdfrwt>
<totfact> 0.42975584E+03</totfact>
</mgrwt>
</event>
<event>
 4    1  0.4716816E-002  0.4205950E+03  0.7818608E-02  0.1036873E+00
         21   -1    0    0  503  502  0.00000000000E+00  0.00000000000E+00  0.11022401363E+04  0.11022401363E+04  0.00000000000E+00 0. -1.
         21   -1    0    0  501  503 -0.00000000000E+00 -0.00000000000E+00 -0.19803495717E+03  0.19803495717E+03  0.00000000000E+00 0. -1.
    9000007    1    1    2  501    0  0.24495543450E+02  0.12767195756E+03  0.16902759023E+03  0.45328852473E+03  0.40000000000E+03 0. -1.
   -9000007    1    1    2    0  502 -0.24495543450E+02 -0.12767195756E+03  0.73517758893E+03  0.84698656876E+03  0.40000000000E+03 0. -1.
<mgrwt>
<rscale>  2 0.42059501E+03</rscale>
<asrwt>0</asrwt>
<pdfrwt beam="1">  1       21 0.16957540E+00 0.42059501E+03</pdfrwt>
<pdfrwt beam="2">  1       21 0.30466917E-01 0.42059501E+03</pdfrwt>
<totfact> 0.19153332E+03</totfact>
</mgrwt>
</event>
<event>
 4    1  0.4716816E-002  0.4404684E+03  0.7818608E-02  0.1030603E+00
         21   -1    0    0  501  502  0.00000000000E+00  0.00000000000E+00  0.76061507083E+03  0.76061507083E+03  0.00000000000E+00 0. -1.
         21   -1    0    0  502  503 -0.00000000000E+00 -0.00000000000E+00 -0.26851364196E+03  0.26851364196E+03  0.00000000000E+00 0. -1.
    9000007    1    1    2  501    0 -0.15946999057E+03  0.92637428032E+02  0.36117487176E+03  0.56961360496E+03  0.40000000000E+03 0.  1.
   -9000007    1    1    2    0  503  0.15946999057E+03 -0.92637428032E+02  0.13092655710E+03  0.45951510783E+03  0.40000000000E+03 0.  1.
<mgrwt>
<rscale>  2 0.44046835E+03</rscale>
<asrwt>0</asrwt>
<pdfrwt beam="1">  1       21 0.11701770E+00 0.44046835E+03</pdfrwt>
<pdfrwt beam="2">  1       21 0.41309791E-01 0.44046835E+03</pdfrwt>
<totfact> 0.27565048E+03</totfact>
</mgrwt>
</event>
<event>
 4    1  0.4716816E-002  0.6079607E+03  0.7818608E-02  0.9889026E-01
         21   -1    0    0  503  502  0.00000000000E+00  0.00000000000E+00  0.12050942939E+04  0.12050942939E+04  0.00000000000E+00 0. -1.
         21   -1    0    0  501  503 -0.00000000000E+00 -0.00000000000E+00 -0.94542711390E+03  0.94542711390E+03  0.00000000000E+00 0. -1.
    9000007    1    1    2  501    0 -0.41291289390E+03  0.19778555707E+03 -0.75396548131E+03  0.96854536886E+03  0.40000000000E+03 0. -1.
   -9000007    1    1    2    0  502  0.41291289390E+03 -0.19778555707E+03  0.10136326613E+04  0.11819760389E+04  0.40000000000E+03 0. -1.
<mgrwt>
<rscale>  2 0.60796068E+03</rscale>
<asrwt>0</asrwt>
<pdfrwt beam="1">  1       21 0.18539912E+00 0.60796068E+03</pdfrwt>
<pdfrwt beam="2">  1       21 0.14545032E+00 0.60796068E+03</pdfrwt>
<totfact> 0.38908188E+01</totfact>
</mgrwt>
</event>
<event>
 4    1  0.4716816E-002  0.4941861E+03  0.7818608E-02  0.1015308E+00
         21   -1    0    0  503  502  0.00000000000E+00  0.00000000000E+00  0.77612527342E+03  0.77612527342E+03  0.00000000000E+00 0. -1.
         21   -1    0    0  501  503 -0.00000000000E+00 -0.00000000000E+00 -0.31498979756E+03  0.31498979756E+03  0.00000000000E+00 0.  1.
    9000007    1    1    2  501    0 -0.74339191882E+02 -0.28052381612E+03  0.24807005064E+03  0.55295449802E+03  0.40000000000E+03 0. -1.
   -9000007    1    1    2    0  502  0.74339191882E+02  0.28052381612E+03  0.21306542523E+03  0.53816057296E+03  0.40000000000E+03 0. -1.
<mgrwt>
<rscale>  2 0.49418613E+03</rscale>
<asrwt>0</asrwt>
<pdfrwt beam="1">  1       21 0.11940389E+00 0.49418613E+03</pdfrwt>
<pdfrwt beam="2">  1       21 0.48459969E-01 0.49418613E+03</pdfrwt>
<totfact> 0.18384554E+03</totfact>
</mgrwt>
</event>
<event>
 4    1  0.4716816E-002  0.4216649E+03  0.7818608E-02  0.1036526E+00
         21   -1    0    0  501  502  0.00000000000E+00  0.00000000000E+00  0.81597069552E+03  0.81597069552E+03  0.00000000000E+00 0.  1.
         21   -1    0    0  502  503 -0.00000000000E+00 -0.00000000000E+00 -0.33753259315E+03  0.33753259315E+03  0.00000000000E+00 0.  1.
    9000007    1    1    2  501    0  0.97750567973E+02  0.90807891716E+02  0.58258166056E+03  0.71916801789E+03  0.40000000000E+03 0.  1.
   -9000007    1    1    2    0  503 -0.97750567973E+02 -0.90807891716E+02 -0.10414355819E+03  0.43433527079E+03  0.40000000000E+03 0.  1.
<mgrwt>
<rscale>  2 0.42166485E+03</rscale>
<asrwt>0</asrwt>
<pdfrwt beam="1">  1       21 0.12553395E+00 0.42166485E+03</pdfrwt>
<pdfrwt beam="2">  1       21 0.51928091E-01 0.42166485E+03</pdfrwt>
<totfact> 0.14358740E+03</totfact>
</mgrwt>
</event>
<event>
 4    1  0.4716816E-002  0.4038492E+03  0.7818608E-02  0.1042455E+00
         21   -1    0    0  503  502  0.00000000000E+00  0.00000000000E+00  0.18697567913E+04  0.18697567913E+04  0.00000000000E+00 0. -1.
         21   -1    0    0  501  503 -0.00000000000E+00 -0.00000000000E+00 -0.98217891292E+02  0.98217891292E+02  0.00000000000E+00 0. -1.
    9000007    1    1    2  501    0  0.35192065411E+02  0.43077932410E+02  0.55661403387E+03  0.68768697271E+03  0.40000000000E+03 0. -1.
   -9000007    1    1    2    0  502 -0.35192065411E+02 -0.43077932410E+02  0.12149248662E+04  0.12802877099E+04  0.40000000000E+03 0. -1.
<mgrwt>
<rscale>  2 0.40384922E+03</rscale>
<asrwt>0</asrwt>
<pdfrwt beam="1">  1       21 0.28765487E+00 0.40384922E+03</pdfrwt>
<pdfrwt beam="2">  1       21 0.15110446E-01 0.40384922E+03</pdfrwt>
<totfact> 0.12997391E+03</totfact>
</mgrwt>
</event>
<event>
 4    1  0.4716816E-002  0.5684937E+03  0.7818608E-02  0.9973017E-01
         21   -1    0    0  501  502  0.00000000000E+00  0.00000000000E+00  0.71315672595E+03  0.71315672595E+03  0.00000000000E+00 0.  1.
         21   -1    0    0  502  503 -0.00000000000E+00 -0.00000000000E+00 -0.15882894489E+04  0.15882894489E+04  0.00000000000E+00 0. -1.
    9000007    1    1    2  501    0  0.26289217735E+03 -0.30671286558E+03  0.53523854446E+03  0.78081071861E+03  0.40000000000E+03 0.  1.
   -9000007    1    1    2    0  503 -0.26289217735E+03  0.30671286558E+03 -0.14103712674E+04  0.15206354562E+04  0.40000000000E+03 0. -1.
<mgrwt>
<rscale>  2 0.56849369E+03</rscale>
<asrwt>0</asrwt>
<pdfrwt beam="1">  1       21 0.10971642E+00 0.56849369E+03</pdfrwt>
<pdfrwt beam="2">  1       21 0.24435222E+00 0.56849369E+03</pdfrwt>
<totfact> 0.33852441E+01</totfact>
</mgrwt>
</event>
<event>
 4    1  0.4716816E-002  0.4050940E+03  0.7818608E-02  0.1042030E+00
         21   -1    0    0  503  502  0.00000000000E+00  0.00000000000E+00  0.12045261657E+04  0.12045261657E+04  0.00000000000E+00 0. -1.
         21   -1    0    0  501  503 -0.00000000000E+00 -0.00000000000E+00 -0.24188304842E+03  0.24188304842E+03  0.00000000000E+00 0. -1.
    9000007    1    1    2  501    0 -0.35111775839E+02 -0.53556553346E+02  0.95927424671E+03  0.10413012156E+04  0.40000000000E+03 0. -1.
   -9000007    1    1    2    0  502  0.35111775839E+02  0.53556553346E+02  0.33688706017E+01  0.40510799856E+03  0.40000000000E+03 0. -1.
<mgrwt>
<rscale>  2 0.40509399E+03</rscale>
<asrwt>0</asrwt>
<pdfrwt beam="1">  1       21 0.18531171E+00 0.40509399E+03</pdfrwt>
<pdfrwt beam="2">  1       21 0.37212778E-01 0.40509399E+03</pdfrwt>
<totfact> 0.99829150E+02</totfact>
</mgrwt>
</event>
<event>
 4    1  0.4716816E-002  0.4601926E+03  0.7818608E-02  0.1024725E+00
         21   -1    0    0  501  502  0.00000000000E+00  0.00000000000E+00  0.11137035417E+04  0.11137035417E+04  0.00000000000E+00 0. -1.
         21   -1    0    0  502  503 -0.00000000000E+00 -0.00000000000E+00 -0.19526849517E+03  0.19526849517E+03  0.00000000000E+00 0. -1.
    9000007    1    1    2  501    0 -0.17712573252E+03 -0.14284153881E+03  0.56512036575E+03  0.72879232853E+03  0.40000000000E+03 0. -1.
   -9000007    1    1    2    0  503  0.17712573252E+03  0.14284153881E+03  0.35331468080E+03  0.58017970837E+03  0.40000000000E+03 0. -1.
<mgrwt>
<rscale>  2 0.46019260E+03</rscale>
<asrwt>0</asrwt>
<pdfrwt beam="1">  1       21 0.17133900E+00 0.46019260E+03</pdfrwt>
<pdfrwt beam="2">  1       21 0.30041308E-01 0.46019260E+03</pdfrwt>
<totfact> 0.18810256E+03</totfact>
</mgrwt>
</event>
<event>
 4    1  0.4716816E-002  0.5489648E+03  0.7818608E-02  0.1001734E+00
         21   -1    0    0  501  502  0.00000000000E+00  0.00000000000E+00  0.15354451770E+04  0.15354451770E+04  0.00000000000E+00 0. -1.
         21   -1    0    0  502  503 -0.00000000000E+00 -0.00000000000E+00 -0.39302945372E+03  0.39302945372E+03  0.00000000000E+00 0.  1.
    9000007    1    1    2  501    0  0.30469907731E+02  0.37474509430E+03  0.12534504830E+04  0.13683933698E+04  0.40000000000E+03 0. -1.
   -9000007    1    1    2    0  503 -0.30469907731E+02 -0.37474509430E+03 -0.11103475977E+03  0.56008126094E+03  0.40000000000E+03 0.  1.
<mgrwt>
<rscale>  2 0.54896475E+03</rscale>
<asrwt>0</asrwt>
<pdfrwt beam="1">  1       21 0.23622233E+00 0.54896475E+03</pdfrwt>
<pdfrwt beam="2">  1       21 0.60466070E-01 0.54896475E+03</pdfrwt>
<totfact> 0.15481161E+02</totfact>
</mgrwt>
</event>
<event>
 4    1  0.4716816E-002  0.4536568E+03  0.7818608E-02  0.1026637E+00
         21   -1    0    0  501  502  0.00000000000E+00  0.00000000000E+00  0.12198033132E+04  0.12198033132E+04  0.00000000000E+00 0. -1.
         21   -1    0    0  502  503 -0.00000000000E+00 -0.00000000000E+00 -0.18337495888E+03  0.18337495888E+03  0.00000000000E+00 0.  1.
    9000007    1    1    2  501    0 -0.12469417099E+03  0.17394199565E+03  0.31987231552E+03  0.55508805821E+03  0.40000000000E+03 0. -1.
   -9000007    1    1    2    0  503  0.12469417099E+03 -0.17394199565E+03  0.71655603879E+03  0.84809021387E+03  0.40000000000E+03 0. -1.
<mgrwt>
<rscale>  2 0.45365676E+03</rscale>
<asrwt>0</asrwt>
<pdfrwt beam="1">  1       21 0.18766204E+00 0.45365676E+03</pdfrwt>
<pdfrwt beam="2">  1       21 0.28211533E-01 0.45365676E+03</pdfrwt>
<totfact> 0.16378763E+03</totfact>
</mgrwt>
</event>
<event>
 4    1  0.4716816E-002  0.5460573E+03  0.7818608E-02  0.1002411E+00
         21   -1    0    0  503  502  0.00000000000E+00  0.00000000000E+00  0.64631953838E+03  0.64631953838E+03  0.00000000000E+00 0. -1.
         21   -1    0    0  501  503 -0.00000000000E+00 -0.00000000000E+00 -0.56641575196E+03  0.56641575196E+03  0.00000000000E+00 0. -1.
    9000007    1    1    2  501    0  0.35235257697E+03 -0.11843264074E+03  0.30110896575E+03  0.62357456503E+03  0.40000000000E+03 0. -1.
   -9000007    1    1    2    0  502 -0.35235257697E+03  0.11843264074E+03 -0.22120517932E+03  0.58916072531E+03  0.40000000000E+03 0. -1.
<mgrwt>
<rscale>  2 0.54605735E+03</rscale>
<asrwt>0</asrwt>
<pdfrwt beam="1">  1       21 0.99433775E-01 0.54605735E+03</pdfrwt>
<pdfrwt beam="2">  1       21 0.87140885E-01 0.54605735E+03</pdfrwt>
<totfact> 0.76786831E+02</totfact>
</mgrwt>
</event>
<event>
 4    1  0.4716816E-002  0.4458913E+03  0.7818608E-02  0.1028954E+00
         21   -1    0    0  501  502  0.00000000000E+00  0.00000000000E+00  0.16332641451E+03  0.16332641451E+03  0.00000000000E+00 0. -1.
         21   -1    0    0  502  503 -0.00000000000E+00 -0.00000000000E+00 -0.25117842229E+04  0.25117842229E+04  0.00000000000E+00 0. -1.
    9000007    1    1    2  501    0  0.60861050716E+02  0.18738989923E+03 -0.21401691724E+03  0.49459304756E+03  0.40000000000E+03 0. -1.
   -9000007    1    1    2    0  503 -0.60861050716E+02 -0.18738989923E+03 -0.21344408911E+04  0.21805175898E+04  0.40000000000E+03 0. -1.
<mgrwt>
<rscale>  2 0.44589129E+03</rscale>
<asrwt>0</asrwt>
<pdfrwt beam="1">  1       21 0.25127139E-01 0.44589129E+03</pdfrwt>
<pdfrwt beam="2">  1       21 0.38642836E+00 0.44589129E+03</pdfrwt>
<totfact> 0.12042015E+02</totfact>
</mgrwt>
</event>
<event>
 4    1  0.4716816E-002  0.4014983E+03  0.7818608E-02  0.1043262E+00
         21   -1    0    0  501  502  0.00000000000E+00  0.00000000000E+00  0.31773338201E+03  0.31773338201E+03  0.00000000000E+00 0.  1.
         21   -1    0    0  502  503 -0.00000000000E+00 -0.00000000000E+00 -0.60153688907E+03  0.60153688907E+03  0.00000000000E+00 0.  1.
    9000007    1    1    2  501    0 -0.29688704876E+02  0.17873561349E+02  0.39978538538E+02  0.40348378770E+03  0.40000000000E+03 0.  1.
   -9000007    1    1    2    0  503  0.29688704876E+02 -0.17873561349E+02 -0.32378204559E+03  0.51578648338E+03  0.40000000000E+03 0.  1.
<mgrwt>
<rscale>  2 0.40149830E+03</rscale>
<asrwt>0</asrwt>
<pdfrwt beam="1">  1       21 0.48882059E-01 0.40149830E+03</pdfrwt>
<pdfrwt beam="2">  1       21 0.92544137E-01 0.40149830E+03</pdfrwt>
<totfact> 0.34933526E+03</totfact>
</mgrwt>
</event>
<event>
 4    1  0.4716816E-002  0.5019010E+03  0.7818608E-02  0.1013284E+00
         21   -1    0    0  503  502  0.00000000000E+00  0.00000000000E+00  0.24006591336E+04  0.24006591336E+04  0.00000000000E+00 0.  1.
         21   -1    0    0  501  503 -0.00000000000E+00 -0.00000000000E+00 -0.16055593224E+03  0.16055593224E+03  0.00000000000E+00 0. -1.
    9000007    1    1    2  501    0  0.26581200728E+03  0.14576900244E+03  0.36628672727E+03  0.62134579089E+03  0.40000000000E+03 0. -1.
   -9000007    1    1    2    0  502 -0.26581200728E+03 -0.14576900244E+03  0.18738164741E+04  0.19398692749E+04  0.40000000000E+03 0.  1.
<mgrwt>
<rscale>  2 0.50190101E+03</rscale>
<asrwt>0</asrwt>
<pdfrwt beam="1">  1       21 0.36933215E+00 0.50190101E+03</pdfrwt>
<pdfrwt beam="2">  1       21 0.24700914E-01 0.50190101E+03</pdfrwt>
<totfact> 0.15379177E+02</totfact>
</mgrwt>
</event>
<event>
 4    1  0.4716816E-002  0.4295333E+03  0.7818608E-02  0.1034007E+00
         21   -1    0    0  503  502  0.00000000000E+00  0.00000000000E+00  0.18771831004E+03  0.18771831004E+03  0.00000000000E+00 0.  1.
         21   -1    0    0  501  503 -0.00000000000E+00 -0.00000000000E+00 -0.24914793994E+04  0.24914793994E+04  0.00000000000E+00 0.  1.
    9000007    1    1    2  501    0 -0.12180786125E+03  0.98293890535E+02 -0.21942879191E+04  0.22359334328E+04  0.40000000000E+03 0.  1.
   -9000007    1    1    2    0  502  0.12180786125E+03 -0.98293890535E+02 -0.10947317030E+03  0.44326427670E+03  0.40000000000E+03 0.  1.
<mgrwt>
<rscale>  2 0.42953329E+03</rscale>
<asrwt>0</asrwt>
<pdfrwt beam="1">  1       21 0.28879740E-01 0.42953329E+03</pdfrwt>
<pdfrwt beam="2">  1       21 0.38330453E+00 0.42953329E+03</pdfrwt>
<totfact> 0.97033173E+01</totfact>
</mgrwt>
</event>
<event>
 4    1  0.4716816E-002  0.4219421E+03  0.7818608E-02  0.1036436E+00
         21   -1    0    0  501  502  0.00000000000E+00  0.00000000000E+00  0.70920928202E+03  0.70920928202E+03  0.00000000000E+00 0. -1.
         21   -1    0    0  502  503 -0.00000000000E+00 -0.00000000000E+00 -0.25256340362E+03  0.25256340362E+03  0.00000000000E+00 0. -1.
    9000007    1    1    2  501    0  0.10349044144E+03  0.85585440568E+02  0.26575287870E+03  0.49865793049E+03  0.40000000000E+03 0. -1.
   -9000007    1    1    2    0  503 -0.10349044144E+03 -0.85585440568E+02  0.19089299970E+03  0.46311475515E+03  0.40000000000E+03 0. -1.
<mgrwt>
<rscale>  2 0.42194210E+03</rscale>
<asrwt>0</asrwt>
<pdfrwt beam="1">  1       21 0.10910912E+00 0.42194210E+03</pdfrwt>
<pdfrwt beam="2">  1       21 0.38855909E-01 0.42194210E+03</pdfrwt>
<totfact> 0.37479947E+03</totfact>
</mgrwt>
</event>
<event>
 4    1  0.4716816E-002  0.4607851E+03  0.7818608E-02  0.1024554E+00
         21   -1    0    0  501  502  0.00000000000E+00  0.00000000000E+00  0.16524845023E+04  0.16524845023E+04  0.00000000000E+00 0.  1.
         21   -1    0    0  502  503 -0.00000000000E+00 -0.00000000000E+00 -0.31083727342E+03  0.31083727342E+03  0.00000000000E+00 0.  1.
    9000007    1    1    2  501    0  0.86362207996E+02 -0.21181246986E+03  0.14227027341E+04  0.14954618092E+04  0.40000000000E+03 0.  1.
   -9000007    1    1    2    0  503 -0.86362207996E+02  0.21181246986E+03 -0.81055505152E+02  0.46785996652E+03  0.40000000000E+03 0.  1.
<mgrwt>
<rscale>  2 0.46078515E+03</rscale>
<asrwt>0</asrwt>
<pdfrwt beam="1">  1       21 0.25422838E+00 0.46078515E+03</pdfrwt>
<pdfrwt beam="2">  1       21 0.47821120E-01 0.46078515E+03</pdfrwt>
<totfact> 0.20765966E+02</totfact>
</mgrwt>
</event>
<event>
 4    1  0.4716816E-002  0.4449728E+03  0.7818608E-02  0.1029232E+00
         21   -1    0    0  501  502  0.00000000000E+00  0.00000000000E+00  0.11801863038E+04  0.11801863038E+04  0.00000000000E+00 0. -1.
         21   -1    0    0  502  503 -0.00000000000E+00 -0.00000000000E+00 -0.17518777264E+03  0.17518777264E+03  0.00000000000E+00 0. -1.
    9000007    1    1    2  501    0 -0.17892829821E+02 -0.19411496043E+03  0.64194054029E+03  0.78108157608E+03  0.40000000000E+03 0. -1.
   -9000007    1    1    2    0  503  0.17892829821E+02  0.19411496043E+03  0.36305799083E+03  0.57429250032E+03  0.40000000000E+03 0. -1.
<mgrwt>
<rscale>  2 0.44497278E+03</rscale>
<asrwt>0</asrwt>
<pdfrwt beam="1">  1       21 0.18156712E+00 0.44497278E+03</pdfrwt>
<pdfrwt beam="2">  1       21 0.26951966E-01 0.44497278E+03</pdfrwt>
<totfact> 0.19826702E+03</totfact>
</mgrwt>
</event>
<event>
 4    1  0.4716816E-002  0.4933688E+03  0.7818608E-02  0.1015524E+00
         21   -1    0    0  503  502  0.00000000000E+00  0.00000000000E+00  0.10895504642E+04  0.10895504642E+04  0.00000000000E+00 0. -1.
         21   -1    0    0  501  503 -0.00000000000E+00 -0.00000000000E+00 -0.93673415136E+03  0.93673415136E+03  0.00000000000E+00 0. -1.
    9000007    1    1    2  501    0  0.20173823720E+03 -0.20667470191E+03 -0.80770281114E+03  0.94646530833E+03  0.40000000000E+03 0. -1.
   -9000007    1    1    2    0  502 -0.20173823720E+03  0.20667470191E+03  0.96051912399E+03  0.10798193073E+04  0.40000000000E+03 0. -1.
<mgrwt>
<rscale>  2 0.49336878E+03</rscale>
<asrwt>0</asrwt>
<pdfrwt beam="1">  1       21 0.16762315E+00 0.49336878E+03</pdfrwt>
<pdfrwt beam="2">  1       21 0.14411295E+00 0.49336878E+03</pdfrwt>
<totfact> 0.56634392E+01</totfact>
</mgrwt>
</event>
<event>
 4    1  0.4716816E-002  0.6134752E+03  0.7818608E-02  0.9877837E-01
         21   -1    0    0  501  502  0.00000000000E+00  0.00000000000E+00  0.14653959154E+04  0.14653959154E+04  0.00000000000E+00 0.  1.
         21   -1    0    0  502  503 -0.00000000000E+00 -0.00000000000E+00 -0.35956676172E+03  0.35956676172E+03  0.00000000000E+00 0. -1.
    9000007    1    1    2  501    0  0.38554150437E+03 -0.26021073603E+03  0.10406737633E+04  0.12080371519E+04  0.40000000000E+03 0.  1.
   -9000007    1    1    2    0  503 -0.38554150437E+03  0.26021073603E+03  0.65155390351E+02  0.61692552519E+03  0.40000000000E+03 0. -1.
<mgrwt>
<rscale>  2 0.61347525E+03</rscale>
<asrwt>0</asrwt>
<pdfrwt beam="1">  1       21 0.22544552E+00 0.61347525E+03</pdfrwt>
<pdfrwt beam="2">  1       21 0.55317964E-01 0.61347525E+03</pdfrwt>
<totfact> 0.21428011E+02</totfact>
</mgrwt>
</event>
<event>
 4    1  0.4716816E-002  0.4039619E+03  0.7818608E-02  0.1042416E+00
         21   -1    0    0  503  502  0.00000000000E+00  0.00000000000E+00  0.14065545049E+03  0.14065545049E+03  0.00000000000E+00 0.  1.
         21   -1    0    0  501  503 -0.00000000000E+00 -0.00000000000E+00 -0.13234876281E+04  0.13234876281E+04  0.00000000000E+00 0.  1.
    9000007    1    1    2  501    0 -0.45381844368E+02 -0.33551982661E+02 -0.84857438102E+03  0.93982111461E+03  0.40000000000E+03 0.  1.
   -9000007    1    1    2    0  502  0.45381844368E+02  0.33551982661E+02 -0.33425779659E+03  0.52432196399E+03  0.40000000000E+03 0.  1.
<mgrwt>
<rscale>  2 0.40396194E+03</rscale>
<asrwt>0</asrwt>
<pdfrwt beam="1">  1       21 0.21639301E-01 0.40396194E+03</pdfrwt>
<pdfrwt beam="2">  1       21 0.20361347E+00 0.40396194E+03</pdfrwt>
<totfact> 0.21891231E+03</totfact>
</mgrwt>
</event>
<event>
 4    1  0.4716816E-002  0.5882471E+03  0.7818608E-02  0.9930094E-01
         21   -1    0    0  503  502  0.00000000000E+00  0.00000000000E+00  0.46186155252E+03  0.46186155252E+03  0.00000000000E+00 0. -1.
         21   -1    0    0  501  503 -0.00000000000E+00 -0.00000000000E+00 -0.75786641482E+03  0.75786641482E+03  0.00000000000E+00 0. -1.
    9000007    1    1    2  501    0  0.35557360385E+03  0.24413544898E+03 -0.82851546039E+02  0.59405309854E+03  0.40000000000E+03 0. -1.
   -9000007    1    1    2    0  502 -0.35557360385E+03 -0.24413544898E+03 -0.21315331626E+03  0.62567486879E+03  0.40000000000E+03 0. -1.
<mgrwt>
<rscale>  2 0.58824715E+03</rscale>
<asrwt>0</asrwt>
<pdfrwt beam="1">  1       21 0.71055623E-01 0.58824715E+03</pdfrwt>
<pdfrwt beam="2">  1       21 0.11659483E+00 0.58824715E+03</pdfrwt>
<totfact> 0.81749424E+02</totfact>
</mgrwt>
</event>
<event>
 4    1  0.4716816E-002  0.4345466E+03  0.7818608E-02  0.1032433E+00
         21   -1    0    0  503  502  0.00000000000E+00  0.00000000000E+00  0.43612983910E+03  0.43612983910E+03  0.00000000000E+00 0. -1.
         21   -1    0    0  501  503 -0.00000000000E+00 -0.00000000000E+00 -0.46967022662E+03  0.46967022662E+03  0.00000000000E+00 0. -1.
    9000007    1    1    2  501    0  0.15257027358E+03 -0.74518746403E+02 -0.14337368953E+03  0.45758796618E+03  0.40000000000E+03 0. -1.
   -9000007    1    1    2    0  502 -0.15257027358E+03  0.74518746403E+02  0.10983330201E+03  0.44821209954E+03  0.40000000000E+03 0. -1.
<mgrwt>
<rscale>  2 0.43454658E+03</rscale>
<asrwt>0</asrwt>
<pdfrwt beam="1">  1       21 0.67096899E-01 0.43454658E+03</pdfrwt>
<pdfrwt beam="2">  1       21 0.72256958E-01 0.43454658E+03</pdfrwt>
<totfact> 0.30774791E+03</totfact>
</mgrwt>
</event>
<event>
 4    1  0.4716816E-002  0.4046742E+03  0.7818608E-02  0.1042173E+00
         21   -1    0    0  501  502  0.00000000000E+00  0.00000000000E+00  0.61417233301E+03  0.61417233301E+03  0.00000000000E+00 0.  1.
         21   -1    0    0  502  503 -0.00000000000E+00 -0.00000000000E+00 -0.51682599758E+03  0.51682599758E+03  0.00000000000E+00 0.  1.
    9000007    1    1    2  501    0  0.39334424212E+02 -0.47052964750E+02  0.44212696437E+03  0.59936418899E+03  0.40000000000E+03 0.  1.
   -9000007    1    1    2    0  503 -0.39334424212E+02  0.47052964750E+02 -0.34478062895E+03  0.53163414160E+03  0.40000000000E+03 0.  1.
<mgrwt>
<rscale>  2 0.40467416E+03</rscale>
<asrwt>0</asrwt>
<pdfrwt beam="1">  1       21 0.94488051E-01 0.40467416E+03</pdfrwt>
<pdfrwt beam="2">  1       21 0.79511692E-01 0.40467416E+03</pdfrwt>
<totfact> 0.11369640E+03</totfact>
</mgrwt>
</event>
<event>
 4    1  0.4716816E-002  0.5198526E+03  0.7818608E-02  0.1008723E+00
         21   -1    0    0  501  502  0.00000000000E+00  0.00000000000E+00  0.85991582909E+03  0.85991582909E+03  0.00000000000E+00 0.  1.
         21   -1    0    0  502  503 -0.00000000000E+00 -0.00000000000E+00 -0.44742451651E+03  0.44742451651E+03  0.00000000000E+00 0.  1.
    9000007    1    1    2  501    0  0.17793354251E+03  0.28033271298E+03  0.56284027191E+03  0.76618271137E+03  0.40000000000E+03 0.  1.
   -9000007    1    1    2    0  503 -0.17793354251E+03 -0.28033271298E+03 -0.15034895932E+03  0.54115763423E+03  0.40000000000E+03 0.  1.
<mgrwt>
<rscale>  2 0.51985265E+03</rscale>
<asrwt>0</asrwt>
<pdfrwt beam="1">  1       21 0.13229474E+00 0.51985265E+03</pdfrwt>
<pdfrwt beam="2">  1       21 0.68834541E-01 0.51985265E+03</pdfrwt>
<totfact> 0.64931405E+02</totfact>
</mgrwt>
</event>
<event>
 4    1  0.4716816E-002  0.4666764E+03  0.7818608E-02  0.1022862E+00
         21   -1    0    0  501  502  0.00000000000E+00  0.00000000000E+00  0.36043782786E+03  0.36043782786E+03  0.00000000000E+00 0.  1.
         21   -1    0    0  502  503 -0.00000000000E+00 -0.00000000000E+00 -0.72392574200E+03  0.72392574200E+03  0.00000000000E+00 0. -1.
    9000007    1    1    2  501    0 -0.22786307774E+03 -0.76585340573E+02  0.38720985393E+02  0.46828005648E+03  0.40000000000E+03 0.  1.
   -9000007    1    1    2    0  503  0.22786307774E+03  0.76585340573E+02 -0.40220889954E+03  0.61608351338E+03  0.40000000000E+03 0. -1.
<mgrwt>
<rscale>  2 0.46667644E+03</rscale>
<asrwt>0</asrwt>
<pdfrwt beam="1">  1       21 0.55451974E-01 0.46667644E+03</pdfrwt>
<pdfrwt beam="2">  1       21 0.11137319E+00 0.46667644E+03</pdfrwt>
<totfact> 0.16570662E+03</totfact>
</mgrwt>
</event>
<event>
 4    1  0.4716816E-002  0.5103407E+03  0.7818608E-02  0.1011115E+00
         21   -1    0    0  503  502  0.00000000000E+00  0.00000000000E+00  0.31669277566E+03  0.31669277566E+03  0.00000000000E+00 0. -1.
         21   -1    0    0  501  503 -0.00000000000E+00 -0.00000000000E+00 -0.19227867309E+04  0.19227867309E+04  0.00000000000E+00 0. -1.
    9000007    1    1    2  501    0 -0.24736388405E+03 -0.19813824099E+03 -0.16501271441E+04  0.17272426713E+04  0.40000000000E+03 0. -1.
   -9000007    1    1    2    0  502  0.24736388405E+03  0.19813824099E+03  0.44033188923E+02  0.51223683526E+03  0.40000000000E+03 0. -1.
<mgrwt>
<rscale>  2 0.51034072E+03</rscale>
<asrwt>0</asrwt>
<pdfrwt beam="1">  1       21 0.48721965E-01 0.51034072E+03</pdfrwt>
<pdfrwt beam="2">  1       21 0.29581334E+00 0.51034072E+03</pdfrwt>
<totfact> 0.10857698E+02</totfact>
</mgrwt>
</event>
<event>
 4    1  0.4716816E-002  0.4194508E+03  0.7818608E-02  0.1037245E+00
         21   -1    0    0  503  502  0.00000000000E+00  0.00000000000E+00  0.22511697080E+03  0.22511697080E+03  0.00000000000E+00 0.  1.
         21   -1    0    0  501  503 -0.00000000000E+00 -0.00000000000E+00 -0.23678248092E+04  0.23678248092E+04  0.00000000000E+00 0.  1.
    9000007    1    1    2  501    0  0.79434022255E+02 -0.98128649406E+02 -0.21325066926E+04  0.21733669248E+04  0.40000000000E+03 0.  1.
   -9000007    1    1    2    0  502 -0.79434022255E+02  0.98128649406E+02 -0.10201145762E+02  0.41957485518E+03  0.40000000000E+03 0.  1.
<mgrwt>
<rscale>  2 0.41945083E+03</rscale>
<asrwt>0</asrwt>
<pdfrwt beam="1">  1       21 0.34633378E-01 0.41945083E+03</pdfrwt>
<pdfrwt beam="2">  1       21 0.36428076E+00 0.41945083E+03</pdfrwt>
<totfact> 0.89397723E+01</totfact>
</mgrwt>
</event>
<event>
 4    1  0.4716816E-002  0.4291765E+03  0.7818608E-02  0.1034120E+00
         21   -1    0    0  503  502  0.00000000000E+00  0.00000000000E+00  0.61670952233E+03  0.61670952233E+03  0.00000000000E+00 0. -1.
         21   -1    0    0  501  503 -0.00000000000E+00 -0.00000000000E+00 -0.39876895301E+03  0.39876895301E+03  0.00000000000E+00 0.  1.
    9000007    1    1    2  501    0 -0.13472680520E+03  0.77725128617E+02 -0.14541692177E+03  0.45314301142E+03  0.40000000000E+03 0.  1.
   -9000007    1    1    2    0  502  0.13472680520E+03 -0.77725128617E+02  0.36335749109E+03  0.56233546393E+03  0.40000000000E+03 0. -1.
<mgrwt>
<rscale>  2 0.42917655E+03</rscale>
<asrwt>0</asrwt>
<pdfrwt beam="1">  1       21 0.94878389E-01 0.42917655E+03</pdfrwt>
<pdfrwt beam="2">  1       21 0.61349069E-01 0.42917655E+03</pdfrwt>
<totfact> 0.19958672E+03</totfact>
</mgrwt>
</event>
<event>
 4    1  0.4716816E-002  0.4324699E+03  0.7818608E-02  0.1033083E+00
         21   -1    0    0  501  502  0.00000000000E+00  0.00000000000E+00  0.94438193737E+03  0.94438193737E+03  0.00000000000E+00 0.  1.
         21   -1    0    0  502  503 -0.00000000000E+00 -0.00000000000E+00 -0.45182637128E+03  0.45182637128E+03  0.00000000000E+00 0.  1.
    9000007    1    1    2  501    0 -0.15677151853E+03 -0.49527156678E+02  0.76947351092E+03  0.88267759249E+03  0.40000000000E+03 0.  1.
   -9000007    1    1    2    0  503  0.15677151853E+03  0.49527156678E+02 -0.27691794484E+03  0.51353071616E+03  0.40000000000E+03 0.  1.
<mgrwt>
<rscale>  2 0.43246994E+03</rscale>
<asrwt>0</asrwt>
<pdfrwt beam="1">  1       21 0.14528953E+00 0.43246994E+03</pdfrwt>
<pdfrwt beam="2">  1       21 0.69511749E-01 0.43246994E+03</pdfrwt>
<totfact> 0.51416740E+02</totfact>
</mgrwt>
</event>
<event>
 4    1  0.4716816E-002  0.4266907E+03  0.7818608E-02  0.1034910E+00
         21   -1    0    0  503  502  0.00000000000E+00  0.00000000000E+00  0.49603648789E+03  0.49603648789E+03  0.00000000000E+00 0. -1.
         21   -1    0    0  501  503 -0.00000000000E+00 -0.00000000000E+00 -0.39200324169E+03  0.39200324169E+03  0.00000000000E+00 0. -1.
    9000007    1    1    2  501    0  0.48442417273E+02 -0.14042169775E+03 -0.60033806176E+02  0.43089323373E+03  0.40000000000E+03 0. -1.
   -9000007    1    1    2    0  502 -0.48442417273E+02  0.14042169775E+03  0.16406705238E+03  0.45714649585E+03  0.40000000000E+03 0. -1.
<mgrwt>
<rscale>  2 0.42669066E+03</rscale>
<asrwt>0</asrwt>
<pdfrwt beam="1">  1       21 0.76313306E-01 0.42669066E+03</pdfrwt>
<pdfrwt beam="2">  1       21 0.60308191E-01 0.42669066E+03</pdfrwt>
<totfact> 0.34510294E+03</totfact>
</mgrwt>
</event>
<event>
 4    1  0.4716816E-002  0.4028632E+03  0.7818608E-02  0.1042793E+00
         21   -1    0    0  501  502  0.00000000000E+00  0.00000000000E+00  0.24127147745E+04  0.24127147745E+04  0.00000000000E+00 0.  1.
         21   -1    0    0  502  503 -0.00000000000E+00 -0.00000000000E+00 -0.10447803176E+03  0.10447803176E+03  0.00000000000E+00 0.  1.
    9000007    1    1    2  501    0  0.45474554969E+02  0.15192179264E+02  0.19052281825E+04  0.19473554285E+04  0.40000000000E+03 0.  1.
   -9000007    1    1    2    0  503 -0.45474554969E+02 -0.15192179264E+02  0.40300856016E+03  0.56983737770E+03  0.40000000000E+03 0.  1.
<mgrwt>
<rscale>  2 0.40286317E+03</rscale>
<asrwt>0</asrwt>
<pdfrwt beam="1">  1       21 0.37118685E+00 0.40286317E+03</pdfrwt>
<pdfrwt beam="2">  1       21 0.16073545E-01 0.40286317E+03</pdfrwt>
<totfact> 0.36183076E+02</totfact>
</mgrwt>
</event>
<event>
 4    1  0.4716816E-002  0.4479071E+03  0.7818608E-02  0.1028348E+00
         21   -1    0    0  503  502  0.00000000000E+00  0.00000000000E+00  0.13961680844E+04  0.13961680844E+04  0.00000000000E+00 0. -1.
         21   -1    0    0  501  503 -0.00000000000E+00 -0.00000000000E+00 -0.19636092443E+03  0.19636092443E+03  0.00000000000E+00 0. -1.
    9000007    1    1    2  501    0 -0.10698474328E+03  0.17080692099E+03  0.18752176890E+03  0.48557713431E+03  0.40000000000E+03 0. -1.
   -9000007    1    1    2    0  502  0.10698474328E+03 -0.17080692099E+03  0.10122853911E+04  0.11069518745E+04  0.40000000000E+03 0. -1.
<mgrwt>
<rscale>  2 0.44790707E+03</rscale>
<asrwt>0</asrwt>
<pdfrwt beam="1">  1       21 0.21479508E+00 0.44790707E+03</pdfrwt>
<pdfrwt beam="2">  1       21 0.30209374E-01 0.44790707E+03</pdfrwt>
<totfact> 0.94601938E+02</totfact>
</mgrwt>
</event>
<event>
 4    1  0.4716816E-002  0.4735736E+03  0.7818608E-02  0.1020916E+00
         21   -1    0    0  501  502  0.00000000000E+00  0.00000000000E+00  0.72120898246E+03  0.72120898246E+03  0.00000000000E+00 0.  1.
         21   -1    0    0  502  503 -0.00000000000E+00 -0.00000000000E+00 -0.37547788495E+03  0.37547788495E+03  0.00000000000E+00 0.  1.
    9000007    1    1    2  501    0 -0.25297469239E+03  0.16605566921E+02 -0.54423311132E+02  0.47669050403E+03  0.40000000000E+03 0.  1.
   -9000007    1    1    2    0  503  0.25297469239E+03 -0.16605566921E+02  0.40015440865E+03  0.61999636338E+03  0.40000000000E+03 0.  1.
<mgrwt>
<rscale>  2 0.47357358E+03</rscale>
<asrwt>0</asrwt>
<pdfrwt beam="1">  1       21 0.11095523E+00 0.47357358E+03</pdfrwt>
<pdfrwt beam="2">  1       21 0.57765829E-01 0.47357358E+03</pdfrwt>
<totfact> 0.15266120E+03</totfact>
</mgrwt>
</event>
<event>
 4    1  0.4716816E-002  0.4717238E+03  0.7818608E-02  0.1021435E+00
         21   -1    0    0  501  502  0.00000000000E+00  0.00000000000E+00  0.22743243847E+03  0.22743243847E+03  0.00000000000E+00 0. -1.
         21   -1    0    0  502  503 -0.00000000000E+00 -0.00000000000E+00 -0.13156876323E+04  0.13156876323E+04  0.00000000000E+00 0. -1.
    9000007    1    1    2  501    0 -0.21200029878E+03  0.13258652157E+03 -0.15348115725E+03  0.49606428819E+03  0.40000000000E+03 0. -1.
   -9000007    1    1    2    0  503  0.21200029878E+03 -0.13258652157E+03 -0.93477403658E+03  0.10470557826E+04  0.40000000000E+03 0. -1.
<mgrwt>
<rscale>  2 0.47172377E+03</rscale>
<asrwt>0</asrwt>
<pdfrwt beam="1">  1       21 0.34989607E-01 0.47172377E+03</pdfrwt>
<pdfrwt beam="2">  1       21 0.20241348E+00 0.47172377E+03</pdfrwt>
<totfact> 0.83973214E+02</totfact>
</mgrwt>
</event>
<event>
 4    1  0.4716816E-002  0.5643192E+03  0.7818608E-02  0.9982329E-01
         21   -1    0    0  503  502  0.00000000000E+00  0.00000000000E+00  0.15556020386E+04  0.15556020386E+04  0.00000000000E+00 0.  1.
         21   -1    0    0  501  503 -0.00000000000E+00 -0.00000000000E+00 -0.47247818471E+03  0.47247818471E+03  0.00000000000E+00 0. -1.
    9000007    1    1    2  501    0  0.39045982428E+03 -0.77441854509E+02 -0.22181519831E+03  0.60634816517E+03  0.40000000000E+03 0. -1.
   -9000007    1    1    2    0  502 -0.39045982428E+03  0.77441854509E+02  0.13049390522E+04  0.14217320581E+04  0.40000000000E+03 0.  1.
<mgrwt>
<rscale>  2 0.56431916E+03</rscale>
<asrwt>0</asrwt>
<pdfrwt beam="1">  1       21 0.23932339E+00 0.56431916E+03</pdfrwt>
<pdfrwt beam="2">  1       21 0.72688952E-01 0.56431916E+03</pdfrwt>
<totfact> 0.97274741E+01</totfact>
</mgrwt>
</event>
<event>
 4    1  0.4716816E-002  0.4214987E+03  0.7818608E-02  0.1036580E+00
         21   -1    0    0  503  502  0.00000000000E+00  0.00000000000E+00  0.52290303533E+03  0.52290303533E+03  0.00000000000E+00 0.  1.
         21   -1    0    0  501  503 -0.00000000000E+00 -0.00000000000E+00 -0.35475704945E+03  0.35475704945E+03  0.00000000000E+00 0.  1.
    9000007    1    1    2  501    0  0.13147536463E+03 -0.19375637160E+02  0.17430142184E+03  0.45611640233E+03  0.40000000000E+03 0.  1.
   -9000007    1    1    2    0  502 -0.13147536463E+03  0.19375637160E+02 -0.61554359578E+01  0.42154368245E+03  0.40000000000E+03 0.  1.
<mgrwt>
<rscale>  2 0.42149874E+03</rscale>
<asrwt>0</asrwt>
<pdfrwt beam="1">  1       21 0.80446621E-01 0.42149874E+03</pdfrwt>
<pdfrwt beam="2">  1       21 0.54578007E-01 0.42149874E+03</pdfrwt>
<totfact> 0.38046013E+03</totfact>
</mgrwt>
</event>
<event>
 4    1  0.4716816E-002  0.6595913E+03  0.7818608E-02  0.9788946E-01
         21   -1    0    0  501  502  0.00000000000E+00  0.00000000000E+00  0.12679934871E+04  0.12679934871E+04  0.00000000000E+00 0. -1.
         21   -1    0    0  502  503 -0.00000000000E+00 -0.00000000000E+00 -0.37829655575E+03  0.37829655575E+03  0.00000000000E+00 0. -1.
    9000007    1    1    2  501    0 -0.38252958752E+03 -0.35879218607E+03  0.69589319467E+03  0.95881596591E+03  0.40000000000E+03 0. -1.
   -9000007    1    1    2    0  503  0.38252958752E+03  0.35879218607E+03  0.19380373669E+03  0.68747407694E+03  0.40000000000E+03 0. -1.
<mgrwt>
<rscale>  2 0.65959133E+03</rscale>
<asrwt>0</asrwt>
<pdfrwt beam="1">  1       21 0.19507592E+00 0.65959133E+03</pdfrwt>
<pdfrwt beam="2">  1       21 0.58199471E-01 0.65959133E+03</pdfrwt>
<totfact> 0.29963822E+02</totfact>
</mgrwt>
</event>
<event>
 4    1  0.4716816E-002  0.4045976E+03  0.7818608E-02  0.1042199E+00
         21   -1    0    0  503  502  0.00000000000E+00  0.00000000000E+00  0.44145296672E+03  0.44145296672E+03  0.00000000000E+00 0.  1.
         21   -1    0    0  501  503 -0.00000000000E+00 -0.00000000000E+00 -0.37563941555E+03  0.37563941555E+03  0.00000000000E+00 0.  1.
    9000007    1    1    2  501    0  0.51057630597E+02  0.33050810759E+02 -0.13372722059E+02  0.40481856112E+03  0.40000000000E+03 0.  1.
   -9000007    1    1    2    0  502 -0.51057630597E+02 -0.33050810759E+02  0.79186273225E+02  0.41227382114E+03  0.40000000000E+03 0.  1.
<mgrwt>
<rscale>  2 0.40459762E+03</rscale>
<asrwt>0</asrwt>
<pdfrwt beam="1">  1       21 0.67915841E-01 0.40459762E+03</pdfrwt>
<pdfrwt beam="2">  1       21 0.57790679E-01 0.40459762E+03</pdfrwt>
<totfact> 0.49690098E+03</totfact>
</mgrwt>
</event>
<event>
 4    1  0.4716816E-002  0.5671428E+03  0.7818608E-02  0.9976021E-01
         21   -1    0    0  503  502  0.00000000000E+00  0.00000000000E+00  0.29960303046E+04  0.29960303046E+04  0.00000000000E+00 0.  1.
         21   -1    0    0  501  503 -0.00000000000E+00 -0.00000000000E+00 -0.15609139260E+03  0.15609139260E+03  0.00000000000E+00 0.  1.
    9000007    1    1    2  501    0 -0.38751370219E+03 -0.10716387591E+03  0.53934214569E+03  0.78264993184E+03  0.40000000000E+03 0.  1.
   -9000007    1    1    2    0  502  0.38751370219E+03  0.10716387591E+03  0.23005967663E+04  0.23694717654E+04  0.40000000000E+03 0.  1.
<mgrwt>
<rscale>  2 0.56714281E+03</rscale>
<asrwt>0</asrwt>
<pdfrwt beam="1">  1       21 0.46092770E+00 0.56714281E+03</pdfrwt>
<pdfrwt beam="2">  1       21 0.24014063E-01 0.56714281E+03</pdfrwt>
<totfact> 0.39245162E+01</totfact>
</mgrwt>
</event>
<event>
 4    1  0.4716816E-002  0.4384484E+03  0.7818608E-02  0.1031224E+00
         21   -1    0    0  503  502  0.00000000000E+00  0.00000000000E+00  0.52736974124E+03  0.52736974124E+03  0.00000000000E+00 0. -1.
         21   -1    0    0  501  503 -0.00000000000E+00 -0.00000000000E+00 -0.36488643220E+03  0.36488643220E+03  0.00000000000E+00 0.  1.
    9000007    1    1    2  501    0  0.11178529793E+03 -0.14050298920E+03  0.95371091290E+02  0.44870111194E+03  0.40000000000E+03 0.  1.
   -9000007    1    1    2    0  502 -0.11178529793E+03  0.14050298920E+03  0.67112217758E+02  0.44355506150E+03  0.40000000000E+03 0. -1.
<mgrwt>
<rscale>  2 0.43844845E+03</rscale>
<asrwt>0</asrwt>
<pdfrwt beam="1">  1       21 0.81133806E-01 0.43844845E+03</pdfrwt>
<pdfrwt beam="2">  1       21 0.56136374E-01 0.43844845E+03</pdfrwt>
<totfact> 0.34891974E+03</totfact>
</mgrwt>
</event>
<event>
 4    1  0.4716816E-002  0.5042249E+03  0.7818608E-02  0.1012682E+00
         21   -1    0    0  503  502  0.00000000000E+00  0.00000000000E+00  0.59477573627E+03  0.59477573627E+03  0.00000000000E+00 0. -1.
         21   -1    0    0  501  503 -0.00000000000E+00 -0.00000000000E+00 -0.55796010385E+03  0.55796010385E+03  0.00000000000E+00 0. -1.
    9000007    1    1    2  501    0 -0.53608402500E+02  0.30227286878E+03  0.29715077310E+03  0.58527030505E+03  0.40000000000E+03 0. -1.
   -9000007    1    1    2    0  502  0.53608402500E+02 -0.30227286878E+03 -0.26033514068E+03  0.56746553507E+03  0.40000000000E+03 0. -1.
<mgrwt>
<rscale>  2 0.50422490E+03</rscale>
<asrwt>0</asrwt>
<pdfrwt beam="1">  1       21 0.91503960E-01 0.50422490E+03</pdfrwt>
<pdfrwt beam="2">  1       21 0.85840016E-01 0.50422490E+03</pdfrwt>
<totfact> 0.98638230E+02</totfact>
</mgrwt>
</event>
<event>
 4    1  0.4716816E-002  0.4251627E+03  0.7818608E-02  0.1035399E+00
         21   -1    0    0  501  502  0.00000000000E+00  0.00000000000E+00  0.28564497333E+03  0.28564497333E+03  0.00000000000E+00 0. -1.
         21   -1    0    0  502  503 -0.00000000000E+00 -0.00000000000E+00 -0.72142754601E+03  0.72142754601E+03  0.00000000000E+00 0. -1.
    9000007    1    1    2  501    0  0.13793755893E+03 -0.41671548174E+02 -0.39435581591E+03  0.57989636801E+03  0.40000000000E+03 0. -1.
   -9000007    1    1    2    0  503 -0.13793755893E+03  0.41671548174E+02 -0.41426756766E+02  0.42717615133E+03  0.40000000000E+03 0. -1.
<mgrwt>
<rscale>  2 0.42516266E+03</rscale>
<asrwt>0</asrwt>
<pdfrwt beam="1">  1       21 0.43945382E-01 0.42516266E+03</pdfrwt>
<pdfrwt beam="2">  1       21 0.11098885E+00 0.42516266E+03</pdfrwt>
<totfact> 0.27822014E+03</totfact>
</mgrwt>
</event>
<event>
 4    1  0.4716816E-002  0.4249052E+03  0.7818608E-02  0.1035482E+00
         21   -1    0    0  501  502  0.00000000000E+00  0.00000000000E+00  0.24014442953E+03  0.24014442953E+03  0.00000000000E+00 0.  1.
         21   -1    0    0  502  503 -0.00000000000E+00 -0.00000000000E+00 -0.87630049003E+03  0.87630049003E+03  0.00000000000E+00 0.  1.
    9000007    1    1    2  501    0 -0.55913043571E+02 -0.13197781421E+03 -0.10768153931E+03  0.43833745652E+03  0.40000000000E+03 0.  1.
   -9000007    1    1    2    0  503  0.55913043571E+02  0.13197781421E+03 -0.52847452119E+03  0.67810746304E+03  0.40000000000E+03 0.  1.
<mgrwt>
<rscale>  2 0.42490518E+03</rscale>
<asrwt>0</asrwt>
<pdfrwt beam="1">  1       21 0.36945298E-01 0.42490518E+03</pdfrwt>
<pdfrwt beam="2">  1       21 0.13481546E+00 0.42490518E+03</pdfrwt>
<totfact> 0.24236755E+03</totfact>
</mgrwt>
</event>
<event>
 4    1  0.4716816E-002  0.4302372E+03  0.7818608E-02  0.1033785E+00
         21   -1    0    0  501  502  0.00000000000E+00  0.00000000000E+00  0.14633628898E+03  0.14633628898E+03  0.00000000000E+00 0.  1.
         21   -1    0    0  502  503 -0.00000000000E+00 -0.00000000000E+00 -0.12725706054E+04  0.12725706054E+04  0.00000000000E+00 0.  1.
    9000007    1    1    2  501    0 -0.13215373411E+03  0.87404002241E+02 -0.50811762438E+03  0.66579845994E+03  0.40000000000E+03 0.  1.
   -9000007    1    1    2    0  503  0.13215373411E+03 -0.87404002241E+02 -0.61811669206E+03  0.75310843446E+03  0.40000000000E+03 0.  1.
<mgrwt>
<rscale>  2 0.43023722E+03</rscale>
<asrwt>0</asrwt>
<pdfrwt beam="1">  1       21 0.22513274E-01 0.43023722E+03</pdfrwt>
<pdfrwt beam="2">  1       21 0.19578010E+00 0.43023722E+03</pdfrwt>
<totfact> 0.22605522E+03</totfact>
</mgrwt>
</event>
<event>
 4    1  0.4716816E-002  0.6410891E+03  0.7818608E-02  0.9823645E-01
         21   -1    0    0  503  502  0.00000000000E+00  0.00000000000E+00  0.74866011248E+03  0.74866011248E+03  0.00000000000E+00 0. -1.
         21   -1    0    0  501  503 -0.00000000000E+00 -0.00000000000E+00 -0.67818395826E+03  0.67818395826E+03  0.00000000000E+00 0.  1.
    9000007    1    1    2  501    0 -0.21190650957E+02 -0.50054593029E+03  0.34663907716E+03  0.72880307480E+03  0.40000000000E+03 0. -1.
   -9000007    1    1    2    0  502  0.21190650957E+02  0.50054593029E+03 -0.27616292295E+03  0.69804099595E+03  0.40000000000E+03 0.  1.
<mgrwt>
<rscale>  2 0.64108913E+03</rscale>
<asrwt>0</asrwt>
<pdfrwt beam="1">  1       21 0.11517848E+00 0.64108913E+03</pdfrwt>
<pdfrwt beam="2">  1       21 0.10433599E+00 0.64108913E+03</pdfrwt>
<totfact> 0.33385686E+02</totfact>
</mgrwt>
</event>
<event>
 4    1  0.4716816E-002  0.4366750E+03  0.7818608E-02  0.1031772E+00
         21   -1    0    0  501  502  0.00000000000E+00  0.00000000000E+00  0.83299468140E+03  0.83299468140E+03  0.00000000000E+00 0. -1.
         21   -1    0    0  502  503 -0.00000000000E+00 -0.00000000000E+00 -0.53643186768E+03  0.53643186768E+03  0.00000000000E+00 0. -1.
    9000007    1    1    2  501    0 -0.14369958353E+03 -0.10017730558E+03  0.66670631745E+03  0.79698329755E+03  0.40000000000E+03 0. -1.
   -9000007    1    1    2    0  503  0.14369958353E+03  0.10017730558E+03 -0.37014350373E+03  0.57244325152E+03  0.40000000000E+03 0. -1.
<mgrwt>
<rscale>  2 0.43667501E+03</rscale>
<asrwt>0</asrwt>
<pdfrwt beam="1">  1       21 0.12815303E+00 0.43667501E+03</pdfrwt>
<pdfrwt beam="2">  1       21 0.82527980E-01 0.43667501E+03</pdfrwt>
<totfact> 0.48246122E+02</totfact>
</mgrwt>
</event>
<event>
 4    1  0.4716816E-002  0.5783251E+03  0.7818608E-02  0.9951424E-01
         21   -1    0    0  501  502  0.00000000000E+00  0.00000000000E+00  0.78841591067E+03  0.78841591067E+03  0.00000000000E+00 0.  1.
         21   -1    0    0  502  503 -0.00000000000E+00 -0.00000000000E+00 -0.42853187325E+03  0.42853187325E+03  0.00000000000E+00 0.  1.
    9000007    1    1    2  501    0 -0.22083275406E+03 -0.35453179943E+03  0.24099465501E+03  0.62652879089E+03  0.40000000000E+03 0.  1.
   -9000007    1    1    2    0  503  0.22083275406E+03  0.35453179943E+03  0.11888938242E+03  0.59041899302E+03  0.40000000000E+03 0.  1.
<mgrwt>
<rscale>  2 0.57832508E+03</rscale>
<asrwt>0</asrwt>
<pdfrwt beam="1">  1       21 0.12129476E+00 0.57832508E+03</pdfrwt>
<pdfrwt beam="2">  1       21 0.65927981E-01 0.57832508E+03</pdfrwt>
<totfact> 0.87795861E+02</totfact>
</mgrwt>
</event>
<event>
 4    1  0.4716816E-002  0.4784819E+03  0.7818608E-02  0.1019553E+00
         21   -1    0    0  503  502  0.00000000000E+00  0.00000000000E+00  0.52620743610E+03  0.52620743610E+03  0.00000000000E+00 0. -1.
         21   -1    0    0  501  503 -0.00000000000E+00 -0.00000000000E+00 -0.43528497210E+03  0.43528497210E+03  0.00000000000E+00 0. -1.
    9000007    1    1    2  501    0  0.25366575608E+03 -0.67813058740E+02  0.35155302636E+02  0.47977163531E+03  0.40000000000E+03 0. -1.
   -9000007    1    1    2    0  502 -0.25366575608E+03  0.67813058740E+02  0.55767161367E+02  0.48172077289E+03  0.40000000000E+03 0. -1.
<mgrwt>
<rscale>  2 0.47848190E+03</rscale>
<asrwt>0</asrwt>
<pdfrwt beam="1">  1       21 0.80954990E-01 0.47848190E+03</pdfrwt>
<pdfrwt beam="2">  1       21 0.66966919E-01 0.47848190E+03</pdfrwt>
<totfact> 0.23454386E+03</totfact>
</mgrwt>
</event>
<event>
 4    1  0.4716816E-002  0.4027695E+03  0.7818608E-02  0.1042825E+00
         21   -1    0    0  501  502  0.00000000000E+00  0.00000000000E+00  0.17580134792E+03  0.17580134792E+03  0.00000000000E+00 0.  1.
         21   -1    0    0  502  503 -0.00000000000E+00 -0.00000000000E+00 -0.96718012304E+03  0.96718012304E+03  0.00000000000E+00 0.  1.
    9000007    1    1    2  501    0 -0.85539800889E+01 -0.46369160846E+02 -0.27322138103E+03  0.48669620165E+03  0.40000000000E+03 0.  1.
   -9000007    1    1    2    0  503  0.85539800889E+01  0.46369160846E+02 -0.51815739410E+03  0.65628526931E+03  0.40000000000E+03 0.  1.
<mgrwt>
<rscale>  2 0.40276950E+03</rscale>
<asrwt>0</asrwt>
<pdfrwt beam="1">  1       21 0.27046362E-01 0.40276950E+03</pdfrwt>
<pdfrwt beam="2">  1       21 0.14879694E+00 0.40276950E+03</pdfrwt>
<totfact> 0.35053038E+03</totfact>
</mgrwt>
</event>
<event>
 4    1  0.4716816E-002  0.4340785E+03  0.7818608E-02  0.1032579E+00
         21   -1    0    0  501  502  0.00000000000E+00  0.00000000000E+00  0.43979358919E+03  0.43979358919E+03  0.00000000000E+00 0. -1.
         21   -1    0    0  502  503 -0.00000000000E+00 -0.00000000000E+00 -0.48627679955E+03  0.48627679955E+03  0.00000000000E+00 0. -1.
    9000007    1    1    2  501    0  0.82922636664E+02 -0.14679232392E+03  0.13645034376E+03  0.45501961095E+03  0.40000000000E+03 0. -1.
   -9000007    1    1    2    0  503 -0.82922636664E+02  0.14679232392E+03 -0.18293355412E+03  0.47105077779E+03  0.40000000000E+03 0. -1.
<mgrwt>
<rscale>  2 0.43407851E+03</rscale>
<asrwt>0</asrwt>
<pdfrwt beam="1">  1       21 0.67660552E-01 0.43407851E+03</pdfrwt>
<pdfrwt beam="2">  1       21 0.74811815E-01 0.43407851E+03</pdfrwt>
<totfact> 0.27918053E+03</totfact>
</mgrwt>
</event>
<event>
 4    1  0.4716816E-002  0.4599574E+03  0.7818608E-02  0.1024794E+00
         21   -1    0    0  503  502  0.00000000000E+00  0.00000000000E+00  0.25774682185E+03  0.25774682185E+03  0.00000000000E+00 0. -1.
         21   -1    0    0  501  503 -0.00000000000E+00 -0.00000000000E+00 -0.83633113974E+03  0.83633113974E+03  0.00000000000E+00 0. -1.
    9000007    1    1    2  501    0 -0.15213964903E+03  0.16856546484E+03 -0.21476551306E+03  0.50762684557E+03  0.40000000000E+03 0. -1.
   -9000007    1    1    2    0  502  0.15213964903E+03 -0.16856546484E+03 -0.36381880482E+03  0.58645111603E+03  0.40000000000E+03 0. -1.
<mgrwt>
<rscale>  2 0.45995738E+03</rscale>
<asrwt>0</asrwt>
<pdfrwt beam="1">  1       21 0.39653358E-01 0.45995738E+03</pdfrwt>
<pdfrwt beam="2">  1       21 0.12866633E+00 0.45995738E+03</pdfrwt>
<totfact> 0.23359816E+03</totfact>
</mgrwt>
</event>
<event>
 4    1  0.4716816E-002  0.6362705E+03  0.7818608E-02  0.9832888E-01
         21   -1    0    0  501  502  0.00000000000E+00  0.00000000000E+00  0.52934301975E+03  0.52934301975E+03  0.00000000000E+00 0. -1.
         21   -1    0    0  502  503 -0.00000000000E+00 -0.00000000000E+00 -0.28948239521E+04  0.28948239521E+04  0.00000000000E+00 0.  1.
    9000007    1    1    2  501    0  0.42482250107E+03  0.25370463035E+03  0.28586913149E+03  0.69753950226E+03  0.40000000000E+03 0. -1.
   -9000007    1    1    2    0  503 -0.42482250107E+03 -0.25370463035E+03 -0.26513500638E+04  0.27266274696E+04  0.40000000000E+03 0.  1.
<mgrwt>
<rscale>  2 0.63627054E+03</rscale>
<asrwt>0</asrwt>
<pdfrwt beam="1">  1       21 0.81437388E-01 0.63627054E+03</pdfrwt>
<pdfrwt beam="2">  1       21 0.44535753E+00 0.63627054E+03</pdfrwt>
<totfact> 0.36385812E+00</totfact>
</mgrwt>
</event>
<event>
 4    1  0.4716816E-002  0.4439159E+03  0.7818608E-02  0.1029552E+00
         21   -1    0    0  503  502  0.00000000000E+00  0.00000000000E+00  0.20405535080E+04  0.20405535080E+04  0.00000000000E+00 0. -1.
         21   -1    0    0  501  503 -0.00000000000E+00 -0.00000000000E+00 -0.97807449777E+02  0.97807449777E+02  0.00000000000E+00 0.  1.
    9000007    1    1    2  501    0 -0.19201582126E+03 -0.13829475354E+02  0.10915141665E+04  0.11783312377E+04  0.40000000000E+03 0.  1.
   -9000007    1    1    2    0  502  0.19201582126E+03  0.13829475354E+02  0.85123189172E+03  0.96002972011E+03  0.40000000000E+03 0.  1.
<mgrwt>
<rscale>  2 0.44391590E+03</rscale>
<asrwt>0</asrwt>
<pdfrwt beam="1">  1       21 0.31393128E+00 0.44391590E+03</pdfrwt>
<pdfrwt beam="2">  1       21 0.15047301E-01 0.44391590E+03</pdfrwt>
<totfact> 0.89067711E+02</totfact>
</mgrwt>
</event>
<event>
 4    1  0.4716816E-002  0.4489905E+03  0.7818608E-02  0.1028024E+00
         21   -1    0    0  501  502  0.00000000000E+00  0.00000000000E+00  0.45937455654E+03  0.45937455654E+03  0.00000000000E+00 0.  1.
         21   -1    0    0  502  503 -0.00000000000E+00 -0.00000000000E+00 -0.51747873903E+03  0.51747873903E+03  0.00000000000E+00 0.  1.
    9000007    1    1    2  501    0 -0.85374855318E+02 -0.18521223679E+03  0.16134850781E+03  0.47710143529E+03  0.40000000000E+03 0.  1.
   -9000007    1    1    2    0  503  0.85374855318E+02  0.18521223679E+03 -0.21945269030E+03  0.49975186029E+03  0.40000000000E+03 0.  1.
<mgrwt>
<rscale>  2 0.44899047E+03</rscale>
<asrwt>0</asrwt>
<pdfrwt beam="1">  1       21 0.70673009E-01 0.44899047E+03</pdfrwt>
<pdfrwt beam="2">  1       21 0.79612113E-01 0.44899047E+03</pdfrwt>
<totfact> 0.21830805E+03</totfact>
</mgrwt>
</event>
<event>
 4    1  0.4716816E-002  0.4063762E+03  0.7818608E-02  0.1041594E+00
         21   -1    0    0  501  502  0.00000000000E+00  0.00000000000E+00  0.14663375138E+03  0.14663375138E+03  0.00000000000E+00 0.  1.
         21   -1    0    0  502  503 -0.00000000000E+00 -0.00000000000E+00 -0.16840555580E+04  0.16840555580E+04  0.00000000000E+00 0.  1.
    9000007    1    1    2  501    0  0.41033920926E+02  0.58803047791E+02 -0.24189328713E+03  0.47292065239E+03  0.40000000000E+03 0.  1.
   -9000007    1    1    2    0  503 -0.41033920926E+02 -0.58803047791E+02 -0.12955285195E+04  0.13577686570E+04  0.40000000000E+03 0.  1.
<mgrwt>
<rscale>  2 0.40637616E+03</rscale>
<asrwt>0</asrwt>
<pdfrwt beam="1">  1       21 0.22559039E-01 0.40637616E+03</pdfrwt>
<pdfrwt beam="2">  1       21 0.25908547E+00 0.40637616E+03</pdfrwt>
<totfact> 0.90568178E+02</totfact>
</mgrwt>
</event>
<event>
 4    1  0.4716816E-002  0.4025554E+03  0.7818608E-02  0.1042898E+00
         21   -1    0    0  501  502  0.00000000000E+00  0.00000000000E+00  0.47004266086E+03  0.47004266086E+03  0.00000000000E+00 0.  1.
         21   -1    0    0  502  503 -0.00000000000E+00 -0.00000000000E+00 -0.53445955050E+03  0.53445955050E+03  0.00000000000E+00 0.  1.
    9000007    1    1    2  501    0 -0.37207991750E+02  0.25814674363E+02  0.26701750277E+03  0.48306229293E+03  0.40000000000E+03 0.  1.
   -9000007    1    1    2    0  503  0.37207991750E+02 -0.25814674363E+02 -0.33143439241E+03  0.52143991843E+03  0.40000000000E+03 0.  1.
<mgrwt>
<rscale>  2 0.40255538E+03</rscale>
<asrwt>0</asrwt>
<pdfrwt beam="1">  1       21 0.72314256E-01 0.40255538E+03</pdfrwt>
<pdfrwt beam="2">  1       21 0.82224546E-01 0.40255538E+03</pdfrwt>
<totfact> 0.19593285E+03</totfact>
</mgrwt>
</event>
<event>
 4    1  0.4716816E-002  0.4956582E+03  0.7818608E-02  0.1014918E+00
         21   -1    0    0  501  502  0.00000000000E+00  0.00000000000E+00  0.16686845511E+04  0.16686845511E+04  0.00000000000E+00 0. -1.
         21   -1    0    0  502  503 -0.00000000000E+00 -0.00000000000E+00 -0.20238379663E+03  0.20238379663E+03  0.00000000000E+00 0. -1.
    9000007    1    1    2  501    0 -0.87762908101E+02 -0.27923961460E+03  0.12215410539E+04  0.13182714579E+04  0.40000000000E+03 0. -1.
   -9000007    1    1    2    0  503  0.87762908101E+02  0.27923961460E+03  0.24475970064E+03  0.55279688988E+03  0.40000000000E+03 0. -1.
<mgrwt>
<rscale>  2 0.49565824E+03</rscale>
<asrwt>0</asrwt>
<pdfrwt beam="1">  1       21 0.25672069E+00 0.49565824E+03</pdfrwt>
<pdfrwt beam="2">  1       21 0.31135970E-01 0.49565824E+03</pdfrwt>
<totfact> 0.47519558E+02</totfact>
</mgrwt>
</event>
<event>
 4    1  0.4716816E-002  0.4036857E+03  0.7818608E-02  0.1042511E+00
         21   -1    0    0  501  502  0.00000000000E+00  0.00000000000E+00  0.27416758210E+03  0.27416758210E+03  0.00000000000E+00 0.  1.
         21   -1    0    0  502  503 -0.00000000000E+00 -0.00000000000E+00 -0.70723661028E+03  0.70723661028E+03  0.00000000000E+00 0.  1.
    9000007    1    1    2  501    0 -0.48676079162E+02 -0.24346485185E+02 -0.20522671320E+02  0.40420699160E+03  0.40000000000E+03 0.  1.
   -9000007    1    1    2    0  503  0.48676079162E+02  0.24346485185E+02 -0.41254635686E+03  0.57719720077E+03  0.40000000000E+03 0.  1.
<mgrwt>
<rscale>  2 0.40368566E+03</rscale>
<asrwt>0</asrwt>
<pdfrwt beam="1">  1       21 0.42179628E-01 0.40368566E+03</pdfrwt>
<pdfrwt beam="2">  1       21 0.10880563E+00 0.40368566E+03</pdfrwt>
<totfact> 0.32093965E+03</totfact>
</mgrwt>
</event>
<event>
 4    1  0.4716816E-002  0.4192146E+03  0.7818608E-02  0.1037322E+00
         21   -1    0    0  503  502  0.00000000000E+00  0.00000000000E+00  0.18462086898E+03  0.18462086898E+03  0.00000000000E+00 0. -1.
         21   -1    0    0  501  503 -0.00000000000E+00 -0.00000000000E+00 -0.12508328586E+04  0.12508328586E+04  0.00000000000E+00 0. -1.
    9000007    1    1    2  501    0 -0.46868164162E+02  0.11637988991E+03 -0.88397516886E+03  0.97834196616E+03  0.40000000000E+03 0. -1.
   -9000007    1    1    2    0  502  0.46868164162E+02 -0.11637988991E+03 -0.18223682077E+03  0.45711176143E+03  0.40000000000E+03 0. -1.
<mgrwt>
<rscale>  2 0.41921463E+03</rscale>
<asrwt>0</asrwt>
<pdfrwt beam="1">  1       21 0.28403211E-01 0.41921463E+03</pdfrwt>
<pdfrwt beam="2">  1       21 0.19243582E+00 0.41921463E+03</pdfrwt>
<totfact> 0.15223735E+03</totfact>
</mgrwt>
</event>
<event>
 4    1  0.4716816E-002  0.5039590E+03  0.7818608E-02  0.1012751E+00
         21   -1    0    0  503  502  0.00000000000E+00  0.00000000000E+00  0.10000742345E+04  0.10000742345E+04  0.00000000000E+00 0.  1.
         21   -1    0    0  501  503 -0.00000000000E+00 -0.00000000000E+00 -0.25826425766E+03  0.25826425766E+03  0.00000000000E+00 0.  1.
    9000007    1    1    2  501    0  0.20286046876E+03  0.22983112147E+03  0.45216804011E+03  0.67707507019E+03  0.40000000000E+03 0.  1.
   -9000007    1    1    2    0  502 -0.20286046876E+03 -0.22983112147E+03  0.28964193669E+03  0.58126342193E+03  0.40000000000E+03 0.  1.
<mgrwt>
<rscale>  2 0.50395904E+03</rscale>
<asrwt>0</asrwt>
<pdfrwt beam="1">  1       21 0.15385757E+00 0.50395904E+03</pdfrwt>
<pdfrwt beam="2">  1       21 0.39732963E-01 0.50395904E+03</pdfrwt>
<totfact> 0.14206358E+03</totfact>
</mgrwt>
</event>
<event>
 4    1  0.4716816E-002  0.4253794E+03  0.7818608E-02  0.1035330E+00
         21   -1    0    0  501  502  0.00000000000E+00  0.00000000000E+00  0.11743975757E+04  0.11743975757E+04  0.00000000000E+00 0.  1.
         21   -1    0    0  502  503 -0.00000000000E+00 -0.00000000000E+00 -0.37209946094E+03  0.37209946094E+03  0.00000000000E+00 0.  1.
    9000007    1    1    2  501    0 -0.86075446069E+01  0.14447692617E+03  0.99303793701E+03  0.10803110739E+04  0.40000000000E+03 0.  1.
   -9000007    1    1    2    0  503  0.86075446069E+01 -0.14447692617E+03 -0.19073982229E+03  0.46618596271E+03  0.40000000000E+03 0.  1.
<mgrwt>
<rscale>  2 0.42537944E+03</rscale>
<asrwt>0</asrwt>
<pdfrwt beam="1">  1       21 0.18067655E+00 0.42537944E+03</pdfrwt>
<pdfrwt beam="2">  1       21 0.57246071E-01 0.42537944E+03</pdfrwt>
<totfact> 0.43077460E+02</totfact>
</mgrwt>
</event>
<event>
 4    1  0.4716816E-002  0.5156850E+03  0.7818608E-02  0.1009764E+00
         21   -1    0    0  501  502  0.00000000000E+00  0.00000000000E+00  0.11705333397E+04  0.11705333397E+04  0.00000000000E+00 0. -1.
         21   -1    0    0  502  503 -0.00000000000E+00 -0.00000000000E+00 -0.64251889668E+03  0.64251889668E+03  0.00000000000E+00 0.  1.
    9000007    1    1    2  501    0 -0.16692332410E+03  0.27940583856E+03  0.99285114534E+03  0.11187870287E+04  0.40000000000E+03 0. -1.
   -9000007    1    1    2    0  503  0.16692332410E+03 -0.27940583856E+03 -0.46483670234E+03  0.69426520768E+03  0.40000000000E+03 0.  1.
<mgrwt>
<rscale>  2 0.51568500E+03</rscale>
<asrwt>0</asrwt>
<pdfrwt beam="1">  1       21 0.18008205E+00 0.51568500E+03</pdfrwt>
<pdfrwt beam="2">  1       21 0.98849061E-01 0.51568500E+03</pdfrwt>
<totfact> 0.11905655E+02</totfact>
</mgrwt>
</event>
<event>
 4    1  0.4716816E-002  0.4099469E+03  0.7818608E-02  0.1040389E+00
         21   -1    0    0  503  502  0.00000000000E+00  0.00000000000E+00  0.73426870534E+03  0.73426870534E+03  0.00000000000E+00 0.  1.
         21   -1    0    0  501  503 -0.00000000000E+00 -0.00000000000E+00 -0.29526771052E+03  0.29526771052E+03  0.00000000000E+00 0.  1.
    9000007    1    1    2  501    0 -0.84547710315E+02 -0.30135915974E+02 -0.24595494033E+02  0.41068409645E+03  0.40000000000E+03 0. -1.
   -9000007    1    1    2    0  502  0.84547710315E+02  0.30135915974E+02  0.46359648886E+03  0.61885231940E+03  0.40000000000E+03 0. -1.
<mgrwt>
<rscale>  2 0.40994693E+03</rscale>
<asrwt>0</asrwt>
<pdfrwt beam="1">  1       21 0.11296442E+00 0.40994693E+03</pdfrwt>
<pdfrwt beam="2">  1       21 0.45425802E-01 0.40994693E+03</pdfrwt>
<totfact> 0.24997583E+03</totfact>
</mgrwt>
</event>
<event>
 4    1  0.4716816E-002  0.4287672E+03  0.7818608E-02  0.1034250E+00
         21   -1    0    0  501  502  0.00000000000E+00  0.00000000000E+00  0.31875341686E+03  0.31875341686E+03  0.00000000000E+00 0.  1.
         21   -1    0    0  502  503 -0.00000000000E+00 -0.00000000000E+00 -0.57716839769E+03  0.57716839769E+03  0.00000000000E+00 0.  1.
    9000007    1    1    2  501    0 -0.10913199903E+03  0.10923159950E+03 -0.14125481484E+03  0.45143577423E+03  0.40000000000E+03 0.  1.
   -9000007    1    1    2    0  503  0.10913199903E+03 -0.10923159950E+03 -0.11716016598E+03  0.44448604032E+03  0.40000000000E+03 0.  1.
<mgrwt>
<rscale>  2 0.42876723E+03</rscale>
<asrwt>0</asrwt>
<pdfrwt beam="1">  1       21 0.49038987E-01 0.42876723E+03</pdfrwt>
<pdfrwt beam="2">  1       21 0.88795138E-01 0.42876723E+03</pdfrwt>
<totfact> 0.37874668E+03</totfact>
</mgrwt>
</event>
<event>
 4    1  0.4716816E-002  0.4335289E+03  0.7818608E-02  0.1032751E+00
         21   -1    0    0  503  502  0.00000000000E+00  0.00000000000E+00  0.88419034921E+03  0.88419034921E+03  0.00000000000E+00 0.  1.
         21   -1    0    0  501  503 -0.00000000000E+00 -0.00000000000E+00 -0.23614577839E+03  0.23614577839E+03  0.00000000000E+00 0. -1.
    9000007    1    1    2  501    0  0.25505110313E+02  0.16521734137E+03  0.14700568463E+03  0.45777500134E+03  0.40000000000E+03 0. -1.
   -9000007    1    1    2    0  502 -0.25505110313E+02 -0.16521734137E+03  0.50103888620E+03  0.66256112625E+03  0.40000000000E+03 0.  1.
<mgrwt>
<rscale>  2 0.43352887E+03</rscale>
<asrwt>0</asrwt>
<pdfrwt beam="1">  1       21 0.13602928E+00 0.43352887E+03</pdfrwt>
<pdfrwt beam="2">  1       21 0.36330120E-01 0.43352887E+03</pdfrwt>
<totfact> 0.24413564E+03</totfact>
</mgrwt>
</event>
<event>
 4    1  0.4716816E-002  0.4480788E+03  0.7818608E-02  0.1028297E+00
         21   -1    0    0  503  502  0.00000000000E+00  0.00000000000E+00  0.99598228241E+03  0.99598228241E+03  0.00000000000E+00 0. -1.
         21   -1    0    0  501  503 -0.00000000000E+00 -0.00000000000E+00 -0.23402534086E+03  0.23402534086E+03  0.00000000000E+00 0.  1.
    9000007    1    1    2  501    0  0.43183572180E+02  0.19725566221E+03  0.15200127334E+03  0.47315854032E+03  0.40000000000E+03 0.  1.
   -9000007    1    1    2    0  502 -0.43183572180E+02 -0.19725566221E+03  0.60995566821E+03  0.75684908295E+03  0.40000000000E+03 0. -1.
<mgrwt>
<rscale>  2 0.44807881E+03</rscale>
<asrwt>0</asrwt>
<pdfrwt beam="1">  1       21 0.15322804E+00 0.44807881E+03</pdfrwt>
<pdfrwt beam="2">  1       21 0.36003899E-01 0.44807881E+03</pdfrwt>
<totfact> 0.17961062E+03</totfact>
</mgrwt>
</event>
<event>
 4    1  0.4716816E-002  0.4907908E+03  0.7818608E-02  0.1016211E+00
         21   -1    0    0  501  502  0.00000000000E+00  0.00000000000E+00  0.86897717720E+03  0.86897717720E+03  0.00000000000E+00 0.  1.
         21   -1    0    0  502  503 -0.00000000000E+00 -0.00000000000E+00 -0.64389196941E+03  0.64389196941E+03  0.00000000000E+00 0. -1.
    9000007    1    1    2  501    0 -0.36792417277E+02  0.28199630438E+03  0.68338850659E+03  0.84136522901E+03  0.40000000000E+03 0.  1.
   -9000007    1    1    2    0  503  0.36792417277E+02 -0.28199630438E+03 -0.45830329880E+03  0.67150391760E+03  0.40000000000E+03 0. -1.
<mgrwt>
<rscale>  2 0.49079079E+03</rscale>
<asrwt>0</asrwt>
<pdfrwt beam="1">  1       21 0.13368880E+00 0.49079079E+03</pdfrwt>
<pdfrwt beam="2">  1       21 0.99060303E-01 0.49079079E+03</pdfrwt>
<totfact> 0.27329670E+02</totfact>
</mgrwt>
</event>
<event>
 4    1  0.4716816E-002  0.4871254E+03  0.7818608E-02  0.1017195E+00
         21   -1    0    0  501  502  0.00000000000E+00  0.00000000000E+00  0.16802394284E+03  0.16802394284E+03  0.00000000000E+00 0.  1.
         21   -1    0    0  502  503 -0.00000000000E+00 -0.00000000000E+00 -0.14123807694E+04  0.14123807694E+04  0.00000000000E+00 0.  1.
    9000007    1    1    2  501    0  0.14994193972E+03  0.23411230528E+03 -0.62989470206E+03  0.79627789901E+03  0.40000000000E+03 0. -1.
   -9000007    1    1    2    0  503 -0.14994193972E+03 -0.23411230528E+03 -0.61446212450E+03  0.78412681322E+03  0.40000000000E+03 0. -1.
<mgrwt>
<rscale>  2 0.48712540E+03</rscale>
<asrwt>0</asrwt>
<pdfrwt beam="1">  1       21 0.25849837E-01 0.48712540E+03</pdfrwt>
<pdfrwt beam="2">  1       21 0.21728935E+00 0.48712540E+03</pdfrwt>
<totfact> 0.12177639E+03</totfact>
</mgrwt>
</event>
<event>
 4    1  0.4716816E-002  0.4665062E+03  0.7818608E-02  0.1022911E+00
         21   -1    0    0  503  502  0.00000000000E+00  0.00000000000E+00  0.48320831702E+03  0.48320831702E+03  0.00000000000E+00 0. -1.
         21   -1    0    0  501  503 -0.00000000000E+00 -0.00000000000E+00 -0.10141419540E+04  0.10141419540E+04  0.00000000000E+00 0.  1.
    9000007    1    1    2  501    0 -0.32505029202E+02 -0.23784754504E+03 -0.82366881204E+03  0.94660358310E+03  0.40000000000E+03 0.  1.
   -9000007    1    1    2    0  502  0.32505029202E+02  0.23784754504E+03  0.29273517502E+03  0.55074668796E+03  0.40000000000E+03 0. -1.
<mgrwt>
<rscale>  2 0.46650620E+03</rscale>
<asrwt>0</asrwt>
<pdfrwt beam="1">  1       21 0.74339743E-01 0.46650620E+03</pdfrwt>
<pdfrwt beam="2">  1       21 0.15602184E+00 0.46650620E+03</pdfrwt>
<totfact> 0.35805338E+02</totfact>
</mgrwt>
</event>
<event>
 4    1  0.4716816E-002  0.4030587E+03  0.7818608E-02  0.1042726E+00
         21   -1    0    0  501  502  0.00000000000E+00  0.00000000000E+00  0.54174368662E+03  0.54174368662E+03  0.00000000000E+00 0. -1.
         21   -1    0    0  502  503 -0.00000000000E+00 -0.00000000000E+00 -0.49445811085E+03  0.49445811085E+03  0.00000000000E+00 0. -1.
    9000007    1    1    2  501    0 -0.46793672031E+02  0.16330675012E+02  0.34865539382E+03  0.53293238064E+03  0.40000000000E+03 0. -1.
   -9000007    1    1    2    0  503  0.46793672031E+02 -0.16330675012E+02 -0.30136981805E+03  0.50326941683E+03  0.40000000000E+03 0. -1.
<mgrwt>
<rscale>  2 0.40305873E+03</rscale>
<asrwt>0</asrwt>
<pdfrwt beam="1">  1       21 0.83345183E-01 0.40305873E+03</pdfrwt>
<pdfrwt beam="2">  1       21 0.76070478E-01 0.40305873E+03</pdfrwt>
<totfact> 0.16921533E+03</totfact>
</mgrwt>
</event>
<event>
 4    1  0.4716816E-002  0.4099461E+03  0.7818608E-02  0.1040389E+00
         21   -1    0    0  503  502  0.00000000000E+00  0.00000000000E+00  0.17705570636E+04  0.17705570636E+04  0.00000000000E+00 0.  1.
         21   -1    0    0  501  503 -0.00000000000E+00 -0.00000000000E+00 -0.11576259714E+03  0.11576259714E+03  0.00000000000E+00 0.  1.
    9000007    1    1    2  501    0  0.16845565144E+02 -0.88159152166E+02  0.42716759096E+03  0.59205401776E+03  0.40000000000E+03 0.  1.
   -9000007    1    1    2    0  502 -0.16845565144E+02  0.88159152166E+02  0.12276268755E+04  0.12942656430E+04  0.40000000000E+03 0.  1.
<mgrwt>
<rscale>  2 0.40994611E+03</rscale>
<asrwt>0</asrwt>
<pdfrwt beam="1">  1       21 0.27239338E+00 0.40994611E+03</pdfrwt>
<pdfrwt beam="2">  1       21 0.17809632E-01 0.40994611E+03</pdfrwt>
<totfact> 0.11769456E+03</totfact>
</mgrwt>
</event>
<event>
 4    1  0.4716816E-002  0.4114453E+03  0.7818608E-02  0.1039887E+00
         21   -1    0    0  501  502  0.00000000000E+00  0.00000000000E+00  0.28586732425E+03  0.28586732425E+03  0.00000000000E+00 0. -1.
         21   -1    0    0  502  503 -0.00000000000E+00 -0.00000000000E+00 -0.85609057545E+03  0.85609057545E+03  0.00000000000E+00 0. -1.
    9000007    1    1    2  501    0  0.20235006290E+02 -0.94221754138E+02  0.31905020463E+02  0.41268041480E+03  0.40000000000E+03 0. -1.
   -9000007    1    1    2    0  503 -0.20235006290E+02  0.94221754138E+02 -0.60212827167E+03  0.72927748489E+03  0.40000000000E+03 0. -1.
<mgrwt>
<rscale>  2 0.41144525E+03</rscale>
<asrwt>0</asrwt>
<pdfrwt beam="1">  1       21 0.43979588E-01 0.41144525E+03</pdfrwt>
<pdfrwt beam="2">  1       21 0.13170624E+00 0.41144525E+03</pdfrwt>
<totfact> 0.18088604E+03</totfact>
</mgrwt>
</event>
<event>
 4    1  0.4716816E-002  0.4007148E+03  0.7818608E-02  0.1043532E+00
         21   -1    0    0  503  502  0.00000000000E+00  0.00000000000E+00  0.59781483325E+03  0.59781483325E+03  0.00000000000E+00 0.  1.
         21   -1    0    0  501  503 -0.00000000000E+00 -0.00000000000E+00 -0.26900493994E+03  0.26900493994E+03  0.00000000000E+00 0.  1.
    9000007    1    1    2  501    0 -0.22005064229E+02 -0.93868729791E+01  0.14756401894E+03  0.42702163402E+03  0.40000000000E+03 0.  1.
   -9000007    1    1    2    0  502  0.22005064229E+02  0.93868729791E+01  0.18124587437E+03  0.43979813917E+03  0.40000000000E+03 0.  1.
<mgrwt>
<rscale>  2 0.40071478E+03</rscale>
<asrwt>0</asrwt>
<pdfrwt beam="1">  1       21 0.91971512E-01 0.40071478E+03</pdfrwt>
<pdfrwt beam="2">  1       21 0.41385376E-01 0.40071478E+03</pdfrwt>
<totfact> 0.50217902E+03</totfact>
</mgrwt>
</event>
<event>
 4    1  0.4716816E-002  0.5587142E+03  0.7818608E-02  0.9994968E-01
         21   -1    0    0  501  502  0.00000000000E+00  0.00000000000E+00  0.21337610969E+03  0.21337610969E+03  0.00000000000E+00 0.  1.
         21   -1    0    0  502  503 -0.00000000000E+00 -0.00000000000E+00 -0.30869749143E+04  0.30869749143E+04  0.00000000000E+00 0. -1.
    9000007    1    1    2  501    0 -0.16428561083E+03 -0.35379632340E+03 -0.23989892884E+03  0.60804037402E+03  0.40000000000E+03 0.  1.
   -9000007    1    1    2    0  503  0.16428561083E+03  0.35379632340E+03 -0.26336998758E+04  0.26923106500E+04  0.40000000000E+03 0. -1.
<mgrwt>
<rscale>  2 0.55871424E+03</rscale>
<asrwt>0</asrwt>
<pdfrwt beam="1">  1       21 0.32827096E-01 0.55871424E+03</pdfrwt>
<pdfrwt beam="2">  1       21 0.47491918E+00 0.55871424E+03</pdfrwt>
<totfact> 0.16987153E+01</totfact>
</mgrwt>
</event>
<event>
 4    1  0.4716816E-002  0.4673628E+03  0.7818608E-02  0.1022667E+00
         21   -1    0    0  501  502  0.00000000000E+00  0.00000000000E+00  0.39393943371E+03  0.39393943371E+03  0.00000000000E+00 0. -1.
         21   -1    0    0  502  503 -0.00000000000E+00 -0.00000000000E+00 -0.56308735900E+03  0.56308735900E+03  0.00000000000E+00 0.  1.
    9000007    1    1    2  501    0 -0.23674580392E+03  0.48778874521E+02 -0.14376698321E+03  0.48897535698E+03  0.40000000000E+03 0.  1.
   -9000007    1    1    2    0  503  0.23674580392E+03 -0.48778874521E+02 -0.25380942077E+02  0.46805143573E+03  0.40000000000E+03 0.  1.
<mgrwt>
<rscale>  2 0.46736277E+03</rscale>
<asrwt>0</asrwt>
<pdfrwt beam="1">  1       21 0.60606067E-01 0.46736277E+03</pdfrwt>
<pdfrwt beam="2">  1       21 0.86628824E-01 0.46736277E+03</pdfrwt>
<totfact> 0.25078561E+03</totfact>
</mgrwt>
</event>
<event>
 4    1  0.4716816E-002  0.5177832E+03  0.7818608E-02  0.1009239E+00
         21   -1    0    0  503  502  0.00000000000E+00  0.00000000000E+00  0.11448998345E+04  0.11448998345E+04  0.00000000000E+00 0. -1.
         21   -1    0    0  501  503 -0.00000000000E+00 -0.00000000000E+00 -0.23496292463E+03  0.23496292463E+03  0.00000000000E+00 0.  1.
    9000007    1    1    2  501    0 -0.51581023135E+02 -0.32471348693E+03  0.41485049214E+03  0.66347598402E+03  0.40000000000E+03 0.  1.
   -9000007    1    1    2    0  502  0.51581023135E+02  0.32471348693E+03  0.49508641775E+03  0.71638677513E+03  0.40000000000E+03 0. -1.
<mgrwt>
<rscale>  2 0.51778321E+03</rscale>
<asrwt>0</asrwt>
<pdfrwt beam="1">  1       21 0.17613843E+00 0.51778321E+03</pdfrwt>
<pdfrwt beam="2">  1       21 0.36148143E-01 0.51778321E+03</pdfrwt>
<totfact> 0.11703614E+03</totfact>
</mgrwt>
</event>
<event>
 4    1  0.4716816E-002  0.7374665E+03  0.7818608E-02  0.9655221E-01
         21   -1    0    0  503  502  0.00000000000E+00  0.00000000000E+00  0.56281934273E+03  0.56281934273E+03  0.00000000000E+00 0. -1.
         21   -1    0    0  501  503 -0.00000000000E+00 -0.00000000000E+00 -0.13571377226E+04  0.13571377226E+04  0.00000000000E+00 0.  1.
    9000007    1    1    2  501    0  0.56982112203E+03 -0.24322974352E+03 -0.91232065128E+03  0.11731094535E+04  0.40000000000E+03 0.  1.
   -9000007    1    1    2    0  502 -0.56982112203E+03  0.24322974352E+03  0.11800227136E+03  0.74684761183E+03  0.40000000000E+03 0. -1.
<mgrwt>
<rscale>  2 0.73746649E+03</rscale>
<asrwt>0</asrwt>
<pdfrwt beam="1">  1       21 0.86587591E-01 0.73746649E+03</pdfrwt>
<pdfrwt beam="2">  1       21 0.20879042E+00 0.73746649E+03</pdfrwt>
<totfact> 0.95195255E+01</totfact>
</mgrwt>
</event>
<event>
 4    1  0.4716816E-002  0.4011190E+03  0.7818608E-02  0.1043393E+00
         21   -1    0    0  501  502  0.00000000000E+00  0.00000000000E+00  0.67420952766E+03  0.67420952766E+03  0.00000000000E+00 0.  1.
         21   -1    0    0  502  503 -0.00000000000E+00 -0.00000000000E+00 -0.28625034239E+03  0.28625034239E+03  0.00000000000E+00 0.  1.
    9000007    1    1    2  501    0  0.26591337649E+02 -0.13760472316E+02 -0.18624730187E+01  0.40112332099E+03  0.40000000000E+03 0.  1.
   -9000007    1    1    2    0  503 -0.26591337649E+02  0.13760472316E+02  0.38982165829E+03  0.55933654905E+03  0.40000000000E+03 0.  1.
<mgrwt>
<rscale>  2 0.40111900E+03</rscale>
<asrwt>0</asrwt>
<pdfrwt beam="1">  1       21 0.10372454E+00 0.40111900E+03</pdfrwt>
<pdfrwt beam="2">  1       21 0.44038514E-01 0.40111900E+03</pdfrwt>
<totfact> 0.33040052E+03</totfact>
</mgrwt>
</event>
<event>
 4    1  0.4716816E-002  0.5687076E+03  0.7818608E-02  0.9972543E-01
         21   -1    0    0  501  502  0.00000000000E+00  0.00000000000E+00  0.17788076266E+03  0.17788076266E+03  0.00000000000E+00 0. -1.
         21   -1    0    0  502  503 -0.00000000000E+00 -0.00000000000E+00 -0.18903154189E+04  0.18903154189E+04  0.00000000000E+00 0.  1.
    9000007    1    1    2  501    0  0.37810235124E+03  0.14306258514E+03 -0.10581542509E+04  0.12012987597E+04  0.40000000000E+03 0.  1.
   -9000007    1    1    2    0  503 -0.37810235124E+03 -0.14306258514E+03 -0.65428040535E+03  0.86689742190E+03  0.40000000000E+03 0.  1.
<mgrwt>
<rscale>  2 0.56870756E+03</rscale>
<asrwt>0</asrwt>
<pdfrwt beam="1">  1       21 0.27366272E-01 0.56870756E+03</pdfrwt>
<pdfrwt beam="2">  1       21 0.29081775E+00 0.56870756E+03</pdfrwt>
<totfact> 0.36801557E+02</totfact>
</mgrwt>
</event>
<event>
 4    1  0.4716816E-002  0.4404423E+03  0.7818608E-02  0.1030611E+00
         21   -1    0    0  503  502  0.00000000000E+00  0.00000000000E+00  0.89647862150E+03  0.89647862150E+03  0.00000000000E+00 0. -1.
         21   -1    0    0  501  503 -0.00000000000E+00 -0.00000000000E+00 -0.23081398892E+03  0.23081398892E+03  0.00000000000E+00 0. -1.
    9000007    1    1    2  501    0  0.15054072301E+03 -0.10642813794E+03  0.19193239438E+03  0.48044510805E+03  0.40000000000E+03 0. -1.
   -9000007    1    1    2    0  502 -0.15054072301E+03  0.10642813794E+03  0.47373223819E+03  0.64684750238E+03  0.40000000000E+03 0. -1.
<mgrwt>
<rscale>  2 0.44044234E+03</rscale>
<asrwt>0</asrwt>
<pdfrwt beam="1">  1       21 0.13791979E+00 0.44044234E+03</pdfrwt>
<pdfrwt beam="2">  1       21 0.35509845E-01 0.44044234E+03</pdfrwt>
<totfact> 0.24591090E+03</totfact>
</mgrwt>
</event>
<event>
 4    1  0.4716816E-002  0.4699282E+03  0.7818608E-02  0.1021940E+00
         21   -1    0    0  503  502  0.00000000000E+00  0.00000000000E+00  0.16053852738E+04  0.16053852738E+04  0.00000000000E+00 0.  1.
         21   -1    0    0  501  503 -0.00000000000E+00 -0.00000000000E+00 -0.66581839298E+03  0.66581839298E+03  0.00000000000E+00 0.  1.
    9000007    1    1    2  501    0 -0.15236097307E+03  0.19395532519E+03 -0.54173192810E+03  0.71715132030E+03  0.40000000000E+03 0.  1.
   -9000007    1    1    2    0  502  0.15236097307E+03 -0.19395532519E+03  0.14812988089E+04  0.15540523464E+04  0.40000000000E+03 0.  1.
<mgrwt>
<rscale>  2 0.46992822E+03</rscale>
<asrwt>0</asrwt>
<pdfrwt beam="1">  1       21 0.24698235E+00 0.46992822E+03</pdfrwt>
<pdfrwt beam="2">  1       21 0.10243360E+00 0.46992822E+03</pdfrwt>
<totfact> 0.40856819E+01</totfact>
</mgrwt>
</event>
<event>
 4    1  0.4716816E-002  0.4044637E+03  0.7818608E-02  0.1042245E+00
         21   -1    0    0  503  502  0.00000000000E+00  0.00000000000E+00  0.45482065786E+02  0.45482065786E+02  0.00000000000E+00 0. -1.
         21   -1    0    0  501  503 -0.00000000000E+00 -0.00000000000E+00 -0.35969908869E+04  0.35969908869E+04  0.00000000000E+00 0. -1.
    9000007    1    1    2  501    0 -0.24958093190E+02 -0.54479364886E+02 -0.17882234425E+04  0.18333941169E+04  0.40000000000E+03 0. -1.
   -9000007    1    1    2    0  502  0.24958093190E+02  0.54479364886E+02 -0.17632853786E+04  0.18090788358E+04  0.40000000000E+03 0. -1.
<mgrwt>
<rscale>  2 0.40446373E+03</rscale>
<asrwt>0</asrwt>
<pdfrwt beam="1">  1       21 0.69972381E-02 0.40446373E+03</pdfrwt>
<pdfrwt beam="2">  1       21 0.55338343E+00 0.40446373E+03</pdfrwt>
<totfact> 0.91541960E+01</totfact>
</mgrwt>
</event>
<event>
 4    1  0.4716816E-002  0.4577434E+03  0.7818608E-02  0.1025438E+00
         21   -1    0    0  503  502  0.00000000000E+00  0.00000000000E+00  0.15861376839E+03  0.15861376839E+03  0.00000000000E+00 0.  1.
         21   -1    0    0  501  503 -0.00000000000E+00 -0.00000000000E+00 -0.13232333516E+04  0.13232333516E+04  0.00000000000E+00 0. -1.
    9000007    1    1    2  501    0  0.20971250917E+03  0.74496277386E+02 -0.61273854981E+03  0.76483825890E+03  0.40000000000E+03 0. -1.
   -9000007    1    1    2    0  502 -0.20971250917E+03 -0.74496277386E+02 -0.55188103336E+03  0.71700886105E+03  0.40000000000E+03 0.  1.
<mgrwt>
<rscale>  2 0.45774341E+03</rscale>
<asrwt>0</asrwt>
<pdfrwt beam="1">  1       21 0.24402118E-01 0.45774341E+03</pdfrwt>
<pdfrwt beam="2">  1       21 0.20357436E+00 0.45774341E+03</pdfrwt>
<totfact> 0.16959217E+03</totfact>
</mgrwt>
</event>
<event>
 4    1  0.4716816E-002  0.4079208E+03  0.7818608E-02  0.1041071E+00
         21   -1    0    0  503  502  0.00000000000E+00  0.00000000000E+00  0.13443333851E+04  0.13443333851E+04  0.00000000000E+00 0. -1.
         21   -1    0    0  501  503 -0.00000000000E+00 -0.00000000000E+00 -0.13906806643E+03  0.13906806643E+03  0.00000000000E+00 0. -1.
    9000007    1    1    2  501    0 -0.52239901703E+02 -0.60583277758E+02  0.35670068261E+03  0.54188072290E+03  0.40000000000E+03 0. -1.
   -9000007    1    1    2    0  502  0.52239901703E+02  0.60583277758E+02  0.84856463603E+03  0.94152072861E+03  0.40000000000E+03 0. -1.
<mgrwt>
<rscale>  2 0.40792075E+03</rscale>
<asrwt>0</asrwt>
<pdfrwt beam="1">  1       21 0.20682051E+00 0.40792075E+03</pdfrwt>
<pdfrwt beam="2">  1       21 0.21395088E-01 0.40792075E+03</pdfrwt>
<totfact> 0.21273273E+03</totfact>
</mgrwt>
</event>
<event>
 4    1  0.4716816E-002  0.6770136E+03  0.7818608E-02  0.9757370E-01
         21   -1    0    0  503  502  0.00000000000E+00  0.00000000000E+00  0.62954265673E+03  0.62954265673E+03  0.00000000000E+00 0.  1.
         21   -1    0    0  501  503 -0.00000000000E+00 -0.00000000000E+00 -0.81388274025E+03  0.81388274025E+03  0.00000000000E+00 0. -1.
    9000007    1    1    2  501    0 -0.42076729466E+03 -0.34828485091E+03 -0.32652495221E+03  0.75164220081E+03  0.40000000000E+03 0. -1.
   -9000007    1    1    2    0  502  0.42076729466E+03  0.34828485091E+03  0.14218486869E+03  0.69178319618E+03  0.40000000000E+03 0.  1.
<mgrwt>
<rscale>  2 0.67701363E+03</rscale>
<asrwt>0</asrwt>
<pdfrwt beam="1">  1       21 0.96852716E-01 0.67701363E+03</pdfrwt>
<pdfrwt beam="2">  1       21 0.12521273E+00 0.67701363E+03</pdfrwt>
<totfact> 0.31985282E+02</totfact>
</mgrwt>
</event>
<event>
 4    1  0.4716816E-002  0.4152262E+03  0.7818608E-02  0.1038631E+00
         21   -1    0    0  501  502  0.00000000000E+00  0.00000000000E+00  0.12169935221E+03  0.12169935221E+03  0.00000000000E+00 0. -1.
         21   -1    0    0  502  503 -0.00000000000E+00 -0.00000000000E+00 -0.16689748328E+04  0.16689748328E+04  0.00000000000E+00 0. -1.
    9000007    1    1    2  501    0  0.38087363414E+02  0.10470012561E+03 -0.42554937017E+03  0.59456288987E+03  0.40000000000E+03 0. -1.
   -9000007    1    1    2    0  503 -0.38087363414E+02 -0.10470012561E+03 -0.11217261104E+04  0.11961112951E+04  0.40000000000E+03 0. -1.
<mgrwt>
<rscale>  2 0.41522616E+03</rscale>
<asrwt>0</asrwt>
<pdfrwt beam="1">  1       21 0.18722977E-01 0.41522616E+03</pdfrwt>
<pdfrwt beam="2">  1       21 0.25676536E+00 0.41522616E+03</pdfrwt>
<totfact> 0.13278655E+03</totfact>
</mgrwt>
</event>
<event>
 4    1  0.4716816E-002  0.4117366E+03  0.7818608E-02  0.1039790E+00
         21   -1    0    0  501  502  0.00000000000E+00  0.00000000000E+00  0.28955960894E+03  0.28955960894E+03  0.00000000000E+00 0.  1.
         21   -1    0    0  502  503 -0.00000000000E+00 -0.00000000000E+00 -0.64677099636E+03  0.64677099636E+03  0.00000000000E+00 0.  1.
    9000007    1    1    2  501    0  0.35351470462E+02  0.90979868240E+02 -0.32274249001E+03  0.52315368463E+03  0.40000000000E+03 0.  1.
   -9000007    1    1    2    0  503 -0.35351470462E+02 -0.90979868240E+02 -0.34468897409E+02  0.41317692067E+03  0.40000000000E+03 0.  1.
<mgrwt>
<rscale>  2 0.41173664E+03</rscale>
<asrwt>0</asrwt>
<pdfrwt beam="1">  1       21 0.44547633E-01 0.41173664E+03</pdfrwt>
<pdfrwt beam="2">  1       21 0.99503229E-01 0.41173664E+03</pdfrwt>
<totfact> 0.35544921E+03</totfact>
</mgrwt>
</event>
<event>
 4    1  0.4716816E-002  0.4759382E+03  0.7818608E-02  0.1020257E+00
         21   -1    0    0  503  502  0.00000000000E+00  0.00000000000E+00  0.23771869444E+04  0.23771869444E+04  0.00000000000E+00 0.  1.
         21   -1    0    0  501  503 -0.00000000000E+00 -0.00000000000E+00 -0.16700992396E+03  0.16700992396E+03  0.00000000000E+00 0.  1.
    9000007    1    1    2  501    0  0.22148184583E+03  0.13214751796E+03  0.27145374401E+03  0.54790903412E+03  0.40000000000E+03 0.  1.
   -9000007    1    1    2    0  502 -0.22148184583E+03 -0.13214751796E+03  0.19387232764E+04  0.19962878342E+04  0.40000000000E+03 0.  1.
<mgrwt>
<rscale>  2 0.47593820E+03</rscale>
<asrwt>0</asrwt>
<pdfrwt beam="1">  1       21 0.36572104E+00 0.47593820E+03</pdfrwt>
<pdfrwt beam="2">  1       21 0.25693836E-01 0.47593820E+03</pdfrwt>
<totfact> 0.15241746E+02</totfact>
</mgrwt>
</event>
<event>
 4    1  0.4716816E-002  0.5684706E+03  0.7818608E-02  0.9973069E-01
         21   -1    0    0  501  502  0.00000000000E+00  0.00000000000E+00  0.10694439973E+04  0.10694439973E+04  0.00000000000E+00 0.  1.
         21   -1    0    0  502  503 -0.00000000000E+00 -0.00000000000E+00 -0.37090017513E+03  0.37090017513E+03  0.00000000000E+00 0.  1.
    9000007    1    1    2  501    0  0.11385605354E+03 -0.38755080142E+03  0.65927564115E+03  0.87051892318E+03  0.40000000000E+03 0.  1.
   -9000007    1    1    2    0  503 -0.11385605354E+03  0.38755080142E+03  0.39268180987E+02  0.56982524922E+03  0.40000000000E+03 0.  1.
<mgrwt>
<rscale>  2 0.56847060E+03</rscale>
<asrwt>0</asrwt>
<pdfrwt beam="1">  1       21 0.16452984E+00 0.56847060E+03</pdfrwt>
<pdfrwt beam="2">  1       21 0.57061566E-01 0.56847060E+03</pdfrwt>
<totfact> 0.53387776E+02</totfact>
</mgrwt>
</event>
<event>
 4    1  0.4716816E-002  0.4214471E+03  0.7818608E-02  0.1036596E+00
         21   -1    0    0  503  502  0.00000000000E+00  0.00000000000E+00  0.61507867822E+03  0.61507867822E+03  0.00000000000E+00 0.  1.
         21   -1    0    0  501  503 -0.00000000000E+00 -0.00000000000E+00 -0.74548001182E+03  0.74548001182E+03  0.00000000000E+00 0.  1.
    9000007    1    1    2  501    0 -0.10945028345E+03 -0.75088648400E+02 -0.59766248061E+03  0.73131259417E+03  0.40000000000E+03 0.  1.
   -9000007    1    1    2    0  502  0.10945028345E+03  0.75088648400E+02  0.46726114700E+03  0.62924609587E+03  0.40000000000E+03 0.  1.
<mgrwt>
<rscale>  2 0.42144711E+03</rscale>
<asrwt>0</asrwt>
<pdfrwt beam="1">  1       21 0.94627490E-01 0.42144711E+03</pdfrwt>
<pdfrwt beam="2">  1       21 0.11468923E+00 0.42144711E+03</pdfrwt>
<totfact> 0.46689001E+02</totfact>
</mgrwt>
</event>
<event>
 4    1  0.4716816E-002  0.4887416E+03  0.7818608E-02  0.1016760E+00
         21   -1    0    0  501  502  0.00000000000E+00  0.00000000000E+00  0.90158031531E+03  0.90158031531E+03  0.00000000000E+00 0.  1.
         21   -1    0    0  502  503 -0.00000000000E+00 -0.00000000000E+00 -0.28808787843E+03  0.28808787843E+03  0.00000000000E+00 0.  1.
    9000007    1    1    2  501    0 -0.71226829575E+02 -0.27165253968E+03  0.47534355873E+03  0.68177698875E+03  0.40000000000E+03 0.  1.
   -9000007    1    1    2    0  503  0.71226829575E+02  0.27165253968E+03  0.13814887814E+03  0.50789120498E+03  0.40000000000E+03 0.  1.
<mgrwt>
<rscale>  2 0.48874161E+03</rscale>
<asrwt>0</asrwt>
<pdfrwt beam="1">  1       21 0.13870466E+00 0.48874161E+03</pdfrwt>
<pdfrwt beam="2">  1       21 0.44321213E-01 0.48874161E+03</pdfrwt>
<totfact> 0.15065466E+03</totfact>
</mgrwt>
</event>
<event>
 4    1  0.4716816E-002  0.4355052E+03  0.7818608E-02  0.1032135E+00
         21   -1    0    0  503  502  0.00000000000E+00  0.00000000000E+00  0.47613959704E+03  0.47613959704E+03  0.00000000000E+00 0. -1.
         21   -1    0    0  501  503 -0.00000000000E+00 -0.00000000000E+00 -0.49857068463E+03  0.49857068463E+03  0.00000000000E+00 0. -1.
    9000007    1    1    2  501    0  0.10247432085E+03 -0.13843322669E+03 -0.22973279385E+03  0.49238389622E+03  0.40000000000E+03 0. -1.
   -9000007    1    1    2    0  502 -0.10247432085E+03  0.13843322669E+03  0.20730170626E+03  0.48232638545E+03  0.40000000000E+03 0. -1.
<mgrwt>
<rscale>  2 0.43550516E+03</rscale>
<asrwt>0</asrwt>
<pdfrwt beam="1">  1       21 0.73252246E-01 0.43550516E+03</pdfrwt>
<pdfrwt beam="2">  1       21 0.76703182E-01 0.43550516E+03</pdfrwt>
<totfact> 0.22039859E+03</totfact>
</mgrwt>
</event>
<event>
 4    1  0.4716816E-002  0.6763141E+03  0.7818608E-02  0.9758618E-01
         21   -1    0    0  501  502  0.00000000000E+00  0.00000000000E+00  0.59203256229E+03  0.59203256229E+03  0.00000000000E+00 0.  1.
         21   -1    0    0  502  503 -0.00000000000E+00 -0.00000000000E+00 -0.80555157900E+03  0.80555157900E+03  0.00000000000E+00 0.  1.
    9000007    1    1    2  501    0 -0.49996201727E+03 -0.21780422936E+03 -0.24810439579E+03  0.72038634929E+03  0.40000000000E+03 0.  1.
   -9000007    1    1    2    0  503  0.49996201727E+03  0.21780422936E+03  0.34585379074E+02  0.67719779200E+03  0.40000000000E+03 0.  1.
<mgrwt>
<rscale>  2 0.67631406E+03</rscale>
<asrwt>0</asrwt>
<pdfrwt beam="1">  1       21 0.91081932E-01 0.67631406E+03</pdfrwt>
<pdfrwt beam="2">  1       21 0.12393101E+00 0.67631406E+03</pdfrwt>
<totfact> 0.38115830E+02</totfact>
</mgrwt>
</event>
<event>
 4    1  0.4716816E-002  0.4189344E+03  0.7818608E-02  0.1037414E+00
         21   -1    0    0  503  502  0.00000000000E+00  0.00000000000E+00  0.24207967542E+04  0.24207967542E+04  0.00000000000E+00 0.  1.
         21   -1    0    0  501  503 -0.00000000000E+00 -0.00000000000E+00 -0.97233985914E+02  0.97233985914E+02  0.00000000000E+00 0. -1.
    9000007    1    1    2  501    0 -0.12206339462E+03  0.24627932279E+02  0.52677891349E+03  0.67305425565E+03  0.40000000000E+03 0. -1.
   -9000007    1    1    2    0  502  0.12206339462E+03 -0.24627932279E+02  0.17967838548E+04  0.18449764845E+04  0.40000000000E+03 0.  1.
<mgrwt>
<rscale>  2 0.41893437E+03</rscale>
<asrwt>0</asrwt>
<pdfrwt beam="1">  1       21 0.37243022E+00 0.41893437E+03</pdfrwt>
<pdfrwt beam="2">  1       21 0.14959077E-01 0.41893437E+03</pdfrwt>
<totfact> 0.40164739E+02</totfact>
</mgrwt>
</event>
<event>
 4    1  0.4716816E-002  0.4986413E+03  0.7818608E-02  0.1014134E+00
         21   -1    0    0  503  502  0.00000000000E+00  0.00000000000E+00  0.38144376212E+03  0.38144376212E+03  0.00000000000E+00 0.  1.
         21   -1    0    0  501  503 -0.00000000000E+00 -0.00000000000E+00 -0.73436655535E+03  0.73436655535E+03  0.00000000000E+00 0.  1.
    9000007    1    1    2  501    0 -0.91703787217E+02 -0.28325533616E+03  0.10555568716E+02  0.49875303516E+03  0.40000000000E+03 0.  1.
   -9000007    1    1    2    0  502  0.91703787217E+02  0.28325533616E+03 -0.36347836194E+03  0.61705728231E+03  0.40000000000E+03 0.  1.
<mgrwt>
<rscale>  2 0.49864132E+03</rscale>
<asrwt>0</asrwt>
<pdfrwt beam="1">  1       21 0.58683657E-01 0.49864132E+03</pdfrwt>
<pdfrwt beam="2">  1       21 0.11297947E+00 0.49864132E+03</pdfrwt>
<totfact> 0.13969773E+03</totfact>
</mgrwt>
</event>
<event>
 4    1  0.4716816E-002  0.4007028E+03  0.7818608E-02  0.1043537E+00
         21   -1    0    0  501  502  0.00000000000E+00  0.00000000000E+00  0.99344409665E+03  0.99344409665E+03  0.00000000000E+00 0.  1.
         21   -1    0    0  502  503 -0.00000000000E+00 -0.00000000000E+00 -0.54022683890E+03  0.54022683890E+03  0.00000000000E+00 0.  1.
    9000007    1    1    2  501    0  0.77159910056E+01  0.22432682875E+02  0.86856719353E+03  0.95654154716E+03  0.40000000000E+03 0.  1.
   -9000007    1    1    2    0  503 -0.77159910056E+01 -0.22432682875E+02 -0.41534993578E+03  0.57712938838E+03  0.40000000000E+03 0.  1.
<mgrwt>
<rscale>  2 0.40070283E+03</rscale>
<asrwt>0</asrwt>
<pdfrwt beam="1">  1       21 0.15283755E+00 0.40070283E+03</pdfrwt>
<pdfrwt beam="2">  1       21 0.83111822E-01 0.40070283E+03</pdfrwt>
<totfact> 0.30309777E+02</totfact>
</mgrwt>
</event>
<event>
 4    1  0.4716816E-002  0.4591650E+03  0.7818608E-02  0.1025024E+00
         21   -1    0    0  501  502  0.00000000000E+00  0.00000000000E+00  0.27386705491E+03  0.27386705491E+03  0.00000000000E+00 0. -1.
         21   -1    0    0  502  503 -0.00000000000E+00 -0.00000000000E+00 -0.79714662980E+03  0.79714662980E+03  0.00000000000E+00 0.  1.
    9000007    1    1    2  501    0  0.22315156012E+03  0.32185561462E+02 -0.16251842565E+03  0.48707778417E+03  0.40000000000E+03 0.  1.
   -9000007    1    1    2    0  503 -0.22315156012E+03 -0.32185561462E+02 -0.36076114923E+03  0.58393590054E+03  0.40000000000E+03 0.  1.
<mgrwt>
<rscale>  2 0.45916503E+03</rscale>
<asrwt>0</asrwt>
<pdfrwt beam="1">  1       21 0.42133392E-01 0.45916503E+03</pdfrwt>
<pdfrwt beam="2">  1       21 0.12263794E+00 0.45916503E+03</pdfrwt>
<totfact> 0.23324099E+03</totfact>
</mgrwt>
</event>
<event>
 4    1  0.4716816E-002  0.4121640E+03  0.7818608E-02  0.1039647E+00
         21   -1    0    0  501  502  0.00000000000E+00  0.00000000000E+00  0.27001480936E+04  0.27001480936E+04  0.00000000000E+00 0.  1.
         21   -1    0    0  502  503 -0.00000000000E+00 -0.00000000000E+00 -0.17043713104E+03  0.17043713104E+03  0.00000000000E+00 0.  1.
    9000007    1    1    2  501    0  0.16933473961E+02 -0.97941038821E+02  0.24048630719E+04  0.24399273727E+04  0.40000000000E+03 0.  1.
   -9000007    1    1    2    0  503 -0.16933473961E+02  0.97941038821E+02  0.12484789070E+03  0.43065785194E+03  0.40000000000E+03 0.  1.
<mgrwt>
<rscale>  2 0.41216403E+03</rscale>
<asrwt>0</asrwt>
<pdfrwt beam="1">  1       21 0.41540737E+00 0.41216403E+03</pdfrwt>
<pdfrwt beam="2">  1       21 0.26221099E-01 0.41216403E+03</pdfrwt>
<totfact> 0.74052008E+01</totfact>
</mgrwt>
</event>
<event>
 4    1  0.4716816E-002  0.5385620E+03  0.7818608E-02  0.1004177E+00
         21   -1    0    0  501  502  0.00000000000E+00  0.00000000000E+00  0.36179268477E+03  0.36179268477E+03  0.00000000000E+00 0. -1.
         21   -1    0    0  502  503 -0.00000000000E+00 -0.00000000000E+00 -0.16406721816E+04  0.16406721816E+04  0.00000000000E+00 0. -1.
    9000007    1    1    2  501    0  0.20455035148E+02  0.36004258098E+03  0.76535276547E+02  0.54397308494E+03  0.40000000000E+03 0. -1.
   -9000007    1    1    2    0  503 -0.20455035148E+02 -0.36004258098E+03 -0.13554147734E+04  0.14584917815E+04  0.40000000000E+03 0. -1.
<mgrwt>
<rscale>  2 0.53856204E+03</rscale>
<asrwt>0</asrwt>
<pdfrwt beam="1">  1       21 0.55660414E-01 0.53856204E+03</pdfrwt>
<pdfrwt beam="2">  1       21 0.25241110E+00 0.53856204E+03</pdfrwt>
<totfact> 0.14782247E+02</totfact>
</mgrwt>
</event>
<event>
 4    1  0.4716816E-002  0.4329948E+03  0.7818608E-02  0.1032918E+00
         21   -1    0    0  503  502  0.00000000000E+00  0.00000000000E+00  0.26531640012E+03  0.26531640012E+03  0.00000000000E+00 0. -1.
         21   -1    0    0  501  503 -0.00000000000E+00 -0.00000000000E+00 -0.92788482802E+03  0.92788482802E+03  0.00000000000E+00 0. -1.
    9000007    1    1    2  501    0  0.13760545582E+03  0.92461881024E+02 -0.62260299757E+03  0.75836597596E+03  0.40000000000E+03 0. -1.
   -9000007    1    1    2    0  502 -0.13760545582E+03 -0.92461881024E+02 -0.39965430333E+02  0.43483525218E+03  0.40000000000E+03 0. -1.
<mgrwt>
<rscale>  2 0.43299476E+03</rscale>
<asrwt>0</asrwt>
<pdfrwt beam="1">  1       21 0.40817907E-01 0.43299476E+03</pdfrwt>
<pdfrwt beam="2">  1       21 0.14275151E+00 0.43299476E+03</pdfrwt>
<totfact> 0.16926523E+03</totfact>
</mgrwt>
</event>
<event>
 4    1  0.4716816E-002  0.5105529E+03  0.7818608E-02  0.1011061E+00
         21   -1    0    0  503  502  0.00000000000E+00  0.00000000000E+00  0.31149677204E+03  0.31149677204E+03  0.00000000000E+00 0. -1.
         21   -1    0    0  501  503 -0.00000000000E+00 -0.00000000000E+00 -0.12002006060E+04  0.12002006060E+04  0.00000000000E+00 0. -1.
    9000007    1    1    2  501    0 -0.27413988021E+03  0.15972332089E+03 -0.86025643834E+03  0.10003526143E+04  0.40000000000E+03 0. -1.
   -9000007    1    1    2    0  502  0.27413988021E+03 -0.15972332089E+03 -0.28447395658E+02  0.51134476381E+03  0.40000000000E+03 0. -1.
<mgrwt>
<rscale>  2 0.51055285E+03</rscale>
<asrwt>0</asrwt>
<pdfrwt beam="1">  1       21 0.47922582E-01 0.51055285E+03</pdfrwt>
<pdfrwt beam="2">  1       21 0.18464624E+00 0.51055285E+03</pdfrwt>
<totfact> 0.56867734E+02</totfact>
</mgrwt>
</event>
<event>
 4    1  0.4716816E-002  0.5058396E+03  0.7818608E-02  0.1012266E+00
         21   -1    0    0  501  502  0.00000000000E+00  0.00000000000E+00  0.20200105679E+04  0.20200105679E+04  0.00000000000E+00 0.  1.
         21   -1    0    0  502  503 -0.00000000000E+00 -0.00000000000E+00 -0.12838292996E+03  0.12838292996E+03  0.00000000000E+00 0. -1.
    9000007    1    1    2  501    0 -0.30018806970E+03 -0.75900299560E+02  0.10699113434E+04  0.11834627224E+04  0.40000000000E+03 0.  1.
   -9000007    1    1    2    0  503  0.30018806970E+03  0.75900299560E+02  0.82171629457E+03  0.96493077545E+03  0.40000000000E+03 0. -1.
<mgrwt>
<rscale>  2 0.50583963E+03</rscale>
<asrwt>0</asrwt>
<pdfrwt beam="1">  1       21 0.31077083E+00 0.50583963E+03</pdfrwt>
<pdfrwt beam="2">  1       21 0.19751222E-01 0.50583963E+03</pdfrwt>
<totfact> 0.53997521E+02</totfact>
</mgrwt>
</event>
<event>
 4    1  0.4716816E-002  0.4207071E+03  0.7818608E-02  0.1036836E+00
         21   -1    0    0  503  502  0.00000000000E+00  0.00000000000E+00  0.84777744033E+03  0.84777744033E+03  0.00000000000E+00 0. -1.
         21   -1    0    0  501  503 -0.00000000000E+00 -0.00000000000E+00 -0.25523844968E+03  0.25523844968E+03  0.00000000000E+00 0. -1.
    9000007    1    1    2  501    0 -0.13012482843E+03  0.78737611769E+01  0.60961910059E+02  0.42510095456E+03  0.40000000000E+03 0. -1.
   -9000007    1    1    2    0  502  0.13012482843E+03 -0.78737611769E+01  0.53157708060E+03  0.67791493545E+03  0.40000000000E+03 0. -1.
<mgrwt>
<rscale>  2 0.42070710E+03</rscale>
<asrwt>0</asrwt>
<pdfrwt beam="1">  1       21 0.13042730E+00 0.42070710E+03</pdfrwt>
<pdfrwt beam="2">  1       21 0.39267454E-01 0.42070710E+03</pdfrwt>
<totfact> 0.23362128E+03</totfact>
</mgrwt>
</event>
<event>
 4    1  0.4716816E-002  0.4561698E+03  0.7818608E-02  0.1025898E+00
         21   -1    0    0  503  502  0.00000000000E+00  0.00000000000E+00  0.95625467721E+03  0.95625467721E+03  0.00000000000E+00 0. -1.
         21   -1    0    0  501  503 -0.00000000000E+00 -0.00000000000E+00 -0.62361731561E+03  0.62361731561E+03  0.00000000000E+00 0. -1.
    9000007    1    1    2  501    0 -0.60057182463E+02 -0.21091227234E+03 -0.47106303275E+03  0.65573716733E+03  0.40000000000E+03 0. -1.
   -9000007    1    1    2    0  502  0.60057182463E+02  0.21091227234E+03  0.80370039435E+03  0.92413482549E+03  0.40000000000E+03 0. -1.
<mgrwt>
<rscale>  2 0.45616976E+03</rscale>
<asrwt>0</asrwt>
<pdfrwt beam="1">  1       21 0.14711610E+00 0.45616976E+03</pdfrwt>
<pdfrwt beam="2">  1       21 0.95941125E-01 0.45616976E+03</pdfrwt>
<totfact> 0.23259912E+02</totfact>
</mgrwt>
</event>
<event>
 4    1  0.4716816E-002  0.4182210E+03  0.7818608E-02  0.1037647E+00
         21   -1    0    0  501  502  0.00000000000E+00  0.00000000000E+00  0.22862249911E+03  0.22862249911E+03  0.00000000000E+00 0.  1.
         21   -1    0    0  502  503 -0.00000000000E+00 -0.00000000000E+00 -0.78367834973E+03  0.78367834973E+03  0.00000000000E+00 0.  1.
    9000007    1    1    2  501    0  0.34513587640E+02  0.11712212018E+03 -0.19950181591E+03  0.46336783803E+03  0.40000000000E+03 0.  1.
   -9000007    1    1    2    0  503 -0.34513587640E+02 -0.11712212018E+03 -0.35555403470E+03  0.54893301081E+03  0.40000000000E+03 0.  1.
<mgrwt>
<rscale>  2 0.41822097E+03</rscale>
<asrwt>0</asrwt>
<pdfrwt beam="1">  1       21 0.35172693E-01 0.41822097E+03</pdfrwt>
<pdfrwt beam="2">  1       21 0.12056590E+00 0.41822097E+03</pdfrwt>
<totfact> 0.35810017E+03</totfact>
</mgrwt>
</event>
<event>
 4    1  0.4716816E-002  0.4654213E+03  0.7818608E-02  0.1023221E+00
         21   -1    0    0  503  502  0.00000000000E+00  0.00000000000E+00  0.14411086143E+04  0.14411086143E+04  0.00000000000E+00 0.  1.
         21   -1    0    0  501  503 -0.00000000000E+00 -0.00000000000E+00 -0.18792134377E+03  0.18792134377E+03  0.00000000000E+00 0. -1.
    9000007    1    1    2  501    0  0.11223119712E+02  0.23767847135E+03  0.26221365582E+03  0.53420315935E+03  0.40000000000E+03 0.  1.
   -9000007    1    1    2    0  502 -0.11223119712E+02 -0.23767847135E+03  0.99097361474E+03  0.10948267988E+04  0.40000000000E+03 0.  1.
<mgrwt>
<rscale>  2 0.46542133E+03</rscale>
<asrwt>0</asrwt>
<pdfrwt beam="1">  1       21 0.22170901E+00 0.46542133E+03</pdfrwt>
<pdfrwt beam="2">  1       21 0.28910977E-01 0.46542133E+03</pdfrwt>
<totfact> 0.92423388E+02</totfact>
</mgrwt>
</event>
<event>
 4    1  0.4716816E-002  0.5013329E+03  0.7818608E-02  0.1013432E+00
         21   -1    0    0  503  502  0.00000000000E+00  0.00000000000E+00  0.70920321046E+03  0.70920321046E+03  0.00000000000E+00 0. -1.
         21   -1    0    0  501  503 -0.00000000000E+00 -0.00000000000E+00 -0.36017725531E+03  0.36017725531E+03  0.00000000000E+00 0. -1.
    9000007    1    1    2  501    0 -0.66709758804E+02  0.29476173029E+03  0.10673746337E+03  0.51256956176E+03  0.40000000000E+03 0. -1.
   -9000007    1    1    2    0  502  0.66709758804E+02 -0.29476173029E+03  0.24228849179E+03  0.55681090400E+03  0.40000000000E+03 0. -1.
<mgrwt>
<rscale>  2 0.50133289E+03</rscale>
<asrwt>0</asrwt>
<pdfrwt beam="1">  1       21 0.10910819E+00 0.50133289E+03</pdfrwt>
<pdfrwt beam="2">  1       21 0.55411886E-01 0.50133289E+03</pdfrwt>
<totfact> 0.17249506E+03</totfact>
</mgrwt>
</event>
<event>
 4    1  0.4716816E-002  0.5673220E+03  0.7818608E-02  0.9975622E-01
         21   -1    0    0  503  502  0.00000000000E+00  0.00000000000E+00  0.26811128490E+03  0.26811128490E+03  0.00000000000E+00 0. -1.
         21   -1    0    0  501  503 -0.00000000000E+00 -0.00000000000E+00 -0.13843709488E+04  0.13843709488E+04  0.00000000000E+00 0. -1.
    9000007    1    1    2  501    0  0.60974557593E+02  0.39766364702E+03 -0.85928880535E+03  0.10296754459E+04  0.40000000000E+03 0. -1.
   -9000007    1    1    2    0  502 -0.60974557593E+02 -0.39766364702E+03 -0.25697085856E+03  0.62280678784E+03  0.40000000000E+03 0. -1.
<mgrwt>
<rscale>  2 0.56732202E+03</rscale>
<asrwt>0</asrwt>
<pdfrwt beam="1">  1       21 0.41247891E-01 0.56732202E+03</pdfrwt>
<pdfrwt beam="2">  1       21 0.21298014E+00 0.56732202E+03</pdfrwt>
<totfact> 0.49046303E+02</totfact>
</mgrwt>
</event>
<event>
 4    1  0.4716816E-002  0.4009564E+03  0.7818608E-02  0.1043449E+00
         21   -1    0    0  501  502  0.00000000000E+00  0.00000000000E+00  0.12593220810E+04  0.12593220810E+04  0.00000000000E+00 0.  1.
         21   -1    0    0  502  503 -0.00000000000E+00 -0.00000000000E+00 -0.40439919699E+03  0.40439919699E+03  0.00000000000E+00 0.  1.
    9000007    1    1    2  501    0 -0.26594234910E+02 -0.76689081760E+01  0.11156067338E+04  0.11854722476E+04  0.40000000000E+03 0.  1.
   -9000007    1    1    2    0  503  0.26594234910E+02  0.76689081760E+01 -0.26068384978E+03  0.47824903034E+03  0.40000000000E+03 0.  1.
<mgrwt>
<rscale>  2 0.40095644E+03</rscale>
<asrwt>0</asrwt>
<pdfrwt beam="1">  1       21 0.19374186E+00 0.40095644E+03</pdfrwt>
<pdfrwt beam="2">  1       21 0.62215262E-01 0.40095644E+03</pdfrwt>
<totfact> 0.29596874E+02</totfact>
</mgrwt>
</event>
<event>
 4    1  0.4716816E-002  0.4553685E+03  0.7818608E-02  0.1026133E+00
         21   -1    0    0  501  502  0.00000000000E+00  0.00000000000E+00  0.43794126190E+03  0.43794126190E+03  0.00000000000E+00 0.  1.
         21   -1    0    0  502  503 -0.00000000000E+00 -0.00000000000E+00 -0.68693825044E+03  0.68693825044E+03  0.00000000000E+00 0.  1.
    9000007    1    1    2  501    0 -0.16389412870E+03 -0.14317530039E+03  0.18902081107E+03  0.49304088987E+03  0.40000000000E+03 0.  1.
   -9000007    1    1    2    0  503  0.16389412870E+03  0.14317530039E+03 -0.43801779962E+03  0.63183862247E+03  0.40000000000E+03 0.  1.
<mgrwt>
<rscale>  2 0.45536848E+03</rscale>
<asrwt>0</asrwt>
<pdfrwt beam="1">  1       21 0.67375579E-01 0.45536848E+03</pdfrwt>
<pdfrwt beam="2">  1       21 0.10568281E+00 0.45536848E+03</pdfrwt>
<totfact> 0.12347432E+03</totfact>
</mgrwt>
</event>
<event>
 4    1  0.4716816E-002  0.7022533E+03  0.7818608E-02  0.9713386E-01
         21   -1    0    0  503  502  0.00000000000E+00  0.00000000000E+00  0.27857377341E+04  0.27857377341E+04  0.00000000000E+00 0. -1.
         21   -1    0    0  501  503 -0.00000000000E+00 -0.00000000000E+00 -0.21409820637E+03  0.21409820637E+03  0.00000000000E+00 0. -1.
    9000007    1    1    2  501    0  0.54386244278E+03  0.19332191757E+03  0.66171056673E+03  0.96489408466E+03  0.40000000000E+03 0. -1.
   -9000007    1    1    2    0  502 -0.54386244278E+03 -0.19332191757E+03  0.19099289610E+04  0.20349418559E+04  0.40000000000E+03 0. -1.
<mgrwt>
<rscale>  2 0.70225332E+03</rscale>
<asrwt>0</asrwt>
<pdfrwt beam="1">  1       21 0.42857501E+00 0.70225332E+03</pdfrwt>
<pdfrwt beam="2">  1       21 0.32938188E-01 0.70225332E+03</pdfrwt>
<totfact> 0.32384546E+01</totfact>
</mgrwt>
</event>
<event>
 4    1  0.4716816E-002  0.4002159E+03  0.7818608E-02  0.1043705E+00
         21   -1    0    0  501  502  0.00000000000E+00  0.00000000000E+00  0.32952572961E+03  0.32952572961E+03  0.00000000000E+00 0.  1.
         21   -1    0    0  502  503 -0.00000000000E+00 -0.00000000000E+00 -0.81847380332E+03  0.81847380332E+03  0.00000000000E+00 0.  1.
    9000007    1    1    2  501    0  0.24747695605E+01 -0.12910018881E+02  0.12132442633E+03  0.41820139825E+03  0.40000000000E+03 0.  1.
   -9000007    1    1    2    0  503 -0.24747695605E+01  0.12910018881E+02 -0.61027250004E+03  0.72979813468E+03  0.40000000000E+03 0.  1.
<mgrwt>
<rscale>  2 0.40021593E+03</rscale>
<asrwt>0</asrwt>
<pdfrwt beam="1">  1       21 0.50696267E-01 0.40021593E+03</pdfrwt>
<pdfrwt beam="2">  1       21 0.12591904E+00 0.40021593E+03</pdfrwt>
<totfact> 0.15136845E+03</totfact>
</mgrwt>
</event>
<event>
 4    1  0.4716816E-002  0.4596202E+03  0.7818608E-02  0.1024891E+00
         21   -1    0    0  503  502  0.00000000000E+00  0.00000000000E+00  0.24899838597E+03  0.24899838597E+03  0.00000000000E+00 0.  1.
         21   -1    0    0  501  503 -0.00000000000E+00 -0.00000000000E+00 -0.85110720496E+03  0.85110720496E+03  0.00000000000E+00 0. -1.
    9000007    1    1    2  501    0  0.98854006118E+02  0.20366297731E+03 -0.33206529728E+03  0.56702564713E+03  0.40000000000E+03 0. -1.
   -9000007    1    1    2    0  502 -0.98854006118E+02 -0.20366297731E+03 -0.27004352172E+03  0.53307994379E+03  0.40000000000E+03 0. -1.
<mgrwt>
<rscale>  2 0.45962019E+03</rscale>
<asrwt>0</asrwt>
<pdfrwt beam="1">  1       21 0.38307444E-01 0.45962019E+03</pdfrwt>
<pdfrwt beam="2">  1       21 0.13093957E+00 0.45962019E+03</pdfrwt>
<totfact> 0.23964685E+03</totfact>
</mgrwt>
</event>
<event>
 4    1  0.4716816E-002  0.4266864E+03  0.7818608E-02  0.1034912E+00
         21   -1    0    0  501  502  0.00000000000E+00  0.00000000000E+00  0.21649610182E+03  0.21649610182E+03  0.00000000000E+00 0.  1.
         21   -1    0    0  502  503 -0.00000000000E+00 -0.00000000000E+00 -0.84337432649E+03  0.84337432649E+03  0.00000000000E+00 0.  1.
    9000007    1    1    2  501    0  0.14163346009E+03  0.44735226208E+02 -0.34188180793E+03  0.54675812575E+03  0.40000000000E+03 0.  1.
   -9000007    1    1    2    0  503 -0.14163346009E+03 -0.44735226208E+02 -0.28499641674E+03  0.51311230256E+03  0.40000000000E+03 0.  1.
<mgrwt>
<rscale>  2 0.42668639E+03</rscale>
<asrwt>0</asrwt>
<pdfrwt beam="1">  1       21 0.33307093E-01 0.42668639E+03</pdfrwt>
<pdfrwt beam="2">  1       21 0.12974990E+00 0.42668639E+03</pdfrwt>
<totfact> 0.32995804E+03</totfact>
</mgrwt>
</event>
<event>
 4    1  0.4716816E-002  0.5909942E+03  0.7818608E-02  0.9924268E-01
         21   -1    0    0  501  502  0.00000000000E+00  0.00000000000E+00  0.23101278595E+04  0.23101278595E+04  0.00000000000E+00 0. -1.
         21   -1    0    0  502  503 -0.00000000000E+00 -0.00000000000E+00 -0.15856027013E+03  0.15856027013E+03  0.00000000000E+00 0.  1.
    9000007    1    1    2  501    0  0.21377843230E+02 -0.43453093582E+03  0.80970804608E+03  0.10024476377E+04  0.40000000000E+03 0.  1.
   -9000007    1    1    2    0  503 -0.21377843230E+02  0.43453093582E+03  0.13418595433E+04  0.14662404920E+04  0.40000000000E+03 0. -1.
<mgrwt>
<rscale>  2 0.59099420E+03</rscale>
<asrwt>0</asrwt>
<pdfrwt beam="1">  1       21 0.35540426E+00 0.59099420E+03</pdfrwt>
<pdfrwt beam="2">  1       21 0.24393889E-01 0.59099420E+03</pdfrwt>
<totfact> 0.18356439E+02</totfact>
</mgrwt>
</event>
<event>
 4    1  0.4716816E-002  0.4463276E+03  0.7818608E-02  0.1028823E+00
         21   -1    0    0  503  502  0.00000000000E+00  0.00000000000E+00  0.59702791546E+03  0.59702791546E+03  0.00000000000E+00 0.  1.
         21   -1    0    0  501  503 -0.00000000000E+00 -0.00000000000E+00 -0.43904918375E+03  0.43904918375E+03  0.00000000000E+00 0.  1.
    9000007    1    1    2  501    0  0.91149361637E+02  0.17578426405E+03 -0.17480955926E+03  0.47933985399E+03  0.40000000000E+03 0.  1.
   -9000007    1    1    2    0  502 -0.91149361637E+02 -0.17578426405E+03  0.33278829096E+03  0.55673724522E+03  0.40000000000E+03 0.  1.
<mgrwt>
<rscale>  2 0.44632759E+03</rscale>
<asrwt>0</asrwt>
<pdfrwt beam="1">  1       21 0.91850448E-01 0.44632759E+03</pdfrwt>
<pdfrwt beam="2">  1       21 0.67546029E-01 0.44632759E+03</pdfrwt>
<totfact> 0.17305045E+03</totfact>
</mgrwt>
</event>
<event>
 4    1  0.4716816E-002  0.5063167E+03  0.7818608E-02  0.1012143E+00
         21   -1    0    0  501  502  0.00000000000E+00  0.00000000000E+00  0.11822053174E+04  0.11822053174E+04  0.00000000000E+00 0. -1.
         21   -1    0    0  502  503 -0.00000000000E+00 -0.00000000000E+00 -0.27587853491E+03  0.27587853491E+03  0.00000000000E+00 0. -1.
    9000007    1    1    2  501    0 -0.20792485208E+03  0.23048619272E+03  0.79040320889E+03  0.93866600118E+03  0.40000000000E+03 0. -1.
   -9000007    1    1    2    0  503  0.20792485208E+03 -0.23048619272E+03  0.11592357358E+03  0.51941785111E+03  0.40000000000E+03 0. -1.
<mgrwt>
<rscale>  2 0.50631673E+03</rscale>
<asrwt>0</asrwt>
<pdfrwt beam="1">  1       21 0.18187774E+00 0.50631673E+03</pdfrwt>
<pdfrwt beam="2">  1       21 0.42442852E-01 0.50631673E+03</pdfrwt>
<totfact> 0.76881305E+02</totfact>
</mgrwt>
</event>
<event>
 4    1  0.4716816E-002  0.4098209E+03  0.7818608E-02  0.1040431E+00
         21   -1    0    0  501  502  0.00000000000E+00  0.00000000000E+00  0.71459874764E+03  0.71459874764E+03  0.00000000000E+00 0. -1.
         21   -1    0    0  502  503 -0.00000000000E+00 -0.00000000000E+00 -0.44693246145E+03  0.44693246145E+03  0.00000000000E+00 0. -1.
    9000007    1    1    2  501    0 -0.86234123924E+02 -0.22734303629E+02  0.53372859337E+03  0.67291855679E+03  0.40000000000E+03 0. -1.
   -9000007    1    1    2    0  503  0.86234123924E+02  0.22734303629E+02 -0.26606230717E+03  0.48861265230E+03  0.40000000000E+03 0. -1.
<mgrwt>
<rscale>  2 0.40982090E+03</rscale>
<asrwt>0</asrwt>
<pdfrwt beam="1">  1       21 0.10993827E+00 0.40982090E+03</pdfrwt>
<pdfrwt beam="2">  1       21 0.68758840E-01 0.40982090E+03</pdfrwt>
<totfact> 0.10910241E+03</totfact>
</mgrwt>
</event>
<event>
 4    1  0.4716816E-002  0.4889950E+03  0.7818608E-02  0.1016692E+00
         21   -1    0    0  503  502  0.00000000000E+00  0.00000000000E+00  0.26743692842E+03  0.26743692842E+03  0.00000000000E+00 0.  1.
         21   -1    0    0  501  503 -0.00000000000E+00 -0.00000000000E+00 -0.89575032326E+03  0.89575032326E+03  0.00000000000E+00 0.  1.
    9000007    1    1    2  501    0 -0.28039894925E+03  0.22194174268E+02 -0.33909801885E+03  0.59506606230E+03  0.40000000000E+03 0.  1.
   -9000007    1    1    2    0  502  0.28039894925E+03 -0.22194174268E+02 -0.28921537599E+03  0.56812118938E+03  0.40000000000E+03 0.  1.
<mgrwt>
<rscale>  2 0.48899504E+03</rscale>
<asrwt>0</asrwt>
<pdfrwt beam="1">  1       21 0.41144143E-01 0.48899504E+03</pdfrwt>
<pdfrwt beam="2">  1       21 0.13780774E+00 0.48899504E+03</pdfrwt>
<totfact> 0.17894940E+03</totfact>
</mgrwt>
</event>
<event>
 4    1  0.4716816E-002  0.4313733E+03  0.7818608E-02  0.1033427E+00
         21   -1    0    0  503  502  0.00000000000E+00  0.00000000000E+00  0.10168566990E+04  0.10168566990E+04  0.00000000000E+00 0. -1.
         21   -1    0    0  501  503 -0.00000000000E+00 -0.00000000000E+00 -0.39997500261E+03  0.39997500261E+03  0.00000000000E+00 0. -1.
    9000007    1    1    2  501    0 -0.15284935921E+03 -0.52153497123E+02 -0.21332845947E+03  0.48124000820E+03  0.40000000000E+03 0. -1.
   -9000007    1    1    2    0  502  0.15284935921E+03  0.52153497123E+02  0.83021015584E+03  0.93559169339E+03  0.40000000000E+03 0. -1.
<mgrwt>
<rscale>  2 0.43137329E+03</rscale>
<asrwt>0</asrwt>
<pdfrwt beam="1">  1       21 0.15643949E+00 0.43137329E+03</pdfrwt>
<pdfrwt beam="2">  1       21 0.61534616E-01 0.43137329E+03</pdfrwt>
<totfact> 0.55174735E+02</totfact>
</mgrwt>
</event>
<event>
 4    1  0.4716816E-002  0.4418250E+03  0.7818608E-02  0.1030188E+00
         21   -1    0    0  503  502  0.00000000000E+00  0.00000000000E+00  0.94071149201E+03  0.94071149201E+03  0.00000000000E+00 0. -1.
         21   -1    0    0  501  503 -0.00000000000E+00 -0.00000000000E+00 -0.22226412793E+03  0.22226412793E+03  0.00000000000E+00 0. -1.
    9000007    1    1    2  501    0  0.14548555513E+03 -0.11850447009E+03  0.20941862108E+03  0.48894326362E+03  0.40000000000E+03 0. -1.
   -9000007    1    1    2    0  502 -0.14548555513E+03  0.11850447009E+03  0.50902874299E+03  0.67403235632E+03  0.40000000000E+03 0. -1.
<mgrwt>
<rscale>  2 0.44182503E+03</rscale>
<asrwt>0</asrwt>
<pdfrwt beam="1">  1       21 0.14472484E+00 0.44182503E+03</pdfrwt>
<pdfrwt beam="2">  1       21 0.34194482E-01 0.44182503E+03</pdfrwt>
<totfact> 0.23328846E+03</totfact>
</mgrwt>
</event>
<event>
 4    1  0.4716816E-002  0.4839276E+03  0.7818608E-02  0.1018061E+00
         21   -1    0    0  501  502  0.00000000000E+00  0.00000000000E+00  0.89865151903E+03  0.89865151903E+03  0.00000000000E+00 0.  1.
         21   -1    0    0  502  503 -0.00000000000E+00 -0.00000000000E+00 -0.49650149623E+03  0.49650149623E+03  0.00000000000E+00 0. -1.
    9000007    1    1    2  501    0 -0.10104531404E+02  0.27218351376E+03  0.68191391268E+03  0.83617734424E+03  0.40000000000E+03 0.  1.
   -9000007    1    1    2    0  503  0.10104531404E+02 -0.27218351376E+03 -0.27976388987E+03  0.55897567102E+03  0.40000000000E+03 0. -1.
<mgrwt>
<rscale>  2 0.48392765E+03</rscale>
<asrwt>0</asrwt>
<pdfrwt beam="1">  1       21 0.13825408E+00 0.48392765E+03</pdfrwt>
<pdfrwt beam="2">  1       21 0.76384846E-01 0.48392765E+03</pdfrwt>
<totfact> 0.46303426E+02</totfact>
</mgrwt>
</event>
<event>
 4    1  0.4716816E-002  0.5719167E+03  0.7818608E-02  0.9965446E-01
         21   -1    0    0  501  502  0.00000000000E+00  0.00000000000E+00  0.33880939534E+03  0.33880939534E+03  0.00000000000E+00 0. -1.
         21   -1    0    0  502  503 -0.00000000000E+00 -0.00000000000E+00 -0.13490982125E+04  0.13490982125E+04  0.00000000000E+00 0. -1.
    9000007    1    1    2  501    0  0.34624230233E+03 -0.21726717514E+03 -0.55066020153E+02  0.57456159278E+03  0.40000000000E+03 0. -1.
   -9000007    1    1    2    0  503 -0.34624230233E+03  0.21726717514E+03 -0.95522279697E+03  0.11133460150E+04  0.40000000000E+03 0. -1.
<mgrwt>
<rscale>  2 0.57191674E+03</rscale>
<asrwt>0</asrwt>
<pdfrwt beam="1">  1       21 0.52124521E-01 0.57191674E+03</pdfrwt>
<pdfrwt beam="2">  1       21 0.20755357E+00 0.57191674E+03</pdfrwt>
<totfact> 0.32402168E+02</totfact>
</mgrwt>
</event>
<event>
 4    1  0.4716816E-002  0.4874178E+03  0.7818608E-02  0.1017116E+00
         21   -1    0    0  503  502  0.00000000000E+00  0.00000000000E+00  0.57468374668E+03  0.57468374668E+03  0.00000000000E+00 0.  1.
         21   -1    0    0  501  503 -0.00000000000E+00 -0.00000000000E+00 -0.68095265275E+03  0.68095265275E+03  0.00000000000E+00 0.  1.
    9000007    1    1    2  501    0  0.11999624361E+02 -0.27826632025E+03 -0.44666407259E+03  0.66112398966E+03  0.40000000000E+03 0.  1.
   -9000007    1    1    2    0  502 -0.11999624361E+02  0.27826632025E+03  0.34039516652E+03  0.59451240976E+03  0.40000000000E+03 0.  1.
<mgrwt>
<rscale>  2 0.48741782E+03</rscale>
<asrwt>0</asrwt>
<pdfrwt beam="1">  1       21 0.88412884E-01 0.48741782E+03</pdfrwt>
<pdfrwt beam="2">  1       21 0.10476195E+00 0.48741782E+03</pdfrwt>
<totfact> 0.66707554E+02</totfact>
</mgrwt>
</event>
<event>
 4    1  0.4716816E-002  0.4156660E+03  0.7818608E-02  0.1038486E+00
         21   -1    0    0  503  502  0.00000000000E+00  0.00000000000E+00  0.82032525691E+03  0.82032525691E+03  0.00000000000E+00 0.  1.
         21   -1    0    0  501  503 -0.00000000000E+00 -0.00000000000E+00 -0.23578985594E+03  0.23578985594E+03  0.00000000000E+00 0.  1.
    9000007    1    1    2  501    0 -0.10623921391E+03  0.38619720784E+02  0.11974553807E+03  0.43257051135E+03  0.40000000000E+03 0.  1.
   -9000007    1    1    2    0  502  0.10623921391E+03 -0.38619720784E+02  0.46478986290E+03  0.62354460150E+03  0.40000000000E+03 0.  1.
<mgrwt>
<rscale>  2 0.41566604E+03</rscale>
<asrwt>0</asrwt>
<pdfrwt beam="1">  1       21 0.12620388E+00 0.41566604E+03</pdfrwt>
<pdfrwt beam="2">  1       21 0.36275363E-01 0.41566604E+03</pdfrwt>
<totfact> 0.29957338E+03</totfact>
</mgrwt>
</event>
<event>
 4    1  0.4716816E-002  0.4527709E+03  0.7818608E-02  0.1026899E+00
         21   -1    0    0  501  502  0.00000000000E+00  0.00000000000E+00  0.30869228059E+03  0.30869228059E+03  0.00000000000E+00 0.  1.
         21   -1    0    0  502  503 -0.00000000000E+00 -0.00000000000E+00 -0.68748357704E+03  0.68748357704E+03  0.00000000000E+00 0.  1.
    9000007    1    1    2  501    0  0.21196525513E+03 -0.84958362734E+01 -0.97527859681E+02  0.46315562399E+03  0.40000000000E+03 0.  1.
   -9000007    1    1    2    0  503 -0.21196525513E+03  0.84958362734E+01 -0.28126343677E+03  0.53302023365E+03  0.40000000000E+03 0.  1.
<mgrwt>
<rscale>  2 0.45277086E+03</rscale>
<asrwt>0</asrwt>
<pdfrwt beam="1">  1       21 0.47491120E-01 0.45277086E+03</pdfrwt>
<pdfrwt beam="2">  1       21 0.10576670E+00 0.45277086E+03</pdfrwt>
<totfact> 0.26361030E+03</totfact>
</mgrwt>
</event>
<event>
 4    1  0.4716816E-002  0.4607971E+03  0.7818608E-02  0.1024550E+00
         21   -1    0    0  501  502  0.00000000000E+00  0.00000000000E+00  0.61001603786E+03  0.61001603786E+03  0.00000000000E+00 0.  1.
         21   -1    0    0  502  503 -0.00000000000E+00 -0.00000000000E+00 -0.45104320855E+03  0.45104320855E+03  0.00000000000E+00 0.  1.
    9000007    1    1    2  501    0 -0.12472672058E+03  0.19177395949E+03  0.33296594789E+03  0.56850710534E+03  0.40000000000E+03 0.  1.
   -9000007    1    1    2    0  503  0.12472672058E+03 -0.19177395949E+03 -0.17399311858E+03  0.49255214108E+03  0.40000000000E+03 0.  1.
<mgrwt>
<rscale>  2 0.46079714E+03</rscale>
<asrwt>0</asrwt>
<pdfrwt beam="1">  1       21 0.93848621E-01 0.46079714E+03</pdfrwt>
<pdfrwt beam="2">  1       21 0.69391263E-01 0.46079714E+03</pdfrwt>
<totfact> 0.15388974E+03</totfact>
</mgrwt>
</event>
<event>
 4    1  0.4716816E-002  0.6896976E+03  0.7818608E-02  0.9735015E-01
         21   -1    0    0  501  502  0.00000000000E+00  0.00000000000E+00  0.59178803641E+03  0.59178803641E+03  0.00000000000E+00 0.  1.
         21   -1    0    0  502  503 -0.00000000000E+00 -0.00000000000E+00 -0.16877342299E+04  0.16877342299E+04  0.00000000000E+00 0.  1.
    9000007    1    1    2  501    0 -0.53630769400E+03 -0.16750169268E+03  0.27686805864E+03  0.74319491494E+03  0.40000000000E+03 0.  1.
   -9000007    1    1    2    0  503  0.53630769400E+03  0.16750169268E+03 -0.13728142521E+04  0.15363273514E+04  0.40000000000E+03 0.  1.
<mgrwt>
<rscale>  2 0.68969759E+03</rscale>
<asrwt>0</asrwt>
<pdfrwt beam="1">  1       21 0.91044314E-01 0.68969759E+03</pdfrwt>
<pdfrwt beam="2">  1       21 0.25965142E+00 0.68969759E+03</pdfrwt>
<totfact> 0.40622054E+01</totfact>
</mgrwt>
</event>
<event>
 4    1  0.4716816E-002  0.4146504E+03  0.7818608E-02  0.1038822E+00
         21   -1    0    0  501  502  0.00000000000E+00  0.00000000000E+00  0.91608308970E+03  0.91608308970E+03  0.00000000000E+00 0.  1.
         21   -1    0    0  502  503 -0.00000000000E+00 -0.00000000000E+00 -0.45339335892E+03  0.45339335892E+03  0.00000000000E+00 0.  1.
    9000007    1    1    2  501    0  0.28025870489E+02 -0.10559114409E+03  0.75553604225E+03  0.86184084973E+03  0.40000000000E+03 0.  1.
   -9000007    1    1    2    0  503 -0.28025870489E+02  0.10559114409E+03 -0.29284631146E+03  0.50763559889E+03  0.40000000000E+03 0.  1.
<mgrwt>
<rscale>  2 0.41465038E+03</rscale>
<asrwt>0</asrwt>
<pdfrwt beam="1">  1       21 0.14093586E+00 0.41465038E+03</pdfrwt>
<pdfrwt beam="2">  1       21 0.69752825E-01 0.41465038E+03</pdfrwt>
<totfact> 0.55820727E+02</totfact>
</mgrwt>
</event>
<event>
 4    1  0.4716816E-002  0.5687627E+03  0.7818608E-02  0.9972420E-01
         21   -1    0    0  501  502  0.00000000000E+00  0.00000000000E+00  0.50486993343E+03  0.50486993343E+03  0.00000000000E+00 0.  1.
         21   -1    0    0  502  503 -0.00000000000E+00 -0.00000000000E+00 -0.94382881551E+03  0.94382881551E+03  0.00000000000E+00 0. -1.
    9000007    1    1    2  501    0  0.11539408782E+03 -0.38752447952E+03  0.19099441075E+03  0.59997490170E+03  0.40000000000E+03 0.  1.
   -9000007    1    1    2    0  503 -0.11539408782E+03  0.38752447952E+03 -0.62995329283E+03  0.84872384724E+03  0.40000000000E+03 0. -1.
<mgrwt>
<rscale>  2 0.56876271E+03</rscale>
<asrwt>0</asrwt>
<pdfrwt beam="1">  1       21 0.77672298E-01 0.56876271E+03</pdfrwt>
<pdfrwt beam="2">  1       21 0.14520443E+00 0.56876271E+03</pdfrwt>
<totfact> 0.37768813E+02</totfact>
</mgrwt>
</event>
<event>
 4    1  0.4716816E-002  0.5317411E+03  0.7818608E-02  0.1005811E+00
         21   -1    0    0  501  502  0.00000000000E+00  0.00000000000E+00  0.30855503606E+03  0.30855503606E+03  0.00000000000E+00 0.  1.
         21   -1    0    0  502  503 -0.00000000000E+00 -0.00000000000E+00 -0.21833488544E+04  0.21833488544E+04  0.00000000000E+00 0. -1.
    9000007    1    1    2  501    0 -0.18999108956E+03 -0.29436713432E+03  0.11732641494E+02  0.53187054699E+03  0.40000000000E+03 0.  1.
   -9000007    1    1    2    0  503  0.18999108956E+03  0.29436713432E+03 -0.18865264599E+04  0.19600333435E+04  0.40000000000E+03 0. -1.
<mgrwt>
<rscale>  2 0.53174112E+03</rscale>
<asrwt>0</asrwt>
<pdfrwt beam="1">  1       21 0.47470005E-01 0.53174112E+03</pdfrwt>
<pdfrwt beam="2">  1       21 0.33589983E+00 0.53174112E+03</pdfrwt>
<totfact> 0.64727625E+01</totfact>
</mgrwt>
</event>
<event>
 4    1  0.4716816E-002  0.5170324E+03  0.7818608E-02  0.1009426E+00
         21   -1    0    0  501  502  0.00000000000E+00  0.00000000000E+00  0.40781147482E+03  0.40781147482E+03  0.00000000000E+00 0.  1.
         21   -1    0    0  502  503 -0.00000000000E+00 -0.00000000000E+00 -0.71710044596E+03  0.71710044596E+03  0.00000000000E+00 0.  1.
    9000007    1    1    2  501    0 -0.27552160381E+03 -0.17722962515E+03  0.10199285205E+02  0.51713298059E+03  0.40000000000E+03 0.  1.
   -9000007    1    1    2    0  503  0.27552160381E+03  0.17722962515E+03 -0.31948825634E+03  0.60777894019E+03  0.40000000000E+03 0.  1.
<mgrwt>
<rscale>  2 0.51703239E+03</rscale>
<asrwt>0</asrwt>
<pdfrwt beam="1">  1       21 0.62740228E-01 0.51703239E+03</pdfrwt>
<pdfrwt beam="2">  1       21 0.11032314E+00 0.51703239E+03</pdfrwt>
<totfact> 0.12713955E+03</totfact>
</mgrwt>
</event>
<event>
 4    1  0.4716816E-002  0.4658062E+03  0.7818608E-02  0.1023111E+00
         21   -1    0    0  501  502  0.00000000000E+00  0.00000000000E+00  0.11916908641E+04  0.11916908641E+04  0.00000000000E+00 0. -1.
         21   -1    0    0  502  503 -0.00000000000E+00 -0.00000000000E+00 -0.26025902161E+03  0.26025902161E+03  0.00000000000E+00 0.  1.
    9000007    1    1    2  501    0  0.13919465230E+03  0.19390781690E+03  0.67808765248E+02  0.47071586050E+03  0.40000000000E+03 0.  1.
   -9000007    1    1    2    0  503 -0.13919465230E+03 -0.19390781690E+03  0.86362307723E+03  0.98123402520E+03  0.40000000000E+03 0.  1.
<mgrwt>
<rscale>  2 0.46580618E+03</rscale>
<asrwt>0</asrwt>
<pdfrwt beam="1">  1       21 0.18333705E+00 0.46580618E+03</pdfrwt>
<pdfrwt beam="2">  1       21 0.40039850E-01 0.46580618E+03</pdfrwt>
<totfact> 0.86197421E+02</totfact>
</mgrwt>
</event>
<event>
 4    1  0.4716816E-002  0.4335357E+03  0.7818608E-02  0.1032749E+00
         21   -1    0    0  503  502  0.00000000000E+00  0.00000000000E+00  0.34080384709E+03  0.34080384709E+03  0.00000000000E+00 0.  1.
         21   -1    0    0  501  503 -0.00000000000E+00 -0.00000000000E+00 -0.64887421346E+03  0.64887421346E+03  0.00000000000E+00 0.  1.
    9000007    1    1    2  501    0 -0.16717612673E+03  0.23077765841E+01 -0.34572832565E+03  0.55450992628E+03  0.40000000000E+03 0.  1.
   -9000007    1    1    2    0  502  0.16717612673E+03 -0.23077765841E+01  0.37657959287E+02  0.43516813427E+03  0.40000000000E+03 0.  1.
<mgrwt>
<rscale>  2 0.43353568E+03</rscale>
<asrwt>0</asrwt>
<pdfrwt beam="1">  1       21 0.52431361E-01 0.43353568E+03</pdfrwt>
<pdfrwt beam="2">  1       21 0.99826802E-01 0.43353568E+03</pdfrwt>
<totfact> 0.24784310E+03</totfact>
</mgrwt>
</event>
<event>
 4    1  0.4716816E-002  0.4147296E+03  0.7818608E-02  0.1038795E+00
         21   -1    0    0  503  502  0.00000000000E+00  0.00000000000E+00  0.88082743720E+03  0.88082743720E+03  0.00000000000E+00 0.  1.
         21   -1    0    0  501  503 -0.00000000000E+00 -0.00000000000E+00 -0.51011542881E+03  0.51011542881E+03  0.00000000000E+00 0.  1.
    9000007    1    1    2  501    0  0.10167730958E+03  0.40771947251E+02 -0.36102126633E+03  0.54985178158E+03  0.40000000000E+03 0.  1.
   -9000007    1    1    2    0  502 -0.10167730958E+03 -0.40771947251E+02  0.73173327472E+03  0.84109108443E+03  0.40000000000E+03 0.  1.
<mgrwt>
<rscale>  2 0.41472958E+03</rscale>
<asrwt>0</asrwt>
<pdfrwt beam="1">  1       21 0.13551191E+00 0.41472958E+03</pdfrwt>
<pdfrwt beam="2">  1       21 0.78479297E-01 0.41472958E+03</pdfrwt>
<totfact> 0.47373061E+02</totfact>
</mgrwt>
</event>
<event>
 4    1  0.4716816E-002  0.6945039E+03  0.7818608E-02  0.9726678E-01
         21   -1    0    0  501  502  0.00000000000E+00  0.00000000000E+00  0.49170777958E+03  0.49170777958E+03  0.00000000000E+00 0. -1.
         21   -1    0    0  502  503 -0.00000000000E+00 -0.00000000000E+00 -0.98977337186E+03  0.98977337186E+03  0.00000000000E+00 0. -1.
    9000007    1    1    2  501    0  0.29329489919E+03  0.48612115304E+03 -0.31901204982E+03  0.76426720540E+03  0.40000000000E+03 0. -1.
   -9000007    1    1    2    0  503 -0.29329489919E+03 -0.48612115304E+03 -0.17905354246E+03  0.71721394604E+03  0.40000000000E+03 0. -1.
<mgrwt>
<rscale>  2 0.69450390E+03</rscale>
<asrwt>0</asrwt>
<pdfrwt beam="1">  1       21 0.75647351E-01 0.69450390E+03</pdfrwt>
<pdfrwt beam="2">  1       21 0.15227283E+00 0.69450390E+03</pdfrwt>
<totfact> 0.33800944E+02</totfact>
</mgrwt>
</event>
<event>
 4    1  0.4716816E-002  0.4889616E+03  0.7818608E-02  0.1016701E+00
         21   -1    0    0  501  502  0.00000000000E+00  0.00000000000E+00  0.12378768928E+04  0.12378768928E+04  0.00000000000E+00 0. -1.
         21   -1    0    0  502  503 -0.00000000000E+00 -0.00000000000E+00 -0.20612761950E+03  0.20612761950E+03  0.00000000000E+00 0. -1.
    9000007    1    1    2  501    0  0.23562916384E+03  0.15350032571E+03  0.33464197961E+03  0.59251051245E+03  0.40000000000E+03 0. -1.
   -9000007    1    1    2    0  503 -0.23562916384E+03 -0.15350032571E+03  0.69710729365E+03  0.85149399981E+03  0.40000000000E+03 0. -1.
<mgrwt>
<rscale>  2 0.48896161E+03</rscale>
<asrwt>0</asrwt>
<pdfrwt beam="1">  1       21 0.19044259E+00 0.48896161E+03</pdfrwt>
<pdfrwt beam="2">  1       21 0.31711942E-01 0.48896161E+03</pdfrwt>
<totfact> 0.12239803E+03</totfact>
</mgrwt>
</event>
<event>
 4    1  0.4716816E-002  0.4769212E+03  0.7818608E-02  0.1019985E+00
         21   -1    0    0  501  502  0.00000000000E+00  0.00000000000E+00  0.92038094527E+03  0.92038094527E+03  0.00000000000E+00 0. -1.
         21   -1    0    0  502  503 -0.00000000000E+00 -0.00000000000E+00 -0.35277117891E+03  0.35277117891E+03  0.00000000000E+00 0.  1.
    9000007    1    1    2  501    0  0.25886908526E+03  0.20990700833E+02  0.63215841554E+03  0.79188261451E+03  0.40000000000E+03 0. -1.
   -9000007    1    1    2    0  503 -0.25886908526E+03 -0.20990700833E+02 -0.64548649185E+02  0.48126950967E+03  0.40000000000E+03 0.  1.
<mgrwt>
<rscale>  2 0.47692118E+03</rscale>
<asrwt>0</asrwt>
<pdfrwt beam="1">  1       21 0.14159707E+00 0.47692118E+03</pdfrwt>
<pdfrwt beam="2">  1       21 0.54272489E-01 0.47692118E+03</pdfrwt>
<totfact> 0.93143721E+02</totfact>
</mgrwt>
</event>
<event>
 4    1  0.4716816E-002  0.5777046E+03  0.7818608E-02  0.9952773E-01
         21   -1    0    0  501  502  0.00000000000E+00  0.00000000000E+00  0.10088641576E+04  0.10088641576E+04  0.00000000000E+00 0. -1.
         21   -1    0    0  502  503 -0.00000000000E+00 -0.00000000000E+00 -0.78726304377E+03  0.78726304377E+03  0.00000000000E+00 0. -1.
    9000007    1    1    2  501    0 -0.17366204389E+03  0.37892496606E+03  0.79462572675E+03  0.98243202361E+03  0.40000000000E+03 0. -1.
   -9000007    1    1    2    0  503  0.17366204389E+03 -0.37892496606E+03 -0.57302461289E+03  0.81369517779E+03  0.40000000000E+03 0. -1.
<mgrwt>
<rscale>  2 0.57770463E+03</rscale>
<asrwt>0</asrwt>
<pdfrwt beam="1">  1       21 0.15520987E+00 0.57770463E+03</pdfrwt>
<pdfrwt beam="2">  1       21 0.12111739E+00 0.57770463E+03</pdfrwt>
<totfact> 0.10661825E+02</totfact>
</mgrwt>
</event>
<event>
 4    1  0.4716816E-002  0.5187388E+03  0.7818608E-02  0.1009000E+00
         21   -1    0    0  501  502  0.00000000000E+00  0.00000000000E+00  0.60139404646E+03  0.60139404646E+03  0.00000000000E+00 0.  1.
         21   -1    0    0  502  503 -0.00000000000E+00 -0.00000000000E+00 -0.85439055824E+03  0.85439055824E+03  0.00000000000E+00 0. -1.
    9000007    1    1    2  501    0  0.23447884196E+03  0.23261472993E+03  0.37585334383E+03  0.64059009981E+03  0.40000000000E+03 0.  1.
   -9000007    1    1    2    0  503 -0.23447884196E+03 -0.23261472993E+03 -0.62884985561E+03  0.81519450489E+03  0.40000000000E+03 0. -1.
<mgrwt>
<rscale>  2 0.51873880E+03</rscale>
<asrwt>0</asrwt>
<pdfrwt beam="1">  1       21 0.92522161E-01 0.51873880E+03</pdfrwt>
<pdfrwt beam="2">  1       21 0.13144470E+00 0.51873880E+03</pdfrwt>
<totfact> 0.33276025E+02</totfact>
</mgrwt>
</event>
<event>
 4    1  0.4716816E-002  0.4360403E+03  0.7818608E-02  0.1031969E+00
         21   -1    0    0  503  502  0.00000000000E+00  0.00000000000E+00  0.12196458514E+03  0.12196458514E+03  0.00000000000E+00 0. -1.
         21   -1    0    0  501  503 -0.00000000000E+00 -0.00000000000E+00 -0.17279381677E+04  0.17279381677E+04  0.00000000000E+00 0.  1.
    9000007    1    1    2  501    0 -0.35768625391E+02  0.16985796074E+03 -0.10922822485E+04  0.11761001793E+04  0.40000000000E+03 0.  1.
   -9000007    1    1    2    0  502  0.35768625391E+02 -0.16985796074E+03 -0.51369133399E+03  0.67380257346E+03  0.40000000000E+03 0. -1.
<mgrwt>
<rscale>  2 0.43604027E+03</rscale>
<asrwt>0</asrwt>
<pdfrwt beam="1">  1       21 0.18763785E-01 0.43604027E+03</pdfrwt>
<pdfrwt beam="2">  1       21 0.26583661E+00 0.43604027E+03</pdfrwt>
<totfact> 0.11524276E+03</totfact>
</mgrwt>
</event>
<event>
 4    1  0.4716816E-002  0.5547964E+03  0.7818608E-02  0.1000390E+00
         21   -1    0    0  501  502  0.00000000000E+00  0.00000000000E+00  0.35960720544E+03  0.35960720544E+03  0.00000000000E+00 0. -1.
         21   -1    0    0  502  503 -0.00000000000E+00 -0.00000000000E+00 -0.10412565537E+04  0.10412565537E+04  0.00000000000E+00 0. -1.
    9000007    1    1    2  501    0 -0.23591242633E+03  0.30355295170E+03 -0.45326829597E+02  0.55664493968E+03  0.40000000000E+03 0. -1.
   -9000007    1    1    2    0  503  0.23591242633E+03 -0.30355295170E+03 -0.63632251868E+03  0.84421881948E+03  0.40000000000E+03 0. -1.
<mgrwt>
<rscale>  2 0.55479642E+03</rscale>
<asrwt>0</asrwt>
<pdfrwt beam="1">  1       21 0.55324185E-01 0.55479642E+03</pdfrwt>
<pdfrwt beam="2">  1       21 0.16019332E+00 0.55479642E+03</pdfrwt>
<totfact> 0.61884892E+02</totfact>
</mgrwt>
</event>
<event>
 4    1  0.4716816E-002  0.9328939E+03  0.7818608E-02  0.9385372E-01
         21   -1    0    0  503  502  0.00000000000E+00  0.00000000000E+00  0.15818746441E+04  0.15818746441E+04  0.00000000000E+00 0. -1.
         21   -1    0    0  501  503 -0.00000000000E+00 -0.00000000000E+00 -0.59590519705E+03  0.59590519705E+03  0.00000000000E+00 0.  1.
    9000007    1    1    2  501    0  0.82937850491E+03 -0.14974067361E+03  0.19130391906E+03  0.95230675897E+03  0.40000000000E+03 0. -1.
   -9000007    1    1    2    0  502 -0.82937850491E+03  0.14974067361E+03  0.79466552794E+03  0.12254730821E+04  0.40000000000E+03 0.  1.
<mgrwt>
<rscale>  2 0.93289387E+03</rscale>
<asrwt>0</asrwt>
<pdfrwt beam="1">  1       21 0.24336533E+00 0.93289387E+03</pdfrwt>
<pdfrwt beam="2">  1       21 0.91677723E-01 0.93289387E+03</pdfrwt>
<totfact> 0.46553669E+01</totfact>
</mgrwt>
</event>
<event>
 4    1  0.4716816E-002  0.4450684E+03  0.7818608E-02  0.1029203E+00
         21   -1    0    0  501  502  0.00000000000E+00  0.00000000000E+00  0.11501400251E+04  0.11501400251E+04  0.00000000000E+00 0. -1.
         21   -1    0    0  502  503 -0.00000000000E+00 -0.00000000000E+00 -0.37221213704E+03  0.37221213704E+03  0.00000000000E+00 0. -1.
    9000007    1    1    2  501    0 -0.13766364512E+03  0.13832776235E+03  0.94690469508E+03  0.10462859794E+04  0.40000000000E+03 0. -1.
   -9000007    1    1    2    0  503  0.13766364512E+03 -0.13832776235E+03 -0.16897680706E+03  0.47606618274E+03  0.40000000000E+03 0. -1.
<mgrwt>
<rscale>  2 0.44506836E+03</rscale>
<asrwt>0</asrwt>
<pdfrwt beam="1">  1       21 0.17694462E+00 0.44506836E+03</pdfrwt>
<pdfrwt beam="2">  1       21 0.57263406E-01 0.44506836E+03</pdfrwt>
<totfact> 0.45297417E+02</totfact>
</mgrwt>
</event>
<event>
 4    1  0.4716816E-002  0.4584431E+03  0.7818608E-02  0.1025234E+00
         21   -1    0    0  501  502  0.00000000000E+00  0.00000000000E+00  0.82731835778E+03  0.82731835778E+03  0.00000000000E+00 0.  1.
         21   -1    0    0  502  503 -0.00000000000E+00 -0.00000000000E+00 -0.45896251774E+03  0.45896251774E+03  0.00000000000E+00 0.  1.
    9000007    1    1    2  501    0 -0.19795561104E+03  0.10480270800E+03  0.61392656223E+03  0.76620875443E+03  0.40000000000E+03 0.  1.
   -9000007    1    1    2    0  503  0.19795561104E+03 -0.10480270800E+03 -0.24557072218E+03  0.52007212110E+03  0.40000000000E+03 0.  1.
<mgrwt>
<rscale>  2 0.45844305E+03</rscale>
<asrwt>0</asrwt>
<pdfrwt beam="1">  1       21 0.12727975E+00 0.45844305E+03</pdfrwt>
<pdfrwt beam="2">  1       21 0.70609618E-01 0.45844305E+03</pdfrwt>
<totfact> 0.69490711E+02</totfact>
</mgrwt>
</event>
<event>
 4    1  0.4716816E-002  0.5564577E+03  0.7818608E-02  0.1000010E+00
         21   -1    0    0  501  502  0.00000000000E+00  0.00000000000E+00  0.39125432548E+03  0.39125432548E+03  0.00000000000E+00 0.  1.
         21   -1    0    0  502  503 -0.00000000000E+00 -0.00000000000E+00 -0.13369660423E+04  0.13369660423E+04  0.00000000000E+00 0.  1.
    9000007    1    1    2  501    0  0.52125397131E+02  0.38331204686E+03  0.79127492601E+02  0.56205546201E+03  0.40000000000E+03 0.  1.
   -9000007    1    1    2    0  503 -0.52125397131E+02 -0.38331204686E+03 -0.10248392095E+04  0.11661649058E+04  0.40000000000E+03 0.  1.
<mgrwt>
<rscale>  2 0.55645771E+03</rscale>
<asrwt>0</asrwt>
<pdfrwt beam="1">  1       21 0.60192971E-01 0.55645771E+03</pdfrwt>
<pdfrwt beam="2">  1       21 0.20568709E+00 0.55645771E+03</pdfrwt>
<totfact> 0.24527587E+02</totfact>
</mgrwt>
</event>
<event>
 4    1  0.4716816E-002  0.4486823E+03  0.7818608E-02  0.1028116E+00
         21   -1    0    0  501  502  0.00000000000E+00  0.00000000000E+00  0.15259950867E+03  0.15259950867E+03  0.00000000000E+00 0. -1.
         21   -1    0    0  502  503 -0.00000000000E+00 -0.00000000000E+00 -0.13786046009E+04  0.13786046009E+04  0.00000000000E+00 0.  1.
    9000007    1    1    2  501    0 -0.87066288570E+02  0.18367152574E+03 -0.45413411582E+03  0.63839921924E+03  0.40000000000E+03 0. -1.
   -9000007    1    1    2    0  503  0.87066288570E+02 -0.18367152574E+03 -0.77187097643E+03  0.89280489035E+03  0.40000000000E+03 0.  1.
<mgrwt>
<rscale>  2 0.44868226E+03</rscale>
<asrwt>0</asrwt>
<pdfrwt beam="1">  1       21 0.23476847E-01 0.44868226E+03</pdfrwt>
<pdfrwt beam="2">  1       21 0.21209302E+00 0.44868226E+03</pdfrwt>
<totfact> 0.16138382E+03</totfact>
</mgrwt>
</event>
<event>
 4    1  0.4716816E-002  0.4688134E+03  0.7818608E-02  0.1022256E+00
         21   -1    0    0  501  502  0.00000000000E+00  0.00000000000E+00  0.27493511402E+03  0.27493511402E+03  0.00000000000E+00 0. -1.
         21   -1    0    0  502  503 -0.00000000000E+00 -0.00000000000E+00 -0.10984628474E+04  0.10984628474E+04  0.00000000000E+00 0. -1.
    9000007    1    1    2  501    0 -0.10884815113E+03 -0.21894760161E+03 -0.53463343431E+02  0.47185199093E+03  0.40000000000E+03 0. -1.
   -9000007    1    1    2    0  503  0.10884815113E+03  0.21894760161E+03 -0.77006438996E+03  0.90154597051E+03  0.40000000000E+03 0. -1.
<mgrwt>
<rscale>  2 0.46881337E+03</rscale>
<asrwt>0</asrwt>
<pdfrwt beam="1">  1       21 0.42297709E-01 0.46881337E+03</pdfrwt>
<pdfrwt beam="2">  1       21 0.16899429E+00 0.46881337E+03</pdfrwt>
<totfact> 0.97297908E+02</totfact>
</mgrwt>
</event>
<event>
 4    1  0.4716816E-002  0.5822270E+03  0.7818608E-02  0.9942981E-01
         21   -1    0    0  501  502  0.00000000000E+00  0.00000000000E+00  0.30915992261E+03  0.30915992261E+03  0.00000000000E+00 0. -1.
         21   -1    0    0  502  503 -0.00000000000E+00 -0.00000000000E+00 -0.13831019418E+04  0.13831019418E+04  0.00000000000E+00 0.  1.
    9000007    1    1    2  501    0  0.39205134792E+03 -0.15900954937E+03 -0.15179106745E+03  0.60168831164E+03  0.40000000000E+03 0. -1.
   -9000007    1    1    2    0  503 -0.39205134792E+03  0.15900954937E+03 -0.92215095169E+03  0.10905735527E+04  0.40000000000E+03 0.  1.
<mgrwt>
<rscale>  2 0.58222701E+03</rscale>
<asrwt>0</asrwt>
<pdfrwt beam="1">  1       21 0.47563064E-01 0.58222701E+03</pdfrwt>
<pdfrwt beam="2">  1       21 0.21278492E+00 0.58222701E+03</pdfrwt>
<totfact> 0.36252728E+02</totfact>
</mgrwt>
</event>
<event>
 4    1  0.4716816E-002  0.5065096E+03  0.7818608E-02  0.1012094E+00
         21   -1    0    0  501  502  0.00000000000E+00  0.00000000000E+00  0.23329443572E+03  0.23329443572E+03  0.00000000000E+00 0. -1.
         21   -1    0    0  502  503 -0.00000000000E+00 -0.00000000000E+00 -0.11236051903E+04  0.11236051903E+04  0.00000000000E+00 0. -1.
    9000007    1    1    2  501    0  0.23300888992E+03 -0.20556960506E+03 -0.54413148482E+03  0.74339160479E+03  0.40000000000E+03 0. -1.
   -9000007    1    1    2    0  503 -0.23300888992E+03  0.20556960506E+03 -0.34617926980E+03  0.61350802126E+03  0.40000000000E+03 0. -1.
<mgrwt>
<rscale>  2 0.50650963E+03</rscale>
<asrwt>0</asrwt>
<pdfrwt beam="1">  1       21 0.35891452E-01 0.50650963E+03</pdfrwt>
<pdfrwt beam="2">  1       21 0.17286233E+00 0.50650963E+03</pdfrwt>
<totfact> 0.12591474E+03</totfact>
</mgrwt>
</event>
<event>
 4    1  0.4716816E-002  0.4886196E+03  0.7818608E-02  0.1016793E+00
         21   -1    0    0  503  502  0.00000000000E+00  0.00000000000E+00  0.19097028587E+03  0.19097028587E+03  0.00000000000E+00 0.  1.
         21   -1    0    0  501  503 -0.00000000000E+00 -0.00000000000E+00 -0.14934730496E+04  0.14934730496E+04  0.00000000000E+00 0. -1.
    9000007    1    1    2  501    0  0.17161042211E+03 -0.22203376640E+03 -0.31132592209E+03  0.57937290251E+03  0.40000000000E+03 0.  1.
   -9000007    1    1    2    0  502 -0.17161042211E+03  0.22203376640E+03 -0.99117684169E+03  0.11050704330E+04  0.40000000000E+03 0. -1.
<mgrwt>
<rscale>  2 0.48861962E+03</rscale>
<asrwt>0</asrwt>
<pdfrwt beam="1">  1       21 0.29380044E-01 0.48861962E+03</pdfrwt>
<pdfrwt beam="2">  1       21 0.22976509E+00 0.48861962E+03</pdfrwt>
<totfact> 0.78727707E+02</totfact>
</mgrwt>
</event>
<event>
 4    1  0.4716816E-002  0.4663702E+03  0.7818608E-02  0.1022950E+00
         21   -1    0    0  503  502  0.00000000000E+00  0.00000000000E+00  0.41355100258E+03  0.41355100258E+03  0.00000000000E+00 0.  1.
         21   -1    0    0  501  503 -0.00000000000E+00 -0.00000000000E+00 -0.11033183775E+04  0.11033183775E+04  0.00000000000E+00 0.  1.
    9000007    1    1    2  501    0  0.23956650907E+03  0.10441055932E+02 -0.89353918642E+03  0.10079252976E+04  0.40000000000E+03 0.  1.
   -9000007    1    1    2    0  502 -0.23956650907E+03 -0.10441055932E+02  0.20377181149E+03  0.50894408247E+03  0.40000000000E+03 0.  1.
<mgrwt>
<rscale>  2 0.46637016E+03</rscale>
<asrwt>0</asrwt>
<pdfrwt beam="1">  1       21 0.63623232E-01 0.46637016E+03</pdfrwt>
<pdfrwt beam="2">  1       21 0.16974129E+00 0.46637016E+03</pdfrwt>
<totfact> 0.40099340E+02</totfact>
</mgrwt>
</event>
<event>
 4    1  0.4716816E-002  0.4117625E+03  0.7818608E-02  0.1039781E+00
         21   -1    0    0  503  502  0.00000000000E+00  0.00000000000E+00  0.13192444212E+03  0.13192444212E+03  0.00000000000E+00 0.  1.
         21   -1    0    0  501  503 -0.00000000000E+00 -0.00000000000E+00 -0.13347696301E+04  0.13347696301E+04  0.00000000000E+00 0.  1.
    9000007    1    1    2  501    0  0.67457175022E+02 -0.70695948200E+02 -0.46008936341E+03  0.61743874990E+03  0.40000000000E+03 0.  1.
   -9000007    1    1    2    0  502 -0.67457175022E+02  0.70695948200E+02 -0.74275582462E+03  0.84925532236E+03  0.40000000000E+03 0.  1.
<mgrwt>
<rscale>  2 0.41176254E+03</rscale>
<asrwt>0</asrwt>
<pdfrwt beam="1">  1       21 0.20296069E-01 0.41176254E+03</pdfrwt>
<pdfrwt beam="2">  1       21 0.20534917E+00 0.41176254E+03</pdfrwt>
<totfact> 0.24008269E+03</totfact>
</mgrwt>
</event>
<event>
 4    1  0.4716816E-002  0.4133887E+03  0.7818608E-02  0.1039240E+00
         21   -1    0    0  503  502  0.00000000000E+00  0.00000000000E+00  0.16443059721E+03  0.16443059721E+03  0.00000000000E+00 0. -1.
         21   -1    0    0  501  503 -0.00000000000E+00 -0.00000000000E+00 -0.11783008363E+04  0.11783008363E+04  0.00000000000E+00 0. -1.
    9000007    1    1    2  501    0 -0.10090738337E+03 -0.26606533028E+02 -0.27633281727E+03  0.49724242932E+03  0.40000000000E+03 0. -1.
   -9000007    1    1    2    0  502  0.10090738337E+03  0.26606533028E+02 -0.73753742177E+03  0.84548900415E+03  0.40000000000E+03 0. -1.
<mgrwt>
<rscale>  2 0.41338869E+03</rscale>
<asrwt>0</asrwt>
<pdfrwt beam="1">  1       21 0.25297016E-01 0.41338869E+03</pdfrwt>
<pdfrwt beam="2">  1       21 0.18127704E+00 0.41338869E+03</pdfrwt>
<totfact> 0.22851993E+03</totfact>
</mgrwt>
</event>
<event>
 4    1  0.4716816E-002  0.4154962E+03  0.7818608E-02  0.1038542E+00
         21   -1    0    0  503  502  0.00000000000E+00  0.00000000000E+00  0.10482454012E+04  0.10482454012E+04  0.00000000000E+00 0.  1.
         21   -1    0    0  501  503 -0.00000000000E+00 -0.00000000000E+00 -0.11568399864E+04  0.11568399864E+04  0.00000000000E+00 0.  1.
    9000007    1    1    2  501    0 -0.63984332213E+02  0.92428819323E+02 -0.10753475340E+04  0.11528267000E+04  0.40000000000E+03 0.  1.
   -9000007    1    1    2    0  502  0.63984332213E+02 -0.92428819323E+02  0.96675294889E+03  0.10522586876E+04  0.40000000000E+03 0.  1.
<mgrwt>
<rscale>  2 0.41549619E+03</rscale>
<asrwt>0</asrwt>
<pdfrwt beam="1">  1       21 0.16126852E+00 0.41549619E+03</pdfrwt>
<pdfrwt beam="2">  1       21 0.17797538E+00 0.41549619E+03</pdfrwt>
<totfact> 0.36775538E+01</totfact>
</mgrwt>
</event>
<event>
 4    1  0.4716816E-002  0.4773105E+03  0.7818608E-02  0.1019877E+00
         21   -1    0    0  503  502  0.00000000000E+00  0.00000000000E+00  0.86851709229E+03  0.86851709229E+03  0.00000000000E+00 0. -1.
         21   -1    0    0  501  503 -0.00000000000E+00 -0.00000000000E+00 -0.61222005017E+03  0.61222005017E+03  0.00000000000E+00 0.  1.
    9000007    1    1    2  501    0  0.24832920550E+03  0.78472110540E+02 -0.43156933106E+03  0.64348842565E+03  0.40000000000E+03 0.  1.
   -9000007    1    1    2    0  502 -0.24832920550E+03 -0.78472110540E+02  0.68786637318E+03  0.83724871680E+03  0.40000000000E+03 0. -1.
<mgrwt>
<rscale>  2 0.47731045E+03</rscale>
<asrwt>0</asrwt>
<pdfrwt beam="1">  1       21 0.13361801E+00 0.47731045E+03</pdfrwt>
<pdfrwt beam="2">  1       21 0.94187700E-01 0.47731045E+03</pdfrwt>
<totfact> 0.31096623E+02</totfact>
</mgrwt>
</event>
<event>
 4    1  0.4716816E-002  0.4828783E+03  0.7818608E-02  0.1018347E+00
         21   -1    0    0  503  502  0.00000000000E+00  0.00000000000E+00  0.10311980477E+04  0.10311980477E+04  0.00000000000E+00 0. -1.
         21   -1    0    0  501  503 -0.00000000000E+00 -0.00000000000E+00 -0.24636867229E+03  0.24636867229E+03  0.00000000000E+00 0. -1.
    9000007    1    1    2  501    0  0.26192877337E+03 -0.67563190488E+02  0.20927153142E+03  0.52627563205E+03  0.40000000000E+03 0.  1.
   -9000007    1    1    2    0  502 -0.26192877337E+03  0.67563190488E+02  0.57555784396E+03  0.75129108791E+03  0.40000000000E+03 0.  1.
<mgrwt>
<rscale>  2 0.48287831E+03</rscale>
<asrwt>0</asrwt>
<pdfrwt beam="1">  1       21 0.15864585E+00 0.48287831E+03</pdfrwt>
<pdfrwt beam="2">  1       21 0.37902873E-01 0.48287831E+03</pdfrwt>
<totfact> 0.14492773E+03</totfact>
</mgrwt>
</event>
<event>
 4    1  0.4716816E-002  0.5883345E+03  0.7818608E-02  0.9929908E-01
         21   -1    0    0  503  502  0.00000000000E+00  0.00000000000E+00  0.56283995982E+03  0.56283995982E+03  0.00000000000E+00 0. -1.
         21   -1    0    0  501  503 -0.00000000000E+00 -0.00000000000E+00 -0.78643760319E+03  0.78643760319E+03  0.00000000000E+00 0. -1.
    9000007    1    1    2  501    0 -0.23861690327E+02  0.43077609964E+03 -0.42680044672E+03  0.72683976886E+03  0.40000000000E+03 0. -1.
   -9000007    1    1    2    0  502  0.23861690327E+02 -0.43077609964E+03  0.20320280335E+03  0.62243779414E+03  0.40000000000E+03 0. -1.
<mgrwt>
<rscale>  2 0.58833445E+03</rscale>
<asrwt>0</asrwt>
<pdfrwt beam="1">  1       21 0.86590763E-01 0.58833445E+03</pdfrwt>
<pdfrwt beam="2">  1       21 0.12099040E+00 0.58833445E+03</pdfrwt>
<totfact> 0.47047588E+02</totfact>
</mgrwt>
</event>
<event>
 4    1  0.4716816E-002  0.5881122E+03  0.7818608E-02  0.9930381E-01
         21   -1    0    0  501  502  0.00000000000E+00  0.00000000000E+00  0.45708772688E+03  0.45708772688E+03  0.00000000000E+00 0. -1.
         21   -1    0    0  502  503 -0.00000000000E+00 -0.00000000000E+00 -0.14102826262E+04  0.14102826262E+04  0.00000000000E+00 0.  1.
    9000007    1    1    2  501    0 -0.77716323640E+02 -0.42407084703E+03  0.15902519384E+03  0.60923306093E+03  0.40000000000E+03 0. -1.
   -9000007    1    1    2    0  503  0.77716323640E+02  0.42407084703E+03 -0.11122200931E+04  0.12581372921E+04  0.40000000000E+03 0.  1.
<mgrwt>
<rscale>  2 0.58811216E+03</rscale>
<asrwt>0</asrwt>
<pdfrwt beam="1">  1       21 0.70321189E-01 0.58811216E+03</pdfrwt>
<pdfrwt beam="2">  1       21 0.21696656E+00 0.58811216E+03</pdfrwt>
<totfact> 0.14412878E+02</totfact>
</mgrwt>
</event>
<event>
 4    1  0.4716816E-002  0.7334617E+03  0.7818608E-02  0.9661660E-01
         21   -1    0    0  501  502  0.00000000000E+00  0.00000000000E+00  0.30863920034E+03  0.30863920034E+03  0.00000000000E+00 0.  1.
         21   -1    0    0  502  503 -0.00000000000E+00 -0.00000000000E+00 -0.22968465986E+04  0.22968465986E+04  0.00000000000E+00 0. -1.
    9000007    1    1    2  501    0  0.60734012665E+02  0.61178221580E+03 -0.16338051512E+04  0.17908895477E+04  0.40000000000E+03 0. -1.
   -9000007    1    1    2    0  503 -0.60734012665E+02 -0.61178221580E+03 -0.35440224705E+03  0.81459625127E+03  0.40000000000E+03 0.  1.
<mgrwt>
<rscale>  2 0.73346172E+03</rscale>
<asrwt>0</asrwt>
<pdfrwt beam="1">  1       21 0.47482954E-01 0.73346172E+03</pdfrwt>
<pdfrwt beam="2">  1       21 0.35336101E+00 0.73346172E+03</pdfrwt>
<totfact> 0.45721995E+01</totfact>
</mgrwt>
</event>
<event>
 4    1  0.4716816E-002  0.4808040E+03  0.7818608E-02  0.1018914E+00
         21   -1    0    0  503  502  0.00000000000E+00  0.00000000000E+00  0.36605400090E+03  0.36605400090E+03  0.00000000000E+00 0. -1.
         21   -1    0    0  501  503 -0.00000000000E+00 -0.00000000000E+00 -0.67701190206E+03  0.67701190206E+03  0.00000000000E+00 0. -1.
    9000007    1    1    2  501    0 -0.14330847426E+03 -0.22502251223E+03 -0.29066261463E+03  0.56183378801E+03  0.40000000000E+03 0. -1.
   -9000007    1    1    2    0  502  0.14330847426E+03  0.22502251223E+03 -0.20295286534E+02  0.48123211495E+03  0.40000000000E+03 0. -1.
<mgrwt>
<rscale>  2 0.48080396E+03</rscale>
<asrwt>0</asrwt>
<pdfrwt beam="1">  1       21 0.56316001E-01 0.48080396E+03</pdfrwt>
<pdfrwt beam="2">  1       21 0.10415568E+00 0.48080396E+03</pdfrwt>
<totfact> 0.18818015E+03</totfact>
</mgrwt>
</event>
<event>
 4    1  0.4716816E-002  0.5006143E+03  0.7818608E-02  0.1013619E+00
         21   -1    0    0  501  502  0.00000000000E+00  0.00000000000E+00  0.11675482816E+04  0.11675482816E+04  0.00000000000E+00 0. -1.
         21   -1    0    0  502  503 -0.00000000000E+00 -0.00000000000E+00 -0.21500010324E+03  0.21500010324E+03  0.00000000000E+00 0.  1.
    9000007    1    1    2  501    0  0.29481195200E+03 -0.60832839223E+02  0.50415278738E+03  0.71048205776E+03  0.40000000000E+03 0. -1.
   -9000007    1    1    2    0  503 -0.29481195200E+03  0.60832839223E+02  0.44839539102E+03  0.67206632712E+03  0.40000000000E+03 0.  1.
<mgrwt>
<rscale>  2 0.50061434E+03</rscale>
<asrwt>0</asrwt>
<pdfrwt beam="1">  1       21 0.17962281E+00 0.50061434E+03</pdfrwt>
<pdfrwt beam="2">  1       21 0.33076940E-01 0.50061434E+03</pdfrwt>
<totfact> 0.13316236E+03</totfact>
</mgrwt>
</event>
<event>
 4    1  0.4716816E-002  0.4141199E+03  0.7818608E-02  0.1038997E+00
         21   -1    0    0  501  502  0.00000000000E+00  0.00000000000E+00  0.72315639202E+03  0.72315639202E+03  0.00000000000E+00 0. -1.
         21   -1    0    0  502  503 -0.00000000000E+00 -0.00000000000E+00 -0.32489442795E+03  0.32489442795E+03  0.00000000000E+00 0. -1.
    9000007    1    1    2  501    0 -0.59497854853E+02  0.89192248373E+02  0.47146092232E+03  0.62751147653E+03  0.40000000000E+03 0. -1.
   -9000007    1    1    2    0  503  0.59497854853E+02 -0.89192248373E+02 -0.73198958245E+02  0.42053934345E+03  0.40000000000E+03 0. -1.
<mgrwt>
<rscale>  2 0.41411985E+03</rscale>
<asrwt>0</asrwt>
<pdfrwt beam="1">  1       21 0.11125483E+00 0.41411985E+03</pdfrwt>
<pdfrwt beam="2">  1       21 0.49983758E-01 0.41411985E+03</pdfrwt>
<totfact> 0.21186766E+03</totfact>
</mgrwt>
</event>
<event>
 4    1  0.4716816E-002  0.4356333E+03  0.7818608E-02  0.1032095E+00
         21   -1    0    0  503  502  0.00000000000E+00  0.00000000000E+00  0.73306363127E+03  0.73306363127E+03  0.00000000000E+00 0.  1.
         21   -1    0    0  501  503 -0.00000000000E+00 -0.00000000000E+00 -0.58190138355E+03  0.58190138355E+03  0.00000000000E+00 0.  1.
    9000007    1    1    2  501    0 -0.11002494508E+03 -0.13293186353E+03 -0.41428156197E+03  0.60117017680E+03  0.40000000000E+03 0.  1.
   -9000007    1    1    2    0  502  0.11002494508E+03  0.13293186353E+03  0.56544380968E+03  0.71379483802E+03  0.40000000000E+03 0.  1.
<mgrwt>
<rscale>  2 0.43563330E+03</rscale>
<asrwt>0</asrwt>
<pdfrwt beam="1">  1       21 0.11277902E+00 0.43563330E+03</pdfrwt>
<pdfrwt beam="2">  1       21 0.89523290E-01 0.43563330E+03</pdfrwt>
<totfact> 0.55172610E+02</totfact>
</mgrwt>
</event>
<event>
 4    1  0.4716816E-002  0.4772321E+03  0.7818608E-02  0.1019899E+00
         21   -1    0    0  503  502  0.00000000000E+00  0.00000000000E+00  0.17196992114E+04  0.17196992114E+04  0.00000000000E+00 0. -1.
         21   -1    0    0  501  503 -0.00000000000E+00 -0.00000000000E+00 -0.10445910193E+04  0.10445910193E+04  0.00000000000E+00 0.  1.
    9000007    1    1    2  501    0  0.16179893619E+03 -0.20389120897E+03 -0.95400643568E+03  0.10667140199E+04  0.40000000000E+03 0.  1.
   -9000007    1    1    2    0  502 -0.16179893619E+03  0.20389120897E+03  0.16291146278E+04  0.16975762108E+04  0.40000000000E+03 0. -1.
<mgrwt>
<rscale>  2 0.47723215E+03</rscale>
<asrwt>0</asrwt>
<pdfrwt beam="1">  1       21 0.26456911E+00 0.47723215E+03</pdfrwt>
<pdfrwt beam="2">  1       21 0.16070631E+00 0.47723215E+03</pdfrwt>
<totfact> 0.98356447E+00</totfact>
</mgrwt>
</event>
<event>
 4    1  0.4716816E-002  0.4828596E+03  0.7818608E-02  0.1018352E+00
         21   -1    0    0  503  502  0.00000000000E+00  0.00000000000E+00  0.11935606810E+04  0.11935606810E+04  0.00000000000E+00 0.  1.
         21   -1    0    0  501  503 -0.00000000000E+00 -0.00000000000E+00 -0.21013666850E+03  0.21013666850E+03  0.00000000000E+00 0.  1.
    9000007    1    1    2  501    0  0.15280153318E+03  0.22317045523E+03  0.67793571621E+03  0.83231616345E+03  0.40000000000E+03 0.  1.
   -9000007    1    1    2    0  502 -0.15280153318E+03 -0.22317045523E+03  0.30548829632E+03  0.57138118609E+03  0.40000000000E+03 0.  1.
<mgrwt>
<rscale>  2 0.48285957E+03</rscale>
<asrwt>0</asrwt>
<pdfrwt beam="1">  1       21 0.18362472E+00 0.48285957E+03</pdfrwt>
<pdfrwt beam="2">  1       21 0.32328719E-01 0.48285957E+03</pdfrwt>
<totfact> 0.13159782E+03</totfact>
</mgrwt>
</event>
<event>
 4    1  0.4716816E-002  0.6952183E+03  0.7818608E-02  0.9725445E-01
         21   -1    0    0  503  502  0.00000000000E+00  0.00000000000E+00  0.81564820541E+03  0.81564820541E+03  0.00000000000E+00 0. -1.
         21   -1    0    0  501  503 -0.00000000000E+00 -0.00000000000E+00 -0.11062503683E+04  0.11062503683E+04  0.00000000000E+00 0. -1.
    9000007    1    1    2  501    0  0.33927183214E+03 -0.45631466781E+03 -0.80011868333E+03  0.10599614897E+04  0.40000000000E+03 0. -1.
   -9000007    1    1    2    0  502 -0.33927183214E+03  0.45631466781E+03  0.50951652048E+03  0.86193708401E+03  0.40000000000E+03 0. -1.
<mgrwt>
<rscale>  2 0.69521828E+03</rscale>
<asrwt>0</asrwt>
<pdfrwt beam="1">  1       21 0.12548434E+00 0.69521828E+03</pdfrwt>
<pdfrwt beam="2">  1       21 0.17019236E+00 0.69521828E+03</pdfrwt>
<totfact> 0.71564225E+01</totfact>
</mgrwt>
</event>
<event>
 4    1  0.4716816E-002  0.4217916E+03  0.7818608E-02  0.1036485E+00
         21   -1    0    0  503  502  0.00000000000E+00  0.00000000000E+00  0.55993997142E+03  0.55993997142E+03  0.00000000000E+00 0. -1.
         21   -1    0    0  501  503 -0.00000000000E+00 -0.00000000000E+00 -0.31905266902E+03  0.31905266902E+03  0.00000000000E+00 0.  1.
    9000007    1    1    2  501    0 -0.85606047958E+02 -0.10285783958E+03  0.14877173726E+03  0.44725961188E+03  0.40000000000E+03 0. -1.
   -9000007    1    1    2    0  502  0.85606047958E+02  0.10285783958E+03  0.92115565134E+02  0.43173302856E+03  0.40000000000E+03 0.  1.
<mgrwt>
<rscale>  2 0.42179157E+03</rscale>
<asrwt>0</asrwt>
<pdfrwt beam="1">  1       21 0.86144611E-01 0.42179157E+03</pdfrwt>
<pdfrwt beam="2">  1       21 0.49085026E-01 0.42179157E+03</pdfrwt>
<totfact> 0.40692700E+03</totfact>
</mgrwt>
</event>
<event>
 4    1  0.4716816E-002  0.5495307E+03  0.7818608E-02  0.1001603E+00
         21   -1    0    0  501  502  0.00000000000E+00  0.00000000000E+00  0.17654786381E+04  0.17654786381E+04  0.00000000000E+00 0.  1.
         21   -1    0    0  502  503 -0.00000000000E+00 -0.00000000000E+00 -0.18104303917E+03  0.18104303917E+03  0.00000000000E+00 0.  1.
    9000007    1    1    2  501    0  0.37444479594E+03 -0.42132097865E+02  0.10208833247E+04  0.11593906941E+04  0.40000000000E+03 0.  1.
   -9000007    1    1    2    0  503 -0.37444479594E+03  0.42132097865E+02  0.56355227416E+03  0.78713098312E+03  0.40000000000E+03 0.  1.
<mgrwt>
<rscale>  2 0.54953073E+03</rscale>
<asrwt>0</asrwt>
<pdfrwt beam="1">  1       21 0.27161209E+00 0.54953073E+03</pdfrwt>
<pdfrwt beam="2">  1       21 0.27852777E-01 0.54953073E+03</pdfrwt>
<totfact> 0.46920724E+02</totfact>
</mgrwt>
</event>
<event>
 4    1  0.4716816E-002  0.4210108E+03  0.7818608E-02  0.1036738E+00
         21   -1    0    0  503  502  0.00000000000E+00  0.00000000000E+00  0.30190761686E+03  0.30190761686E+03  0.00000000000E+00 0.  1.
         21   -1    0    0  501  503 -0.00000000000E+00 -0.00000000000E+00 -0.94248069110E+03  0.94248069110E+03  0.00000000000E+00 0.  1.
    9000007    1    1    2  501    0 -0.38053085036E+02 -0.12570616305E+03 -0.70235076469E+03  0.81886914300E+03  0.40000000000E+03 0.  1.
   -9000007    1    1    2    0  502  0.38053085036E+02  0.12570616305E+03  0.61777690448E+02  0.42551916496E+03  0.40000000000E+03 0.  1.
<mgrwt>
<rscale>  2 0.42101078E+03</rscale>
<asrwt>0</asrwt>
<pdfrwt beam="1">  1       21 0.46447326E-01 0.42101078E+03</pdfrwt>
<pdfrwt beam="2">  1       21 0.14499703E+00 0.42101078E+03</pdfrwt>
<totfact> 0.12467494E+03</totfact>
</mgrwt>
</event>
<event>
 4    1  0.4716816E-002  0.4854748E+03  0.7818608E-02  0.1017641E+00
         21   -1    0    0  501  502  0.00000000000E+00  0.00000000000E+00  0.12027661766E+03  0.12027661766E+03  0.00000000000E+00 0.  1.
         21   -1    0    0  502  503 -0.00000000000E+00 -0.00000000000E+00 -0.19631045018E+04  0.19631045018E+04  0.00000000000E+00 0.  1.
    9000007    1    1    2  501    0 -0.45360900505E+02  0.27134510250E+03 -0.96585725310E+03  0.10810023170E+04  0.40000000000E+03 0.  1.
   -9000007    1    1    2    0  503  0.45360900505E+02 -0.27134510250E+03 -0.87697063103E+03  0.10023788025E+04  0.40000000000E+03 0.  1.
<mgrwt>
<rscale>  2 0.48547479E+03</rscale>
<asrwt>0</asrwt>
<pdfrwt beam="1">  1       21 0.18504097E-01 0.48547479E+03</pdfrwt>
<pdfrwt beam="2">  1       21 0.30201604E+00 0.48547479E+03</pdfrwt>
<totfact> 0.69753372E+02</totfact>
</mgrwt>
</event>
<event>
 4    1  0.4716816E-002  0.6301322E+03  0.7818608E-02  0.9844791E-01
         21   -1    0    0  501  502  0.00000000000E+00  0.00000000000E+00  0.88271086555E+03  0.88271086555E+03  0.00000000000E+00 0. -1.
         21   -1    0    0  502  503 -0.00000000000E+00 -0.00000000000E+00 -0.46161316676E+03  0.46161316676E+03  0.00000000000E+00 0. -1.
    9000007    1    1    2  501    0  0.32087998253E+03  0.36620029600E+03  0.31795591779E+03  0.70580633721E+03  0.40000000000E+03 0. -1.
   -9000007    1    1    2    0  503 -0.32087998253E+03 -0.36620029600E+03  0.10314178100E+03  0.63851769511E+03  0.40000000000E+03 0. -1.
<mgrwt>
<rscale>  2 0.63013222E+03</rscale>
<asrwt>0</asrwt>
<pdfrwt beam="1">  1       21 0.13580167E+00 0.63013222E+03</pdfrwt>
<pdfrwt beam="2">  1       21 0.71017410E-01 0.63013222E+03</pdfrwt>
<totfact> 0.54370525E+02</totfact>
</mgrwt>
</event>
<event>
 4    1  0.4716816E-002  0.4450205E+03  0.7818608E-02  0.1029217E+00
         21   -1    0    0  503  502  0.00000000000E+00  0.00000000000E+00  0.40743759244E+03  0.40743759244E+03  0.00000000000E+00 0.  1.
         21   -1    0    0  501  503 -0.00000000000E+00 -0.00000000000E+00 -0.48805082465E+03  0.48805082465E+03  0.00000000000E+00 0.  1.
    9000007    1    1    2  501    0 -0.19257700559E+03  0.30941247391E+02 -0.11783252335E+02  0.44517649186E+03  0.40000000000E+03 0.  1.
   -9000007    1    1    2    0  502  0.19257700559E+03 -0.30941247391E+02 -0.68829979880E+02  0.45031192523E+03  0.40000000000E+03 0.  1.
<mgrwt>
<rscale>  2 0.44502052E+03</rscale>
<asrwt>0</asrwt>
<pdfrwt beam="1">  1       21 0.62682707E-01 0.44502052E+03</pdfrwt>
<pdfrwt beam="2">  1       21 0.75084742E-01 0.44502052E+03</pdfrwt>
<totfact> 0.32681383E+03</totfact>
</mgrwt>
</event>
<event>
 4    1  0.4716816E-002  0.4250818E+03  0.7818608E-02  0.1035425E+00
         21   -1    0    0  503  502  0.00000000000E+00  0.00000000000E+00  0.15859898627E+04  0.15859898627E+04  0.00000000000E+00 0.  1.
         21   -1    0    0  501  503 -0.00000000000E+00 -0.00000000000E+00 -0.13886017381E+03  0.13886017381E+03  0.00000000000E+00 0.  1.
    9000007    1    1    2  501    0  0.62780257292E+02 -0.12943394953E+03  0.35815485785E+03  0.55585016884E+03  0.40000000000E+03 0.  1.
   -9000007    1    1    2    0  502 -0.62780257292E+02  0.12943394953E+03  0.10889748311E+04  0.11689998677E+04  0.40000000000E+03 0.  1.
<mgrwt>
<rscale>  2 0.42508177E+03</rscale>
<asrwt>0</asrwt>
<pdfrwt beam="1">  1       21 0.24399843E+00 0.42508177E+03</pdfrwt>
<pdfrwt beam="2">  1       21 0.21363105E-01 0.42508177E+03</pdfrwt>
<totfact> 0.12308360E+03</totfact>
</mgrwt>
</event>
<event>
 4    1  0.4716816E-002  0.5213699E+03  0.7818608E-02  0.1008347E+00
         21   -1    0    0  503  502  0.00000000000E+00  0.00000000000E+00  0.15516436437E+04  0.15516436437E+04  0.00000000000E+00 0.  1.
         21   -1    0    0  501  503 -0.00000000000E+00 -0.00000000000E+00 -0.25710565096E+03  0.25710565096E+03  0.00000000000E+00 0.  1.
    9000007    1    1    2  501    0 -0.24688132104E+03  0.22555752421E+03  0.13678041323E+03  0.53901341806E+03  0.40000000000E+03 0.  1.
   -9000007    1    1    2    0  502  0.24688132104E+03 -0.22555752421E+03  0.11577575795E+04  0.12697358766E+04  0.40000000000E+03 0.  1.
<mgrwt>
<rscale>  2 0.52136991E+03</rscale>
<asrwt>0</asrwt>
<pdfrwt beam="1">  1       21 0.23871440E+00 0.52136991E+03</pdfrwt>
<pdfrwt beam="2">  1       21 0.39554717E-01 0.52136991E+03</pdfrwt>
<totfact> 0.37345096E+02</totfact>
</mgrwt>
</event>
<event>
 4    1  0.4716816E-002  0.4604289E+03  0.7818608E-02  0.1024657E+00
         21   -1    0    0  501  502  0.00000000000E+00  0.00000000000E+00  0.75446575411E+03  0.75446575411E+03  0.00000000000E+00 0. -1.
         21   -1    0    0  502  503 -0.00000000000E+00 -0.00000000000E+00 -0.33082255679E+03  0.33082255679E+03  0.00000000000E+00 0.  1.
    9000007    1    1    2  501    0  0.22128719647E+03 -0.55015860565E+02  0.12067596537E+01  0.46043047739E+03  0.40000000000E+03 0.  1.
   -9000007    1    1    2    0  503 -0.22128719647E+03  0.55015860565E+02  0.42243643766E+03  0.62485783351E+03  0.40000000000E+03 0. -1.
<mgrwt>
<rscale>  2 0.46042890E+03</rscale>
<asrwt>0</asrwt>
<pdfrwt beam="1">  1       21 0.11607165E+00 0.46042890E+03</pdfrwt>
<pdfrwt beam="2">  1       21 0.50895778E-01 0.46042890E+03</pdfrwt>
<totfact> 0.18011042E+03</totfact>
</mgrwt>
</event>
<event>
 4    1  0.4716816E-002  0.4633474E+03  0.7818608E-02  0.1023815E+00
         21   -1    0    0  503  502  0.00000000000E+00  0.00000000000E+00  0.10895909496E+04  0.10895909496E+04  0.00000000000E+00 0. -1.
         21   -1    0    0  501  503 -0.00000000000E+00 -0.00000000000E+00 -0.30389414473E+03  0.30389414473E+03  0.00000000000E+00 0.  1.
    9000007    1    1    2  501    0  0.23078617557E+03  0.37795623147E+02 -0.20304698006E+02  0.46379203176E+03  0.40000000000E+03 0.  1.
   -9000007    1    1    2    0  502 -0.23078617557E+03 -0.37795623147E+02  0.80600150291E+03  0.92969306260E+03  0.40000000000E+03 0. -1.
<mgrwt>
<rscale>  2 0.46334735E+03</rscale>
<asrwt>0</asrwt>
<pdfrwt beam="1">  1       21 0.16762937E+00 0.46334735E+03</pdfrwt>
<pdfrwt beam="2">  1       21 0.46752946E-01 0.46334735E+03</pdfrwt>
<totfact> 0.80928832E+02</totfact>
</mgrwt>
</event>
<event>
 4    1  0.4716816E-002  0.4616237E+03  0.7818608E-02  0.1024311E+00
         21   -1    0    0  503  502  0.00000000000E+00  0.00000000000E+00  0.32895521147E+03  0.32895521147E+03  0.00000000000E+00 0.  1.
         21   -1    0    0  501  503 -0.00000000000E+00 -0.00000000000E+00 -0.69228985681E+03  0.69228985681E+03  0.00000000000E+00 0.  1.
    9000007    1    1    2  501    0 -0.21237373514E+03  0.89408320978E+02 -0.31111593460E+03  0.55667726377E+03  0.40000000000E+03 0.  1.
   -9000007    1    1    2    0  502  0.21237373514E+03 -0.89408320978E+02 -0.52218710734E+02  0.46456780451E+03  0.40000000000E+03 0.  1.
<mgrwt>
<rscale>  2 0.46162371E+03</rscale>
<asrwt>0</asrwt>
<pdfrwt beam="1">  1       21 0.50608495E-01 0.46162371E+03</pdfrwt>
<pdfrwt beam="2">  1       21 0.10650613E+00 0.46162371E+03</pdfrwt>
<totfact> 0.22569044E+03</totfact>
</mgrwt>
</event>
<event>
 4    1  0.4716816E-002  0.5927905E+03  0.7818608E-02  0.9920477E-01
         21   -1    0    0  503  502  0.00000000000E+00  0.00000000000E+00  0.23974145166E+03  0.23974145166E+03  0.00000000000E+00 0.  1.
         21   -1    0    0  501  503 -0.00000000000E+00 -0.00000000000E+00 -0.15078846289E+04  0.15078846289E+04  0.00000000000E+00 0.  1.
    9000007    1    1    2  501    0  0.43738585090E+03 -0.97060233365E+01 -0.48800073043E+03  0.76781853478E+03  0.40000000000E+03 0.  1.
   -9000007    1    1    2    0  502 -0.43738585090E+03  0.97060233365E+01 -0.78014244684E+03  0.97980754580E+03  0.40000000000E+03 0.  1.
<mgrwt>
<rscale>  2 0.59279051E+03</rscale>
<asrwt>0</asrwt>
<pdfrwt beam="1">  1       21 0.36883300E-01 0.59279051E+03</pdfrwt>
<pdfrwt beam="2">  1       21 0.23198225E+00 0.59279051E+03</pdfrwt>
<totfact> 0.46142424E+02</totfact>
</mgrwt>
</event>
<event>
 4    1  0.4716816E-002  0.4026059E+03  0.7818608E-02  0.1042881E+00
         21   -1    0    0  501  502  0.00000000000E+00  0.00000000000E+00  0.87535327904E+03  0.87535327904E+03  0.00000000000E+00 0. -1.
         21   -1    0    0  502  503 -0.00000000000E+00 -0.00000000000E+00 -0.29587445713E+03  0.29587445713E+03  0.00000000000E+00 0. -1.
    9000007    1    1    2  501    0  0.45714736371E+02  0.12793130443E+01  0.64794717866E+03  0.76284141215E+03  0.40000000000E+03 0. -1.
   -9000007    1    1    2    0  503 -0.45714736371E+02 -0.12793130443E+01 -0.68468356748E+02  0.40838632401E+03  0.40000000000E+03 0. -1.
<mgrwt>
<rscale>  2 0.40260585E+03</rscale>
<asrwt>0</asrwt>
<pdfrwt beam="1">  1       21 0.13466973E+00 0.40260585E+03</pdfrwt>
<pdfrwt beam="2">  1       21 0.45519148E-01 0.40260585E+03</pdfrwt>
<totfact> 0.15950445E+03</totfact>
</mgrwt>
</event>
<event>
 4    1  0.4716816E-002  0.5245506E+03  0.7818608E-02  0.1007562E+00
         21   -1    0    0  503  502  0.00000000000E+00  0.00000000000E+00  0.36383535604E+03  0.36383535604E+03  0.00000000000E+00 0. -1.
         21   -1    0    0  501  503 -0.00000000000E+00 -0.00000000000E+00 -0.77477696533E+03  0.77477696533E+03  0.00000000000E+00 0. -1.
    9000007    1    1    2  501    0 -0.12088661965E+02  0.33912705055E+03 -0.29348836480E+03  0.60107296765E+03  0.40000000000E+03 0. -1.
   -9000007    1    1    2    0  502  0.12088661965E+02 -0.33912705055E+03 -0.11745324449E+03  0.53753935373E+03  0.40000000000E+03 0. -1.
<mgrwt>
<rscale>  2 0.52455056E+03</rscale>
<asrwt>0</asrwt>
<pdfrwt beam="1">  1       21 0.55974671E-01 0.52455056E+03</pdfrwt>
<pdfrwt beam="2">  1       21 0.11919645E+00 0.52455056E+03</pdfrwt>
<totfact> 0.13411885E+03</totfact>
</mgrwt>
</event>
<event>
 4    1  0.4716816E-002  0.4904650E+03  0.7818608E-02  0.1016298E+00
         21   -1    0    0  503  502  0.00000000000E+00  0.00000000000E+00  0.11412653831E+03  0.11412653831E+03  0.00000000000E+00 0.  1.
         21   -1    0    0  501  503 -0.00000000000E+00 -0.00000000000E+00 -0.24608000257E+04  0.24608000257E+04  0.00000000000E+00 0.  1.
    9000007    1    1    2  501    0  0.24709293806E+03  0.13964581433E+03 -0.16609598717E+04  0.17318613018E+04  0.40000000000E+03 0.  1.
   -9000007    1    1    2    0  502 -0.24709293806E+03 -0.13964581433E+03 -0.68571361575E+03  0.84306526219E+03  0.40000000000E+03 0.  1.
<mgrwt>
<rscale>  2 0.49046496E+03</rscale>
<asrwt>0</asrwt>
<pdfrwt beam="1">  1       21 0.17557931E-01 0.49046496E+03</pdfrwt>
<pdfrwt beam="2">  1       21 0.37858458E+00 0.49046496E+03</pdfrwt>
<totfact> 0.26038018E+02</totfact>
</mgrwt>
</event>
<event>
 4    1  0.4716816E-002  0.5289408E+03  0.7818608E-02  0.1006489E+00
         21   -1    0    0  503  502  0.00000000000E+00  0.00000000000E+00  0.62394920318E+03  0.62394920318E+03  0.00000000000E+00 0.  1.
         21   -1    0    0  501  503 -0.00000000000E+00 -0.00000000000E+00 -0.56845562024E+03  0.56845562024E+03  0.00000000000E+00 0.  1.
    9000007    1    1    2  501    0  0.34538017453E+03 -0.22155957283E+02  0.30173890362E+03  0.60895378918E+03  0.40000000000E+03 0.  1.
   -9000007    1    1    2    0  502 -0.34538017453E+03  0.22155957283E+02 -0.24624532068E+03  0.58345103424E+03  0.40000000000E+03 0.  1.
<mgrwt>
<rscale>  2 0.52894078E+03</rscale>
<asrwt>0</asrwt>
<pdfrwt beam="1">  1       21 0.95992184E-01 0.52894078E+03</pdfrwt>
<pdfrwt beam="2">  1       21 0.87454711E-01 0.52894078E+03</pdfrwt>
<totfact> 0.83419295E+02</totfact>
</mgrwt>
</event>
<event>
 4    1  0.4716816E-002  0.4238090E+03  0.7818608E-02  0.1035834E+00
         21   -1    0    0  501  502  0.00000000000E+00  0.00000000000E+00  0.79691477718E+03  0.79691477718E+03  0.00000000000E+00 0.  1.
         21   -1    0    0  502  503 -0.00000000000E+00 -0.00000000000E+00 -0.30525467875E+03  0.30525467875E+03  0.00000000000E+00 0.  1.
    9000007    1    1    2  501    0  0.12258612966E+03 -0.67725319369E+02  0.52771589130E+03  0.67682947631E+03  0.40000000000E+03 0.  1.
   -9000007    1    1    2    0  503 -0.12258612966E+03  0.67725319369E+02 -0.36055792866E+02  0.42533997963E+03  0.40000000000E+03 0.  1.
<mgrwt>
<rscale>  2 0.42380901E+03</rscale>
<asrwt>0</asrwt>
<pdfrwt beam="1">  1       21 0.12260227E+00 0.42380901E+03</pdfrwt>
<pdfrwt beam="2">  1       21 0.46962258E-01 0.42380901E+03</pdfrwt>
<totfact> 0.18862241E+03</totfact>
</mgrwt>
</event>
<event>
 4    1  0.4716816E-002  0.5291857E+03  0.7818608E-02  0.1006430E+00
         21   -1    0    0  503  502  0.00000000000E+00  0.00000000000E+00  0.66874076999E+03  0.66874076999E+03  0.00000000000E+00 0. -1.
         21   -1    0    0  501  503 -0.00000000000E+00 -0.00000000000E+00 -0.47701847373E+03  0.47701847373E+03  0.00000000000E+00 0.  1.
    9000007    1    1    2  501    0  0.18870136577E+03 -0.29056713991E+03  0.29607768318E+03  0.60638227441E+03  0.40000000000E+03 0. -1.
   -9000007    1    1    2    0  502 -0.18870136577E+03  0.29056713991E+03 -0.10435538692E+03  0.53937696931E+03  0.40000000000E+03 0.  1.
<mgrwt>
<rscale>  2 0.52918567E+03</rscale>
<asrwt>0</asrwt>
<pdfrwt beam="1">  1       21 0.10288320E+00 0.52918567E+03</pdfrwt>
<pdfrwt beam="2">  1       21 0.73387457E-01 0.52918567E+03</pdfrwt>
<totfact> 0.10582994E+03</totfact>
</mgrwt>
</event>
<event>
 4    1  0.4716816E-002  0.5150437E+03  0.7818608E-02  0.1009925E+00
         21   -1    0    0  501  502  0.00000000000E+00  0.00000000000E+00  0.10695354908E+04  0.10695354908E+04  0.00000000000E+00 0.  1.
         21   -1    0    0  502  503 -0.00000000000E+00 -0.00000000000E+00 -0.38210337732E+03  0.38210337732E+03  0.00000000000E+00 0. -1.
    9000007    1    1    2  501    0 -0.30983376253E+03  0.96296731887E+02  0.77366791188E+03  0.92942566074E+03  0.40000000000E+03 0.  1.
   -9000007    1    1    2    0  503  0.30983376253E+03 -0.96296731887E+02 -0.86235798443E+02  0.52221320733E+03  0.40000000000E+03 0. -1.
<mgrwt>
<rscale>  2 0.51504371E+03</rscale>
<asrwt>0</asrwt>
<pdfrwt beam="1">  1       21 0.16454392E+00 0.51504371E+03</pdfrwt>
<pdfrwt beam="2">  1       21 0.58785135E-01 0.51504371E+03</pdfrwt>
<totfact> 0.51043660E+02</totfact>
</mgrwt>
</event>
<event>
 4    1  0.4716816E-002  0.4190111E+03  0.7818608E-02  0.1037389E+00
         21   -1    0    0  501  502  0.00000000000E+00  0.00000000000E+00  0.36849516271E+03  0.36849516271E+03  0.00000000000E+00 0. -1.
         21   -1    0    0  502  503 -0.00000000000E+00 -0.00000000000E+00 -0.91213445425E+03  0.91213445425E+03  0.00000000000E+00 0. -1.
    9000007    1    1    2  501    0 -0.85624314020E+02  0.90767640594E+02  0.17071686721E+03  0.45245390536E+03  0.40000000000E+03 0. -1.
   -9000007    1    1    2    0  503  0.85624314020E+02 -0.90767640594E+02 -0.71435615875E+03  0.82817571159E+03  0.40000000000E+03 0. -1.
<mgrwt>
<rscale>  2 0.41901108E+03</rscale>
<asrwt>0</asrwt>
<pdfrwt beam="1">  1       21 0.56691564E-01 0.41901108E+03</pdfrwt>
<pdfrwt beam="2">  1       21 0.14032838E+00 0.41901108E+03</pdfrwt>
<totfact> 0.89026916E+02</totfact>
</mgrwt>
</event>
<event>
 4    1  0.4716816E-002  0.4263372E+03  0.7818608E-02  0.1035023E+00
         21   -1    0    0  501  502  0.00000000000E+00  0.00000000000E+00  0.13861017538E+04  0.13861017538E+04  0.00000000000E+00 0. -1.
         21   -1    0    0  502  503 -0.00000000000E+00 -0.00000000000E+00 -0.13894551571E+03  0.13894551571E+03  0.00000000000E+00 0. -1.
    9000007    1    1    2  501    0  0.88149384587E+02  0.11829248599E+03  0.44276430478E+03  0.61465734831E+03  0.40000000000E+03 0. -1.
   -9000007    1    1    2    0  503 -0.88149384587E+02 -0.11829248599E+03  0.80439193333E+03  0.91038992122E+03  0.40000000000E+03 0. -1.
<mgrwt>
<rscale>  2 0.42633722E+03</rscale>
<asrwt>0</asrwt>
<pdfrwt beam="1">  1       21 0.21324641E+00 0.42633722E+03</pdfrwt>
<pdfrwt beam="2">  1       21 0.21376234E-01 0.42633722E+03</pdfrwt>
<totfact> 0.19190331E+03</totfact>
</mgrwt>
</event>
<event>
 4    1  0.4716816E-002  0.4103397E+03  0.7818608E-02  0.1040257E+00
         21   -1    0    0  501  502  0.00000000000E+00  0.00000000000E+00  0.95694000732E+03  0.95694000732E+03  0.00000000000E+00 0. -1.
         21   -1    0    0  502  503 -0.00000000000E+00 -0.00000000000E+00 -0.21989021625E+03  0.21989021625E+03  0.00000000000E+00 0. -1.
    9000007    1    1    2  501    0 -0.91413815738E+02  0.47082057545E+01  0.63154311537E+03  0.75314365129E+03  0.40000000000E+03 0. -1.
   -9000007    1    1    2    0  503  0.91413815738E+02 -0.47082057545E+01  0.10550667570E+03  0.42368657227E+03  0.40000000000E+03 0. -1.
<mgrwt>
<rscale>  2 0.41033968E+03</rscale>
<asrwt>0</asrwt>
<pdfrwt beam="1">  1       21 0.14722154E+00 0.41033968E+03</pdfrwt>
<pdfrwt beam="2">  1       21 0.33829265E-01 0.41033968E+03</pdfrwt>
<totfact> 0.23061474E+03</totfact>
</mgrwt>
</event>
<event>
 4    1  0.4716816E-002  0.4535022E+03  0.7818608E-02  0.1026683E+00
         21   -1    0    0  503  502  0.00000000000E+00  0.00000000000E+00  0.37056539614E+03  0.37056539614E+03  0.00000000000E+00 0. -1.
         21   -1    0    0  501  503 -0.00000000000E+00 -0.00000000000E+00 -0.68000637127E+03  0.68000637127E+03  0.00000000000E+00 0.  1.
    9000007    1    1    2  501    0  0.20702880092E+03  0.52946742502E+02 -0.37993845252E+03  0.59162277648E+03  0.40000000000E+03 0.  1.
   -9000007    1    1    2    0  502 -0.20702880092E+03 -0.52946742502E+02  0.70497477388E+02  0.45894899092E+03  0.40000000000E+03 0. -1.
<mgrwt>
<rscale>  2 0.45350224E+03</rscale>
<asrwt>0</asrwt>
<pdfrwt beam="1">  1       21 0.57010061E-01 0.45350224E+03</pdfrwt>
<pdfrwt beam="2">  1       21 0.10461637E+00 0.45350224E+03</pdfrwt>
<totfact> 0.18310133E+03</totfact>
</mgrwt>
</event>
<event>
 4    1  0.4716816E-002  0.6426534E+03  0.7818608E-02  0.9820663E-01
         21   -1    0    0  503  502  0.00000000000E+00  0.00000000000E+00  0.12114284898E+04  0.12114284898E+04  0.00000000000E+00 0.  1.
         21   -1    0    0  501  503 -0.00000000000E+00 -0.00000000000E+00 -0.47587753263E+03  0.47587753263E+03  0.00000000000E+00 0. -1.
    9000007    1    1    2  501    0 -0.48599490101E+03 -0.12966257818E+03  0.81704870538E+03  0.10395056589E+04  0.40000000000E+03 0.  1.
   -9000007    1    1    2    0  502  0.48599490101E+03  0.12966257818E+03 -0.81497748209E+02  0.64780036350E+03  0.40000000000E+03 0. -1.
<mgrwt>
<rscale>  2 0.64265343E+03</rscale>
<asrwt>0</asrwt>
<pdfrwt beam="1">  1       21 0.18637361E+00 0.64265343E+03</pdfrwt>
<pdfrwt beam="2">  1       21 0.73211929E-01 0.64265343E+03</pdfrwt>
<totfact> 0.20696662E+02</totfact>
</mgrwt>
</event>
<event>
 4    1  0.4716816E-002  0.4263117E+03  0.7818608E-02  0.1035031E+00
         21   -1    0    0  501  502  0.00000000000E+00  0.00000000000E+00  0.10556845013E+03  0.10556845013E+03  0.00000000000E+00 0.  1.
         21   -1    0    0  502  503 -0.00000000000E+00 -0.00000000000E+00 -0.17835973960E+04  0.17835973960E+04  0.00000000000E+00 0.  1.
    9000007    1    1    2  501    0  0.14195723905E+03 -0.39872089460E+02 -0.66283946162E+03  0.78809757842E+03  0.40000000000E+03 0. -1.
   -9000007    1    1    2    0  503 -0.14195723905E+03  0.39872089460E+02 -0.10151894843E+04  0.11010682678E+04  0.40000000000E+03 0. -1.
<mgrwt>
<rscale>  2 0.42631167E+03</rscale>
<asrwt>0</asrwt>
<pdfrwt beam="1">  1       21 0.16241302E-01 0.42631167E+03</pdfrwt>
<pdfrwt beam="2">  1       21 0.27439957E+00 0.42631167E+03</pdfrwt>
<totfact> 0.13482821E+03</totfact>
</mgrwt>
</event>
<event>
 4    1  0.4716816E-002  0.4401730E+03  0.7818608E-02  0.1030694E+00
         21   -1    0    0  501  502  0.00000000000E+00  0.00000000000E+00  0.56160550640E+03  0.56160550640E+03  0.00000000000E+00 0. -1.
         21   -1    0    0  502  503 -0.00000000000E+00 -0.00000000000E+00 -0.92140967671E+03  0.92140967671E+03  0.00000000000E+00 0. -1.
    9000007    1    1    2  501    0 -0.14458826181E+03 -0.11334249426E+03  0.40658159400E+03  0.59921688814E+03  0.40000000000E+03 0. -1.
   -9000007    1    1    2    0  503  0.14458826181E+03  0.11334249426E+03 -0.76638576431E+03  0.88379829497E+03  0.40000000000E+03 0. -1.
<mgrwt>
<rscale>  2 0.44017302E+03</rscale>
<asrwt>0</asrwt>
<pdfrwt beam="1">  1       21 0.86400846E-01 0.44017302E+03</pdfrwt>
<pdfrwt beam="2">  1       21 0.14175534E+00 0.44017302E+03</pdfrwt>
<totfact> 0.33215751E+02</totfact>
</mgrwt>
</event>
<event>
 4    1  0.4716816E-002  0.4213829E+03  0.7818608E-02  0.1036617E+00
         21   -1    0    0  503  502  0.00000000000E+00  0.00000000000E+00  0.70563459418E+03  0.70563459418E+03  0.00000000000E+00 0. -1.
         21   -1    0    0  501  503 -0.00000000000E+00 -0.00000000000E+00 -0.38774706000E+03  0.38774706000E+03  0.00000000000E+00 0.  1.
    9000007    1    1    2  501    0  0.11219196238E+03  0.70544492249E+02 -0.16495785202E+03  0.45252033628E+03  0.40000000000E+03 0.  1.
   -9000007    1    1    2    0  502 -0.11219196238E+03 -0.70544492249E+02  0.48284538620E+03  0.64086131790E+03  0.40000000000E+03 0. -1.
<mgrwt>
<rscale>  2 0.42138292E+03</rscale>
<asrwt>0</asrwt>
<pdfrwt beam="1">  1       21 0.10855917E+00 0.42138292E+03</pdfrwt>
<pdfrwt beam="2">  1       21 0.59653394E-01 0.42138292E+03</pdfrwt>
<totfact> 0.15336603E+03</totfact>
</mgrwt>
</event>
<event>
 4    1  0.4716816E-002  0.4039972E+03  0.7818608E-02  0.1042404E+00
         21   -1    0    0  501  502  0.00000000000E+00  0.00000000000E+00  0.31107171344E+03  0.31107171344E+03  0.00000000000E+00 0.  1.
         21   -1    0    0  502  503 -0.00000000000E+00 -0.00000000000E+00 -0.63727685112E+03  0.63727685112E+03  0.00000000000E+00 0.  1.
    9000007    1    1    2  501    0 -0.77734131179E+00 -0.56684403042E+02  0.36209321276E+02  0.40561661795E+03  0.40000000000E+03 0.  1.
   -9000007    1    1    2    0  503  0.77734131179E+00  0.56684403042E+02 -0.36241445896E+03  0.54273194661E+03  0.40000000000E+03 0.  1.
<mgrwt>
<rscale>  2 0.40399719E+03</rscale>
<asrwt>0</asrwt>
<pdfrwt beam="1">  1       21 0.47857187E-01 0.40399719E+03</pdfrwt>
<pdfrwt beam="2">  1       21 0.98042592E-01 0.40399719E+03</pdfrwt>
<totfact> 0.31790301E+03</totfact>
</mgrwt>
</event>
<event>
 4    1  0.4716816E-002  0.4579625E+03  0.7818608E-02  0.1025374E+00
         21   -1    0    0  503  502  0.00000000000E+00  0.00000000000E+00  0.33086958533E+03  0.33086958533E+03  0.00000000000E+00 0. -1.
         21   -1    0    0  501  503 -0.00000000000E+00 -0.00000000000E+00 -0.96674634496E+03  0.96674634496E+03  0.00000000000E+00 0. -1.
    9000007    1    1    2  501    0  0.11068270085E+03 -0.19359485520E+03 -0.69865230304E+03  0.83537097674E+03  0.40000000000E+03 0. -1.
   -9000007    1    1    2    0  502 -0.11068270085E+03  0.19359485520E+03  0.62775543410E+02  0.46224495355E+03  0.40000000000E+03 0. -1.
<mgrwt>
<rscale>  2 0.45796247E+03</rscale>
<asrwt>0</asrwt>
<pdfrwt beam="1">  1       21 0.50903014E-01 0.45796247E+03</pdfrwt>
<pdfrwt beam="2">  1       21 0.14873021E+00 0.45796247E+03</pdfrwt>
<totfact> 0.94366062E+02</totfact>
</mgrwt>
</event>
<event>
 4    1  0.4716816E-002  0.4050203E+03  0.7818608E-02  0.1042055E+00
         21   -1    0    0  501  502  0.00000000000E+00  0.00000000000E+00  0.29933627106E+04  0.29933627106E+04  0.00000000000E+00 0. -1.
         21   -1    0    0  502  503 -0.00000000000E+00 -0.00000000000E+00 -0.15611187578E+03  0.15611187578E+03  0.00000000000E+00 0. -1.
    9000007    1    1    2  501    0  0.21297118121E+02  0.59898855113E+02  0.26872018021E+04  0.27175531210E+04  0.40000000000E+03 0. -1.
   -9000007    1    1    2    0  503 -0.21297118121E+02 -0.59898855113E+02  0.15004903277E+03  0.43192146545E+03  0.40000000000E+03 0. -1.
<mgrwt>
<rscale>  2 0.40502030E+03</rscale>
<asrwt>0</asrwt>
<pdfrwt beam="1">  1       21 0.46051730E+00 0.40502030E+03</pdfrwt>
<pdfrwt beam="2">  1       21 0.24017214E-01 0.40502030E+03</pdfrwt>
<totfact> 0.44204565E+01</totfact>
</mgrwt>
</event>
<event>
 4    1  0.4716816E-002  0.4232182E+03  0.7818608E-02  0.1036024E+00
         21   -1    0    0  501  502  0.00000000000E+00  0.00000000000E+00  0.25673173901E+03  0.25673173901E+03  0.00000000000E+00 0.  1.
         21   -1    0    0  502  503 -0.00000000000E+00 -0.00000000000E+00 -0.14883399998E+04  0.14883399998E+04  0.00000000000E+00 0.  1.
    9000007    1    1    2  501    0 -0.11994276324E+03  0.68756190449E+02  0.20156483374E+02  0.42369796318E+03  0.40000000000E+03 0.  1.
   -9000007    1    1    2    0  503  0.11994276324E+03 -0.68756190449E+02 -0.12517647441E+04  0.13213737756E+04  0.40000000000E+03 0.  1.
<mgrwt>
<rscale>  2 0.42321824E+03</rscale>
<asrwt>0</asrwt>
<pdfrwt beam="1">  1       21 0.39497190E-01 0.42321824E+03</pdfrwt>
<pdfrwt beam="2">  1       21 0.22897539E+00 0.42321824E+03</pdfrwt>
<totfact> 0.45288072E+02</totfact>
</mgrwt>
</event>
<event>
 4    1  0.4716816E-002  0.4322905E+03  0.7818608E-02  0.1033139E+00
         21   -1    0    0  503  502  0.00000000000E+00  0.00000000000E+00  0.34974701877E+03  0.34974701877E+03  0.00000000000E+00 0. -1.
         21   -1    0    0  501  503 -0.00000000000E+00 -0.00000000000E+00 -0.54356616028E+03  0.54356616028E+03  0.00000000000E+00 0.  1.
    9000007    1    1    2  501    0  0.14805556947E+03  0.70389105937E+02 -0.38639482947E+02  0.43401392550E+03  0.40000000000E+03 0. -1.
   -9000007    1    1    2    0  502 -0.14805556947E+03 -0.70389105937E+02 -0.15517965855E+03  0.45929925355E+03  0.40000000000E+03 0.  1.
<mgrwt>
<rscale>  2 0.43229050E+03</rscale>
<asrwt>0</asrwt>
<pdfrwt beam="1">  1       21 0.53807234E-01 0.43229050E+03</pdfrwt>
<pdfrwt beam="2">  1       21 0.83625562E-01 0.43229050E+03</pdfrwt>
<totfact> 0.35716426E+03</totfact>
</mgrwt>
</event>
<event>
 4    1  0.4716816E-002  0.4197103E+03  0.7818608E-02  0.1037161E+00
         21   -1    0    0  503  502  0.00000000000E+00  0.00000000000E+00  0.99170605094E+03  0.99170605094E+03  0.00000000000E+00 0. -1.
         21   -1    0    0  501  503 -0.00000000000E+00 -0.00000000000E+00 -0.22659717872E+03  0.22659717872E+03  0.00000000000E+00 0. -1.
    9000007    1    1    2  501    0 -0.96795007231E+02 -0.82385895984E+02  0.99382079307E+02  0.43131601752E+03  0.40000000000E+03 0. -1.
   -9000007    1    1    2    0  502  0.96795007231E+02  0.82385895984E+02  0.66572679291E+03  0.78698721214E+03  0.40000000000E+03 0. -1.
<mgrwt>
<rscale>  2 0.41971027E+03</rscale>
<asrwt>0</asrwt>
<pdfrwt beam="1">  1       21 0.15257016E+00 0.41971027E+03</pdfrwt>
<pdfrwt beam="2">  1       21 0.34861105E-01 0.41971027E+03</pdfrwt>
<totfact> 0.19629453E+03</totfact>
</mgrwt>
</event>
<event>
 4    1  0.4716816E-002  0.5156361E+03  0.7818608E-02  0.1009776E+00
         21   -1    0    0  503  502  0.00000000000E+00  0.00000000000E+00  0.47807958115E+03  0.47807958115E+03  0.00000000000E+00 0. -1.
         21   -1    0    0  501  503 -0.00000000000E+00 -0.00000000000E+00 -0.56760681837E+03  0.56760681837E+03  0.00000000000E+00 0. -1.
    9000007    1    1    2  501    0 -0.26149772735E+03 -0.19364804136E+03 -0.11906755156E+03  0.52920478755E+03  0.40000000000E+03 0. -1.
   -9000007    1    1    2    0  502  0.26149772735E+03  0.19364804136E+03  0.29540314332E+02  0.51648161197E+03  0.40000000000E+03 0. -1.
<mgrwt>
<rscale>  2 0.51563614E+03</rscale>
<asrwt>0</asrwt>
<pdfrwt beam="1">  1       21 0.73550705E-01 0.51563614E+03</pdfrwt>
<pdfrwt beam="2">  1       21 0.87324126E-01 0.51563614E+03</pdfrwt>
<totfact> 0.15697177E+03</totfact>
</mgrwt>
</event>
<event>
 4    1  0.4716816E-002  0.6237961E+03  0.7818608E-02  0.9857231E-01
         21   -1    0    0  503  502  0.00000000000E+00  0.00000000000E+00  0.15837205797E+03  0.15837205797E+03  0.00000000000E+00 0.  1.
         21   -1    0    0  501  503 -0.00000000000E+00 -0.00000000000E+00 -0.25357568091E+04  0.25357568091E+04  0.00000000000E+00 0.  1.
    9000007    1    1    2  501    0  0.46236096657E+03 -0.12387035489E+03 -0.14260780832E+04  0.15565411102E+04  0.40000000000E+03 0.  1.
   -9000007    1    1    2    0  502 -0.46236096657E+03  0.12387035489E+03 -0.95130666792E+03  0.11375877569E+04  0.40000000000E+03 0.  1.
<mgrwt>
<rscale>  2 0.62379606E+03</rscale>
<asrwt>0</asrwt>
<pdfrwt beam="1">  1       21 0.24364931E-01 0.62379606E+03</pdfrwt>
<pdfrwt beam="2">  1       21 0.39011645E+00 0.62379606E+03</pdfrwt>
<totfact> 0.10932426E+02</totfact>
</mgrwt>
</event>
<event>
 4    1  0.4716816E-002  0.4745830E+03  0.7818608E-02  0.1020635E+00
         21   -1    0    0  503  502  0.00000000000E+00  0.00000000000E+00  0.69419875141E+03  0.69419875141E+03  0.00000000000E+00 0.  1.
         21   -1    0    0  501  503 -0.00000000000E+00 -0.00000000000E+00 -0.68139622185E+03  0.68139622185E+03  0.00000000000E+00 0. -1.
    9000007    1    1    2  501    0 -0.20527238164E+03 -0.15196135997E+03 -0.49141081458E+03  0.68316439769E+03  0.40000000000E+03 0. -1.
   -9000007    1    1    2    0  502  0.20527238164E+03  0.15196135997E+03  0.50421334414E+03  0.69243057558E+03  0.40000000000E+03 0.  1.
<mgrwt>
<rscale>  2 0.47458298E+03</rscale>
<asrwt>0</asrwt>
<pdfrwt beam="1">  1       21 0.10679981E+00 0.47458298E+03</pdfrwt>
<pdfrwt beam="2">  1       21 0.10483019E+00 0.47458298E+03</pdfrwt>
<totfact> 0.42410603E+02</totfact>
</mgrwt>
</event>
<event>
 4    1  0.4716816E-002  0.4051199E+03  0.7818608E-02  0.1042021E+00
         21   -1    0    0  503  502  0.00000000000E+00  0.00000000000E+00  0.47856265576E+03  0.47856265576E+03  0.00000000000E+00 0. -1.
         21   -1    0    0  501  503 -0.00000000000E+00 -0.00000000000E+00 -0.42565384171E+03  0.42565384171E+03  0.00000000000E+00 0. -1.
    9000007    1    1    2  501    0 -0.60927393891E+02  0.20249085996E+02 -0.17283392702E+03  0.44044720358E+03  0.40000000000E+03 0. -1.
   -9000007    1    1    2    0  502  0.60927393891E+02 -0.20249085996E+02  0.22574274107E+03  0.46376929389E+03  0.40000000000E+03 0. -1.
<mgrwt>
<rscale>  2 0.40511995E+03</rscale>
<asrwt>0</asrwt>
<pdfrwt beam="1">  1       21 0.73625024E-01 0.40511995E+03</pdfrwt>
<pdfrwt beam="2">  1       21 0.65485206E-01 0.40511995E+03</pdfrwt>
<totfact> 0.31482735E+03</totfact>
</mgrwt>
</event>
<event>
 4    1  0.4716816E-002  0.4990510E+03  0.7818608E-02  0.1014027E+00
         21   -1    0    0  501  502  0.00000000000E+00  0.00000000000E+00  0.95489488850E+03  0.95489488850E+03  0.00000000000E+00 0. -1.
         21   -1    0    0  502  503 -0.00000000000E+00 -0.00000000000E+00 -0.10569478659E+04  0.10569478659E+04  0.00000000000E+00 0. -1.
    9000007    1    1    2  501    0 -0.29042607530E+03 -0.68589938395E+02  0.82200468704E+03  0.96163589283E+03  0.40000000000E+03 0. -1.
   -9000007    1    1    2    0  503  0.29042607530E+03  0.68589938395E+02 -0.92405766442E+03  0.10502068615E+04  0.40000000000E+03 0. -1.
<mgrwt>
<rscale>  2 0.49905098E+03</rscale>
<asrwt>0</asrwt>
<pdfrwt beam="1">  1       21 0.14690691E+00 0.49905098E+03</pdfrwt>
<pdfrwt beam="2">  1       21 0.16260736E+00 0.49905098E+03</pdfrwt>
<totfact> 0.58419272E+01</totfact>
</mgrwt>
</event>
<event>
 4    1  0.4716816E-002  0.4066376E+03  0.7818608E-02  0.1041505E+00
         21   -1    0    0  501  502  0.00000000000E+00  0.00000000000E+00  0.23380639985E+04  0.23380639985E+04  0.00000000000E+00 0.  1.
         21   -1    0    0  502  503 -0.00000000000E+00 -0.00000000000E+00 -0.60045010100E+03  0.60045010100E+03  0.00000000000E+00 0.  1.
    9000007    1    1    2  501    0  0.52519214434E+02 -0.50949959368E+02  0.22488274774E+04  0.22852963023E+04  0.40000000000E+03 0.  1.
   -9000007    1    1    2    0  503 -0.52519214434E+02  0.50949959368E+02 -0.51121357992E+03  0.65321779717E+03  0.40000000000E+03 0.  1.
<mgrwt>
<rscale>  2 0.40663764E+03</rscale>
<asrwt>0</asrwt>
<pdfrwt beam="1">  1       21 0.35970215E+00 0.40663764E+03</pdfrwt>
<pdfrwt beam="2">  1       21 0.92376940E-01 0.40663764E+03</pdfrwt>
<totfact> 0.11403178E+01</totfact>
</mgrwt>
</event>
<event>
 4    1  0.4716816E-002  0.4534829E+03  0.7818608E-02  0.1026688E+00
         21   -1    0    0  501  502  0.00000000000E+00  0.00000000000E+00  0.42013686642E+03  0.42013686642E+03  0.00000000000E+00 0.  1.
         21   -1    0    0  502  503 -0.00000000000E+00 -0.00000000000E+00 -0.49933354189E+03  0.49933354189E+03  0.00000000000E+00 0. -1.
    9000007    1    1    2  501    0  0.17317573036E+03  0.12512738944E+03 -0.10419469288E+03  0.46529907715E+03  0.40000000000E+03 0. -1.
   -9000007    1    1    2    0  503 -0.17317573036E+03 -0.12512738944E+03  0.24998017406E+02  0.45417133116E+03  0.40000000000E+03 0. -1.
<mgrwt>
<rscale>  2 0.45348285E+03</rscale>
<asrwt>0</asrwt>
<pdfrwt beam="1">  1       21 0.64636441E-01 0.45348285E+03</pdfrwt>
<pdfrwt beam="2">  1       21 0.76820545E-01 0.45348285E+03</pdfrwt>
<totfact> 0.28893068E+03</totfact>
</mgrwt>
</event>
<event>
 4    1  0.4716816E-002  0.4400034E+03  0.7818608E-02  0.1030746E+00
         21   -1    0    0  503  502  0.00000000000E+00  0.00000000000E+00  0.33517679275E+03  0.33517679275E+03  0.00000000000E+00 0. -1.
         21   -1    0    0  501  503 -0.00000000000E+00 -0.00000000000E+00 -0.17338305819E+04  0.17338305819E+04  0.00000000000E+00 0. -1.
    9000007    1    1    2  501    0  0.15918498188E+03  0.90901760288E+02 -0.15441158145E+04  0.16055829586E+04  0.40000000000E+03 0. -1.
   -9000007    1    1    2    0  502 -0.15918498188E+03 -0.90901760288E+02  0.14546202540E+03  0.46342441597E+03  0.40000000000E+03 0. -1.
<mgrwt>
<rscale>  2 0.44000340E+03</rscale>
<asrwt>0</asrwt>
<pdfrwt beam="1">  1       21 0.51565660E-01 0.44000340E+03</pdfrwt>
<pdfrwt beam="2">  1       21 0.26674317E+00 0.44000340E+03</pdfrwt>
<totfact> 0.15027433E+02</totfact>
</mgrwt>
</event>
<event>
 4    1  0.4716816E-002  0.5074428E+03  0.7818608E-02  0.1011854E+00
         21   -1    0    0  503  502  0.00000000000E+00  0.00000000000E+00  0.43406889863E+03  0.43406889863E+03  0.00000000000E+00 0. -1.
         21   -1    0    0  501  503 -0.00000000000E+00 -0.00000000000E+00 -0.61350129010E+03  0.61350129010E+03  0.00000000000E+00 0. -1.
    9000007    1    1    2  501    0  0.21965457628E+03 -0.22192346981E+03 -0.18495149200E+03  0.54009741133E+03  0.40000000000E+03 0. -1.
   -9000007    1    1    2    0  502 -0.21965457628E+03  0.22192346981E+03  0.55191005253E+01  0.50747277740E+03  0.40000000000E+03 0. -1.
<mgrwt>
<rscale>  2 0.50744276E+03</rscale>
<asrwt>0</asrwt>
<pdfrwt beam="1">  1       21 0.66779831E-01 0.50744276E+03</pdfrwt>
<pdfrwt beam="2">  1       21 0.94384814E-01 0.50744276E+03</pdfrwt>
<totfact> 0.16269358E+03</totfact>
</mgrwt>
</event>
<event>
 4    1  0.4716816E-002  0.4004781E+03  0.7818608E-02  0.1043614E+00
         21   -1    0    0  501  502  0.00000000000E+00  0.00000000000E+00  0.67281407505E+03  0.67281407505E+03  0.00000000000E+00 0.  1.
         21   -1    0    0  502  503 -0.00000000000E+00 -0.00000000000E+00 -0.27116750673E+03  0.27116750673E+03  0.00000000000E+00 0.  1.
    9000007    1    1    2  501    0  0.11527567684E+02 -0.15806746592E+02  0.36495604998E+03  0.54182622350E+03  0.40000000000E+03 0.  1.
   -9000007    1    1    2    0  503 -0.11527567684E+02  0.15806746592E+02  0.36690518339E+02  0.40215535828E+03  0.40000000000E+03 0.  1.
<mgrwt>
<rscale>  2 0.40047814E+03</rscale>
<asrwt>0</asrwt>
<pdfrwt beam="1">  1       21 0.10350986E+00 0.40047814E+03</pdfrwt>
<pdfrwt beam="2">  1       21 0.41718078E-01 0.40047814E+03</pdfrwt>
<totfact> 0.37165621E+03</totfact>
</mgrwt>
</event>
<event>
 4    1  0.4716816E-002  0.5087808E+03  0.7818608E-02  0.1011512E+00
         21   -1    0    0  501  502  0.00000000000E+00  0.00000000000E+00  0.62415767988E+03  0.62415767988E+03  0.00000000000E+00 0.  1.
         21   -1    0    0  502  503 -0.00000000000E+00 -0.00000000000E+00 -0.42790751547E+03  0.42790751547E+03  0.00000000000E+00 0. -1.
    9000007    1    1    2  501    0  0.20620392832E+03 -0.23735594246E+03  0.19043074776E+03  0.54325111428E+03  0.40000000000E+03 0. -1.
   -9000007    1    1    2    0  503 -0.20620392832E+03  0.23735594246E+03  0.58194166495E+01  0.50881408106E+03  0.40000000000E+03 0.  1.
<mgrwt>
<rscale>  2 0.50878080E+03</rscale>
<asrwt>0</asrwt>
<pdfrwt beam="1">  1       21 0.96024259E-01 0.50878080E+03</pdfrwt>
<pdfrwt beam="2">  1       21 0.65831925E-01 0.50878080E+03</pdfrwt>
<totfact> 0.16108993E+03</totfact>
</mgrwt>
</event>
<event>
 4    1  0.4716816E-002  0.4616727E+03  0.7818608E-02  0.1024297E+00
         21   -1    0    0  501  502  0.00000000000E+00  0.00000000000E+00  0.23910524298E+03  0.23910524298E+03  0.00000000000E+00 0.  1.
         21   -1    0    0  502  503 -0.00000000000E+00 -0.00000000000E+00 -0.93736918147E+03  0.93736918147E+03  0.00000000000E+00 0. -1.
    9000007    1    1    2  501    0 -0.20706032423E+03 -0.10132981375E+03 -0.21888565857E+03  0.51093310771E+03  0.40000000000E+03 0. -1.
   -9000007    1    1    2    0  503  0.20706032423E+03  0.10132981375E+03 -0.47937827993E+03  0.66554131674E+03  0.40000000000E+03 0. -1.
<mgrwt>
<rscale>  2 0.46167273E+03</rscale>
<asrwt>0</asrwt>
<pdfrwt beam="1">  1       21 0.36785422E-01 0.46167273E+03</pdfrwt>
<pdfrwt beam="2">  1       21 0.14421064E+00 0.46167273E+03</pdfrwt>
<totfact> 0.20155397E+03</totfact>
</mgrwt>
</event>
<event>
 4    1  0.4716816E-002  0.4255239E+03  0.7818608E-02  0.1035283E+00
         21   -1    0    0  503  502  0.00000000000E+00  0.00000000000E+00  0.15590165384E+03  0.15590165384E+03  0.00000000000E+00 0. -1.
         21   -1    0    0  501  503 -0.00000000000E+00 -0.00000000000E+00 -0.11738332939E+04  0.11738332939E+04  0.00000000000E+00 0. -1.
    9000007    1    1    2  501    0 -0.14515301764E+03  0.10912474899E+01 -0.57727921379E+03  0.71716238052E+03  0.40000000000E+03 0.  1.
   -9000007    1    1    2    0  502  0.14515301764E+03 -0.10912474899E+01 -0.44065242629E+03  0.61257256725E+03  0.40000000000E+03 0.  1.
<mgrwt>
<rscale>  2 0.42552390E+03</rscale>
<asrwt>0</asrwt>
<pdfrwt beam="1">  1       21 0.23984870E-01 0.42552390E+03</pdfrwt>
<pdfrwt beam="2">  1       21 0.18058974E+00 0.42552390E+03</pdfrwt>
<totfact> 0.25488312E+03</totfact>
</mgrwt>
</event>
<event>
 4    1  0.4716816E-002  0.4124016E+03  0.7818608E-02  0.1039568E+00
         21   -1    0    0  503  502  0.00000000000E+00  0.00000000000E+00  0.69806915711E+03  0.69806915711E+03  0.00000000000E+00 0. -1.
         21   -1    0    0  501  503 -0.00000000000E+00 -0.00000000000E+00 -0.32865026782E+03  0.32865026782E+03  0.00000000000E+00 0. -1.
    9000007    1    1    2  501    0  0.11667119688E+02 -0.99694482046E+02 -0.76386107842E+02  0.41941620010E+03  0.40000000000E+03 0. -1.
   -9000007    1    1    2    0  502 -0.11667119688E+02  0.99694482046E+02  0.44580499713E+03  0.60730322484E+03  0.40000000000E+03 0. -1.
<mgrwt>
<rscale>  2 0.41240164E+03</rscale>
<asrwt>0</asrwt>
<pdfrwt beam="1">  1       21 0.10739525E+00 0.41240164E+03</pdfrwt>
<pdfrwt beam="2">  1       21 0.50561580E-01 0.41240164E+03</pdfrwt>
<totfact> 0.22577787E+03</totfact>
</mgrwt>
</event>
<event>
 4    1  0.4716816E-002  0.5363869E+03  0.7818608E-02  0.1004695E+00
         21   -1    0    0  503  502  0.00000000000E+00  0.00000000000E+00  0.15087766143E+04  0.15087766143E+04  0.00000000000E+00 0. -1.
         21   -1    0    0  501  503 -0.00000000000E+00 -0.00000000000E+00 -0.36435560762E+03  0.36435560762E+03  0.00000000000E+00 0.  1.
    9000007    1    1    2  501    0 -0.11223052564E+03  0.33928626868E+03 -0.74382134191E+02  0.54151968098E+03  0.40000000000E+03 0.  1.
   -9000007    1    1    2    0  502  0.11223052564E+03 -0.33928626868E+03  0.12188031409E+04  0.13316125410E+04  0.40000000000E+03 0. -1.
<mgrwt>
<rscale>  2 0.53638686E+03</rscale>
<asrwt>0</asrwt>
<pdfrwt beam="1">  1       21 0.23211948E+00 0.53638686E+03</pdfrwt>
<pdfrwt beam="2">  1       21 0.56054710E-01 0.53638686E+03</pdfrwt>
<totfact> 0.19509485E+02</totfact>
</mgrwt>
</event>
<event>
 4    1  0.4716816E-002  0.5295280E+03  0.7818608E-02  0.1006347E+00
         21   -1    0    0  503  502  0.00000000000E+00  0.00000000000E+00  0.10203019134E+04  0.10203019134E+04  0.00000000000E+00 0.  1.
         21   -1    0    0  501  503 -0.00000000000E+00 -0.00000000000E+00 -0.49353874474E+03  0.49353874474E+03  0.00000000000E+00 0.  1.
    9000007    1    1    2  501    0  0.19941989348E+03  0.28395711177E+03 -0.24050407400E+03  0.58158588777E+03  0.40000000000E+03 0.  1.
   -9000007    1    1    2    0  502 -0.19941989348E+03 -0.28395711177E+03  0.76726724270E+03  0.93225477041E+03  0.40000000000E+03 0.  1.
<mgrwt>
<rscale>  2 0.52952803E+03</rscale>
<asrwt>0</asrwt>
<pdfrwt beam="1">  1       21 0.15696952E+00 0.52952803E+03</pdfrwt>
<pdfrwt beam="2">  1       21 0.75929038E-01 0.52952803E+03</pdfrwt>
<totfact> 0.32636944E+02</totfact>
</mgrwt>
</event>
<event>
 4    1  0.4716816E-002  0.4601031E+03  0.7818608E-02  0.1024751E+00
         21   -1    0    0  501  502  0.00000000000E+00  0.00000000000E+00  0.52720307056E+03  0.52720307056E+03  0.00000000000E+00 0. -1.
         21   -1    0    0  502  503 -0.00000000000E+00 -0.00000000000E+00 -0.10008836204E+04  0.10008836204E+04  0.00000000000E+00 0. -1.
    9000007    1    1    2  501    0 -0.84323349539E+02 -0.21115020161E+03  0.35439858667E+03  0.58076948366E+03  0.40000000000E+03 0. -1.
   -9000007    1    1    2    0  503  0.84323349539E+02  0.21115020161E+03 -0.82807913647E+03  0.94731720726E+03  0.40000000000E+03 0. -1.
<mgrwt>
<rscale>  2 0.46010307E+03</rscale>
<asrwt>0</asrwt>
<pdfrwt beam="1">  1       21 0.81108164E-01 0.46010307E+03</pdfrwt>
<pdfrwt beam="2">  1       21 0.15398210E+00 0.46010307E+03</pdfrwt>
<totfact> 0.30480352E+02</totfact>
</mgrwt>
</event>
<event>
 4    1  0.4716816E-002  0.4773677E+03  0.7818608E-02  0.1019861E+00
         21   -1    0    0  501  502  0.00000000000E+00  0.00000000000E+00  0.89240161282E+03  0.89240161282E+03  0.00000000000E+00 0. -1.
         21   -1    0    0  502  503 -0.00000000000E+00 -0.00000000000E+00 -0.25786030630E+03  0.25786030630E+03  0.00000000000E+00 0. -1.
    9000007    1    1    2  501    0  0.26053593077E+03  0.98683065601E+00  0.26059012579E+03  0.54386318014E+03  0.40000000000E+03 0. -1.
   -9000007    1    1    2    0  503 -0.26053593077E+03 -0.98683065601E+00  0.37395118073E+03  0.60639873897E+03  0.40000000000E+03 0. -1.
<mgrwt>
<rscale>  2 0.47736773E+03</rscale>
<asrwt>0</asrwt>
<pdfrwt beam="1">  1       21 0.13729255E+00 0.47736773E+03</pdfrwt>
<pdfrwt beam="2">  1       21 0.39670817E-01 0.47736773E+03</pdfrwt>
<totfact> 0.19572337E+03</totfact>
</mgrwt>
</event>
<event>
 4    1  0.4716816E-002  0.4704214E+03  0.7818608E-02  0.1021801E+00
         21   -1    0    0  501  502  0.00000000000E+00  0.00000000000E+00  0.37176254749E+03  0.37176254749E+03  0.00000000000E+00 0. -1.
         21   -1    0    0  502  503 -0.00000000000E+00 -0.00000000000E+00 -0.63558573944E+03  0.63558573944E+03  0.00000000000E+00 0. -1.
    9000007    1    1    2  501    0 -0.23510903634E+03 -0.77588681465E+02 -0.50468701944E+01  0.47044843858E+03  0.40000000000E+03 0. -1.
   -9000007    1    1    2    0  503  0.23510903634E+03  0.77588681465E+02 -0.25877632176E+03  0.53689984836E+03  0.40000000000E+03 0. -1.
<mgrwt>
<rscale>  2 0.47042137E+03</rscale>
<asrwt>0</asrwt>
<pdfrwt beam="1">  1       21 0.57194239E-01 0.47042137E+03</pdfrwt>
<pdfrwt beam="2">  1       21 0.97782420E-01 0.47042137E+03</pdfrwt>
<totfact> 0.21307225E+03</totfact>
</mgrwt>
</event>
<event>
 4    1  0.4716816E-002  0.4508247E+03  0.7818608E-02  0.1027476E+00
         21   -1    0    0  503  502  0.00000000000E+00  0.00000000000E+00  0.33464709077E+03  0.33464709077E+03  0.00000000000E+00 0.  1.
         21   -1    0    0  501  503 -0.00000000000E+00 -0.00000000000E+00 -0.10612607672E+04  0.10612607672E+04  0.00000000000E+00 0.  1.
    9000007    1    1    2  501    0 -0.19928989893E+03  0.59384092771E+02 -0.81977244219E+03  0.93555854507E+03  0.40000000000E+03 0.  1.
   -9000007    1    1    2    0  502  0.19928989893E+03 -0.59384092771E+02  0.93158765711E+02  0.46034931293E+03  0.40000000000E+03 0.  1.
<mgrwt>
<rscale>  2 0.45082473E+03</rscale>
<asrwt>0</asrwt>
<pdfrwt beam="1">  1       21 0.51484168E-01 0.45082473E+03</pdfrwt>
<pdfrwt beam="2">  1       21 0.16327089E+00 0.45082473E+03</pdfrwt>
<totfact> 0.71442507E+02</totfact>
</mgrwt>
</event>
<event>
 4    1  0.4716816E-002  0.4419575E+03  0.7818608E-02  0.1030148E+00
         21   -1    0    0  501  502  0.00000000000E+00  0.00000000000E+00  0.66186428567E+03  0.66186428567E+03  0.00000000000E+00 0.  1.
         21   -1    0    0  502  503 -0.00000000000E+00 -0.00000000000E+00 -0.40434943776E+03  0.40434943776E+03  0.00000000000E+00 0.  1.
    9000007    1    1    2  501    0 -0.30848743917E+02  0.18540446829E+03  0.40584336355E+03  0.60002941394E+03  0.40000000000E+03 0.  1.
   -9000007    1    1    2    0  503  0.30848743917E+02 -0.18540446829E+03 -0.14832851564E+03  0.46618430949E+03  0.40000000000E+03 0.  1.
<mgrwt>
<rscale>  2 0.44195753E+03</rscale>
<asrwt>0</asrwt>
<pdfrwt beam="1">  1       21 0.10182528E+00 0.44195753E+03</pdfrwt>
<pdfrwt beam="2">  1       21 0.62207606E-01 0.44195753E+03</pdfrwt>
<totfact> 0.16236789E+03</totfact>
</mgrwt>
</event>
<event>
 4    1  0.4716816E-002  0.4584559E+03  0.7818608E-02  0.1025230E+00
         21   -1    0    0  501  502  0.00000000000E+00  0.00000000000E+00  0.45976916894E+03  0.45976916894E+03  0.00000000000E+00 0.  1.
         21   -1    0    0  502  503 -0.00000000000E+00 -0.00000000000E+00 -0.83886677887E+03  0.83886677887E+03  0.00000000000E+00 0.  1.
    9000007    1    1    2  501    0 -0.20515509329E+03  0.89962085753E+02  0.24846080470E+03  0.52145427475E+03  0.40000000000E+03 0.  1.
   -9000007    1    1    2    0  503  0.20515509329E+03 -0.89962085753E+02 -0.62755841463E+03  0.77718167306E+03  0.40000000000E+03 0.  1.
<mgrwt>
<rscale>  2 0.45845587E+03</rscale>
<asrwt>0</asrwt>
<pdfrwt beam="1">  1       21 0.70733720E-01 0.45845587E+03</pdfrwt>
<pdfrwt beam="2">  1       21 0.12905643E+00 0.45845587E+03</pdfrwt>
<totfact> 0.66776652E+02</totfact>
</mgrwt>
</event>
<event>
 4    1  0.4716816E-002  0.4190501E+03  0.7818608E-02  0.1037376E+00
         21   -1    0    0  503  502  0.00000000000E+00  0.00000000000E+00  0.74403811664E+03  0.74403811664E+03  0.00000000000E+00 0. -1.
         21   -1    0    0  501  503 -0.00000000000E+00 -0.00000000000E+00 -0.24009303046E+03  0.24009303046E+03  0.00000000000E+00 0. -1.
    9000007    1    1    2  501    0  0.12174554108E+03  0.27947138192E+02  0.31611414149E+03  0.52491063025E+03  0.40000000000E+03 0. -1.
   -9000007    1    1    2    0  502 -0.12174554108E+03 -0.27947138192E+02  0.18783094470E+03  0.45922051684E+03  0.40000000000E+03 0. -1.
<mgrwt>
<rscale>  2 0.41905014E+03</rscale>
<asrwt>0</asrwt>
<pdfrwt beam="1">  1       21 0.11446740E+00 0.41905014E+03</pdfrwt>
<pdfrwt beam="2">  1       21 0.36937390E-01 0.41905014E+03</pdfrwt>
<totfact> 0.36935588E+03</totfact>
</mgrwt>
</event>
<event>
 4    1  0.4716816E-002  0.7432363E+03  0.7818608E-02  0.9646022E-01
         21   -1    0    0  501  502  0.00000000000E+00  0.00000000000E+00  0.57515793564E+03  0.57515793564E+03  0.00000000000E+00 0. -1.
         21   -1    0    0  502  503 -0.00000000000E+00 -0.00000000000E+00 -0.12026154950E+04  0.12026154950E+04  0.00000000000E+00 0.  1.
    9000007    1    1    2  501    0  0.29669514076E+03  0.55169931994E+03 -0.71262065992E+03  0.10296739052E+04  0.40000000000E+03 0. -1.
   -9000007    1    1    2    0  503 -0.29669514076E+03 -0.55169931994E+03  0.85163100586E+02  0.74809952538E+03  0.40000000000E+03 0. -1.
<mgrwt>
<rscale>  2 0.74323627E+03</rscale>
<asrwt>0</asrwt>
<pdfrwt beam="1">  1       21 0.88485837E-01 0.74323627E+03</pdfrwt>
<pdfrwt beam="2">  1       21 0.18501777E+00 0.74323627E+03</pdfrwt>
<totfact> 0.13134142E+02</totfact>
</mgrwt>
</event>
<event>
 4    1  0.4716816E-002  0.4062683E+03  0.7818608E-02  0.1041631E+00
         21   -1    0    0  501  502  0.00000000000E+00  0.00000000000E+00  0.35847376927E+03  0.35847376927E+03  0.00000000000E+00 0.  1.
         21   -1    0    0  502  503 -0.00000000000E+00 -0.00000000000E+00 -0.95157444755E+03  0.95157444755E+03  0.00000000000E+00 0.  1.
    9000007    1    1    2  501    0 -0.40858364978E+02  0.58176751677E+02  0.17403481349E+03  0.44197517660E+03  0.40000000000E+03 0.  1.
   -9000007    1    1    2    0  503  0.40858364978E+02 -0.58176751677E+02 -0.76713549177E+03  0.86807304022E+03  0.40000000000E+03 0.  1.
<mgrwt>
<rscale>  2 0.40626831E+03</rscale>
<asrwt>0</asrwt>
<pdfrwt beam="1">  1       21 0.55149811E-01 0.40626831E+03</pdfrwt>
<pdfrwt beam="2">  1       21 0.14639607E+00 0.40626831E+03</pdfrwt>
<totfact> 0.84894488E+02</totfact>
</mgrwt>
</event>
<event>
 4    1  0.4716816E-002  0.4765433E+03  0.7818608E-02  0.1020090E+00
         21   -1    0    0  503  502  0.00000000000E+00  0.00000000000E+00  0.18248700024E+03  0.18248700024E+03  0.00000000000E+00 0. -1.
         21   -1    0    0  501  503 -0.00000000000E+00 -0.00000000000E+00 -0.14815146836E+04  0.14815146836E+04  0.00000000000E+00 0. -1.
    9000007    1    1    2  501    0 -0.75406868203E+02 -0.24780497377E+03 -0.98233926751E+03  0.10918259647E+04  0.40000000000E+03 0. -1.
   -9000007    1    1    2    0  502  0.75406868203E+02  0.24780497377E+03 -0.31668841586E+03  0.57217571911E+03  0.40000000000E+03 0. -1.
<mgrwt>
<rscale>  2 0.47654328E+03</rscale>
<asrwt>0</asrwt>
<pdfrwt beam="1">  1       21 0.28074923E-01 0.47654328E+03</pdfrwt>
<pdfrwt beam="2">  1       21 0.22792534E+00 0.47654328E+03</pdfrwt>
<totfact> 0.88971943E+02</totfact>
</mgrwt>
</event>
<event>
 4    1  0.4716816E-002  0.5250744E+03  0.7818608E-02  0.1007434E+00
         21   -1    0    0  503  502  0.00000000000E+00  0.00000000000E+00  0.15915930318E+04  0.15915930318E+04  0.00000000000E+00 0. -1.
         21   -1    0    0  501  503 -0.00000000000E+00 -0.00000000000E+00 -0.46940778980E+03  0.46940778980E+03  0.00000000000E+00 0.  1.
    9000007    1    1    2  501    0 -0.33454242523E+03  0.61517815089E+02 -0.25747247399E+03  0.58480351462E+03  0.40000000000E+03 0.  1.
   -9000007    1    1    2    0  502  0.33454242523E+03 -0.61517815089E+02  0.13796577160E+04  0.14761973070E+04  0.40000000000E+03 0. -1.
<mgrwt>
<rscale>  2 0.52507435E+03</rscale>
<asrwt>0</asrwt>
<pdfrwt beam="1">  1       21 0.24486046E+00 0.52507435E+03</pdfrwt>
<pdfrwt beam="2">  1       21 0.72216584E-01 0.52507435E+03</pdfrwt>
<totfact> 0.92943269E+01</totfact>
</mgrwt>
</event>
<event>
 4    1  0.4716816E-002  0.4506119E+03  0.7818608E-02  0.1027540E+00
         21   -1    0    0  501  502  0.00000000000E+00  0.00000000000E+00  0.58287835070E+03  0.58287835070E+03  0.00000000000E+00 0.  1.
         21   -1    0    0  502  503 -0.00000000000E+00 -0.00000000000E+00 -0.38215843043E+03  0.38215843043E+03  0.00000000000E+00 0.  1.
    9000007    1    1    2  501    0 -0.12255548446E+03 -0.16742530238E+03  0.24385770754E+03  0.51236477257E+03  0.40000000000E+03 0.  1.
   -9000007    1    1    2    0  503  0.12255548446E+03  0.16742530238E+03 -0.43137787270E+02  0.45267200856E+03  0.40000000000E+03 0.  1.
<mgrwt>
<rscale>  2 0.45061189E+03</rscale>
<asrwt>0</asrwt>
<pdfrwt beam="1">  1       21 0.89673592E-01 0.45061189E+03</pdfrwt>
<pdfrwt beam="2">  1       21 0.58793605E-01 0.45061189E+03</pdfrwt>
<totfact> 0.24854447E+03</totfact>
</mgrwt>
</event>
<event>
 4    1  0.4716816E-002  0.4491116E+03  0.7818608E-02  0.1027987E+00
         21   -1    0    0  503  502  0.00000000000E+00  0.00000000000E+00  0.14146463022E+03  0.14146463022E+03  0.00000000000E+00 0.  1.
         21   -1    0    0  501  503 -0.00000000000E+00 -0.00000000000E+00 -0.17874834160E+04  0.17874834160E+04  0.00000000000E+00 0.  1.
    9000007    1    1    2  501    0  0.37314322339E+02 -0.20077058821E+03 -0.12568497275E+04  0.13346806454E+04  0.40000000000E+03 0.  1.
   -9000007    1    1    2    0  502 -0.37314322339E+02  0.20077058821E+03 -0.38916905832E+03  0.59426740084E+03  0.40000000000E+03 0.  1.
<mgrwt>
<rscale>  2 0.44911155E+03</rscale>
<asrwt>0</asrwt>
<pdfrwt beam="1">  1       21 0.21763791E-01 0.44911155E+03</pdfrwt>
<pdfrwt beam="2">  1       21 0.27499743E+00 0.44911155E+03</pdfrwt>
<totfact> 0.75948385E+02</totfact>
</mgrwt>
</event>
<event>
 4    1  0.4716816E-002  0.4403124E+03  0.7818608E-02  0.1030651E+00
         21   -1    0    0  503  502  0.00000000000E+00  0.00000000000E+00  0.31255506949E+03  0.31255506949E+03  0.00000000000E+00 0. -1.
         21   -1    0    0  501  503 -0.00000000000E+00 -0.00000000000E+00 -0.62659163259E+03  0.62659163259E+03  0.00000000000E+00 0. -1.
    9000007    1    1    2  501    0  0.18318098428E+03  0.17880720486E+02 -0.20410675704E+03  0.48531903057E+03  0.40000000000E+03 0. -1.
   -9000007    1    1    2    0  502 -0.18318098428E+03 -0.17880720486E+02 -0.10992980606E+03  0.45382767151E+03  0.40000000000E+03 0. -1.
<mgrwt>
<rscale>  2 0.44031238E+03</rscale>
<asrwt>0</asrwt>
<pdfrwt beam="1">  1       21 0.48085396E-01 0.44031238E+03</pdfrwt>
<pdfrwt beam="2">  1       21 0.96398712E-01 0.44031238E+03</pdfrwt>
<totfact> 0.32332453E+03</totfact>
</mgrwt>
</event>
<event>
 4    1  0.4716816E-002  0.5739488E+03  0.7818608E-02  0.9960978E-01
         21   -1    0    0  501  502  0.00000000000E+00  0.00000000000E+00  0.31579832943E+03  0.31579832943E+03  0.00000000000E+00 0. -1.
         21   -1    0    0  502  503 -0.00000000000E+00 -0.00000000000E+00 -0.13269564783E+04  0.13269564783E+04  0.00000000000E+00 0. -1.
    9000007    1    1    2  501    0  0.24121364056E+03  0.33351638037E+03 -0.88545741854E+03  0.10552023675E+04  0.40000000000E+03 0. -1.
   -9000007    1    1    2    0  503 -0.24121364056E+03 -0.33351638037E+03 -0.12570073030E+03  0.58755244018E+03  0.40000000000E+03 0. -1.
<mgrwt>
<rscale>  2 0.57394878E+03</rscale>
<asrwt>0</asrwt>
<pdfrwt beam="1">  1       21 0.48584358E-01 0.57394878E+03</pdfrwt>
<pdfrwt beam="2">  1       21 0.20414715E+00 0.57394878E+03</pdfrwt>
<totfact> 0.39648345E+02</totfact>
</mgrwt>
</event>
<event>
 4    1  0.4716816E-002  0.4225397E+03  0.7818608E-02  0.1036243E+00
         21   -1    0    0  501  502  0.00000000000E+00  0.00000000000E+00  0.63050503676E+03  0.63050503676E+03  0.00000000000E+00 0.  1.
         21   -1    0    0  502  503 -0.00000000000E+00 -0.00000000000E+00 -0.30559665721E+03  0.30559665721E+03  0.00000000000E+00 0. -1.
    9000007    1    1    2  501    0 -0.66827672972E+02  0.11863338260E+03  0.35658198907E+02  0.42404165419E+03  0.40000000000E+03 0. -1.
   -9000007    1    1    2    0  503  0.66827672972E+02 -0.11863338260E+03  0.28925018064E+03  0.51206003978E+03  0.40000000000E+03 0.  1.
<mgrwt>
<rscale>  2 0.42253972E+03</rscale>
<asrwt>0</asrwt>
<pdfrwt beam="1">  1       21 0.97000774E-01 0.42253972E+03</pdfrwt>
<pdfrwt beam="2">  1       21 0.47014871E-01 0.42253972E+03</pdfrwt>
<totfact> 0.33619982E+03</totfact>
</mgrwt>
</event>
<event>
 4    1  0.4716816E-002  0.4100272E+03  0.7818608E-02  0.1040362E+00
         21   -1    0    0  503  502  0.00000000000E+00  0.00000000000E+00  0.43724065473E+03  0.43724065473E+03  0.00000000000E+00 0. -1.
         21   -1    0    0  501  503 -0.00000000000E+00 -0.00000000000E+00 -0.12854561558E+04  0.12854561558E+04  0.00000000000E+00 0. -1.
    9000007    1    1    2  501    0  0.71039535648E+02 -0.55458813244E+02 -0.11452156434E+04  0.12164050171E+04  0.40000000000E+03 0. -1.
   -9000007    1    1    2    0  502 -0.71039535648E+02  0.55458813244E+02  0.29700014235E+03  0.50629179348E+03  0.40000000000E+03 0. -1.
<mgrwt>
<rscale>  2 0.41002719E+03</rscale>
<asrwt>0</asrwt>
<pdfrwt beam="1">  1       21 0.67267793E-01 0.41002719E+03</pdfrwt>
<pdfrwt beam="2">  1       21 0.19776249E+00 0.41002719E+03</pdfrwt>
<totfact> 0.23268971E+02</totfact>
</mgrwt>
</event>
<event>
 4    1  0.4716816E-002  0.4381520E+03  0.7818608E-02  0.1031315E+00
         21   -1    0    0  501  502  0.00000000000E+00  0.00000000000E+00  0.45053149685E+03  0.45053149685E+03  0.00000000000E+00 0.  1.
         21   -1    0    0  502  503 -0.00000000000E+00 -0.00000000000E+00 -0.61188828466E+03  0.61188828466E+03  0.00000000000E+00 0.  1.
    9000007    1    1    2  501    0 -0.16227537640E+03  0.75125604965E+02 -0.37337959275E+03  0.57566437669E+03  0.40000000000E+03 0.  1.
   -9000007    1    1    2    0  503  0.16227537640E+03 -0.75125604965E+02  0.21202280494E+03  0.48675540482E+03  0.40000000000E+03 0.  1.
<mgrwt>
<rscale>  2 0.43815198E+03</rscale>
<asrwt>0</asrwt>
<pdfrwt beam="1">  1       21 0.69312538E-01 0.43815198E+03</pdfrwt>
<pdfrwt beam="2">  1       21 0.94136660E-01 0.43815198E+03</pdfrwt>
<totfact> 0.15451640E+03</totfact>
</mgrwt>
</event>
<event>
 4    1  0.4716816E-002  0.4143250E+03  0.7818608E-02  0.1038929E+00
         21   -1    0    0  501  502  0.00000000000E+00  0.00000000000E+00  0.92832526371E+03  0.92832526371E+03  0.00000000000E+00 0.  1.
         21   -1    0    0  502  503 -0.00000000000E+00 -0.00000000000E+00 -0.20985550758E+03  0.20985550758E+03  0.00000000000E+00 0.  1.
    9000007    1    1    2  501    0  0.10765856242E+03 -0.86488552546E+01  0.55540691501E+03  0.69292280234E+03  0.40000000000E+03 0.  1.
   -9000007    1    1    2    0  503 -0.10765856242E+03  0.86488552546E+01  0.16306284112E+03  0.44525796895E+03  0.40000000000E+03 0.  1.
<mgrwt>
<rscale>  2 0.41432496E+03</rscale>
<asrwt>0</asrwt>
<pdfrwt beam="1">  1       21 0.14281927E+00 0.41432496E+03</pdfrwt>
<pdfrwt beam="2">  1       21 0.32285463E-01 0.41432496E+03</pdfrwt>
<totfact> 0.27428958E+03</totfact>
</mgrwt>
</event>
<event>
 4    1  0.4716816E-002  0.4882106E+03  0.7818608E-02  0.1016903E+00
         21   -1    0    0  501  502  0.00000000000E+00  0.00000000000E+00  0.42095542546E+03  0.42095542546E+03  0.00000000000E+00 0. -1.
         21   -1    0    0  502  503 -0.00000000000E+00 -0.00000000000E+00 -0.92513718767E+03  0.92513718767E+03  0.00000000000E+00 0. -1.
    9000007    1    1    2  501    0  0.59389183034E+02 -0.27353709380E+03  0.16713145537E+03  0.51602571653E+03  0.40000000000E+03 0. -1.
   -9000007    1    1    2    0  503 -0.59389183034E+02  0.27353709380E+03 -0.67131321757E+03  0.83006689660E+03  0.40000000000E+03 0. -1.
<mgrwt>
<rscale>  2 0.48821063E+03</rscale>
<asrwt>0</asrwt>
<pdfrwt beam="1">  1       21 0.64762373E-01 0.48821063E+03</pdfrwt>
<pdfrwt beam="2">  1       21 0.14232880E+00 0.48821063E+03</pdfrwt>
<totfact> 0.62089925E+02</totfact>
</mgrwt>
</event>
<event>
 4    1  0.4716816E-002  0.4056790E+03  0.7818608E-02  0.1041831E+00
         21   -1    0    0  503  502  0.00000000000E+00  0.00000000000E+00  0.17038157488E+04  0.17038157488E+04  0.00000000000E+00 0. -1.
         21   -1    0    0  501  503 -0.00000000000E+00 -0.00000000000E+00 -0.11191625793E+03  0.11191625793E+03  0.00000000000E+00 0. -1.
    9000007    1    1    2  501    0 -0.13821303400E+01 -0.67628203113E+02  0.11318888967E+04  0.12023925975E+04  0.40000000000E+03 0. -1.
   -9000007    1    1    2    0  502  0.13821303400E+01  0.67628203113E+02  0.46001059422E+03  0.61333940925E+03  0.40000000000E+03 0. -1.
<mgrwt>
<rscale>  2 0.40567904E+03</rscale>
<asrwt>0</asrwt>
<pdfrwt beam="1">  1       21 0.26212548E+00 0.40567904E+03</pdfrwt>
<pdfrwt beam="2">  1       21 0.17217887E-01 0.40567904E+03</pdfrwt>
<totfact> 0.14497894E+03</totfact>
</mgrwt>
</event>
<event>
 4    1  0.4716816E-002  0.4284877E+03  0.7818608E-02  0.1034339E+00
         21   -1    0    0  503  502  0.00000000000E+00  0.00000000000E+00  0.24261877135E+03  0.24261877135E+03  0.00000000000E+00 0. -1.
         21   -1    0    0  501  503 -0.00000000000E+00 -0.00000000000E+00 -0.84876642392E+03  0.84876642392E+03  0.00000000000E+00 0. -1.
    9000007    1    1    2  501    0  0.13673798660E+03 -0.70031792064E+02 -0.48274851404E+03  0.64548265405E+03  0.40000000000E+03 0. -1.
   -9000007    1    1    2    0  502 -0.13673798660E+03  0.70031792064E+02 -0.12339913854E+03  0.44590254122E+03  0.40000000000E+03 0. -1.
<mgrwt>
<rscale>  2 0.42848772E+03</rscale>
<asrwt>0</asrwt>
<pdfrwt beam="1">  1       21 0.37325965E-01 0.42848772E+03</pdfrwt>
<pdfrwt beam="2">  1       21 0.13057945E+00 0.42848772E+03</pdfrwt>
<totfact> 0.25755690E+03</totfact>
</mgrwt>
</event>
<event>
 4    1  0.4716816E-002  0.6211991E+03  0.7818608E-02  0.9862375E-01
         21   -1    0    0  503  502  0.00000000000E+00  0.00000000000E+00  0.72161492023E+03  0.72161492023E+03  0.00000000000E+00 0.  1.
         21   -1    0    0  501  503 -0.00000000000E+00 -0.00000000000E+00 -0.70096237607E+03  0.70096237607E+03  0.00000000000E+00 0.  1.
    9000007    1    1    2  501    0  0.31066118200E+03 -0.35969155236E+03 -0.33602876228E+03  0.70626037119E+03  0.40000000000E+03 0.  1.
   -9000007    1    1    2    0  502 -0.31066118200E+03  0.35969155236E+03  0.35668130643E+03  0.71631692511E+03  0.40000000000E+03 0.  1.
<mgrwt>
<rscale>  2 0.62119915E+03</rscale>
<asrwt>0</asrwt>
<pdfrwt beam="1">  1       21 0.11101768E+00 0.62119915E+03</pdfrwt>
<pdfrwt beam="2">  1       21 0.10784037E+00 0.62119915E+03</pdfrwt>
<totfact> 0.33953892E+02</totfact>
</mgrwt>
</event>
<event>
 4    1  0.4716816E-002  0.4615965E+03  0.7818608E-02  0.1024319E+00
         21   -1    0    0  501  502  0.00000000000E+00  0.00000000000E+00  0.56170030862E+03  0.56170030862E+03  0.00000000000E+00 0.  1.
         21   -1    0    0  502  503 -0.00000000000E+00 -0.00000000000E+00 -0.40550158210E+03  0.40550158210E+03  0.00000000000E+00 0.  1.
    9000007    1    1    2  501    0 -0.20165540336E+03 -0.11138412713E+03  0.20095157926E+03  0.50344102205E+03  0.40000000000E+03 0.  1.
   -9000007    1    1    2    0  503  0.20165540336E+03  0.11138412713E+03 -0.44752852745E+02  0.46376086867E+03  0.40000000000E+03 0.  1.
<mgrwt>
<rscale>  2 0.46159650E+03</rscale>
<asrwt>0</asrwt>
<pdfrwt beam="1">  1       21 0.86415433E-01 0.46159650E+03</pdfrwt>
<pdfrwt beam="2">  1       21 0.62384858E-01 0.46159650E+03</pdfrwt>
<totfact> 0.23715780E+03</totfact>
</mgrwt>
</event>
<event>
 4    1  0.4716816E-002  0.5593923E+03  0.7818608E-02  0.9993431E-01
         21   -1    0    0  501  502  0.00000000000E+00  0.00000000000E+00  0.52087626490E+03  0.52087626490E+03  0.00000000000E+00 0.  1.
         21   -1    0    0  502  503 -0.00000000000E+00 -0.00000000000E+00 -0.69220939026E+03  0.69220939026E+03  0.00000000000E+00 0. -1.
    9000007    1    1    2  501    0 -0.67373841096E+02  0.38520187348E+03  0.13479954214E+03  0.57540475698E+03  0.40000000000E+03 0.  1.
   -9000007    1    1    2    0  503  0.67373841096E+02 -0.38520187348E+03 -0.30613266750E+03  0.63768089818E+03  0.40000000000E+03 0. -1.
<mgrwt>
<rscale>  2 0.55939228E+03</rscale>
<asrwt>0</asrwt>
<pdfrwt beam="1">  1       21 0.80134810E-01 0.55939228E+03</pdfrwt>
<pdfrwt beam="2">  1       21 0.10649375E+00 0.55939228E+03</pdfrwt>
<totfact> 0.78559961E+02</totfact>
</mgrwt>
</event>
<event>
 4    1  0.4716816E-002  0.4849621E+03  0.7818608E-02  0.1017780E+00
         21   -1    0    0  503  502  0.00000000000E+00  0.00000000000E+00  0.94311366724E+03  0.94311366724E+03  0.00000000000E+00 0.  1.
         21   -1    0    0  501  503 -0.00000000000E+00 -0.00000000000E+00 -0.26375458573E+03  0.26375458573E+03  0.00000000000E+00 0.  1.
    9000007    1    1    2  501    0 -0.14664086371E+03  0.23169964478E+03  0.19877847024E+03  0.52411940293E+03  0.40000000000E+03 0.  1.
   -9000007    1    1    2    0  502  0.14664086371E+03 -0.23169964478E+03  0.48058061127E+03  0.68274885004E+03  0.40000000000E+03 0.  1.
<mgrwt>
<rscale>  2 0.48496213E+03</rscale>
<asrwt>0</asrwt>
<pdfrwt beam="1">  1       21 0.14509441E+00 0.48496213E+03</pdfrwt>
<pdfrwt beam="2">  1       21 0.40577629E-01 0.48496213E+03</pdfrwt>
<totfact> 0.16067593E+03</totfact>
</mgrwt>
</event>
<event>
 4    1  0.4716816E-002  0.4876700E+03  0.7818608E-02  0.1017048E+00
         21   -1    0    0  501  502  0.00000000000E+00  0.00000000000E+00  0.36498477527E+03  0.36498477527E+03  0.00000000000E+00 0.  1.
         21   -1    0    0  502  503 -0.00000000000E+00 -0.00000000000E+00 -0.65846645304E+03  0.65846645304E+03  0.00000000000E+00 0.  1.
    9000007    1    1    2  501    0 -0.27805544520E+03  0.22521251599E+02 -0.19901817281E+03  0.52671649916E+03  0.40000000000E+03 0.  1.
   -9000007    1    1    2    0  503  0.27805544520E+03 -0.22521251599E+02 -0.94463504964E+02  0.49673472915E+03  0.40000000000E+03 0.  1.
<mgrwt>
<rscale>  2 0.48767001E+03</rscale>
<asrwt>0</asrwt>
<pdfrwt beam="1">  1       21 0.56151505E-01 0.48767001E+03</pdfrwt>
<pdfrwt beam="2">  1       21 0.10130253E+00 0.48767001E+03</pdfrwt>
<totfact> 0.20225173E+03</totfact>
</mgrwt>
</event>
<event>
 4    1  0.4716816E-002  0.4945222E+03  0.7818608E-02  0.1015219E+00
         21   -1    0    0  503  502  0.00000000000E+00  0.00000000000E+00  0.37553004567E+03  0.37553004567E+03  0.00000000000E+00 0.  1.
         21   -1    0    0  501  503 -0.00000000000E+00 -0.00000000000E+00 -0.86472514741E+03  0.86472514741E+03  0.00000000000E+00 0.  1.
    9000007    1    1    2  501    0 -0.28260963642E+03 -0.68440099864E+02  0.63541920458E+02  0.49858783531E+03  0.40000000000E+03 0.  1.
   -9000007    1    1    2    0  502  0.28260963642E+03  0.68440099864E+02 -0.55273702220E+03  0.74166735777E+03  0.40000000000E+03 0.  1.
<mgrwt>
<rscale>  2 0.49452225E+03</rscale>
<asrwt>0</asrwt>
<pdfrwt beam="1">  1       21 0.57773854E-01 0.49452225E+03</pdfrwt>
<pdfrwt beam="2">  1       21 0.13303464E+00 0.49452225E+03</pdfrwt>
<totfact> 0.95259501E+02</totfact>
</mgrwt>
</event>
<event>
 4    1  0.4716816E-002  0.4723171E+03  0.7818608E-02  0.1021268E+00
         21   -1    0    0  503  502  0.00000000000E+00  0.00000000000E+00  0.23081632735E+04  0.23081632735E+04  0.00000000000E+00 0.  1.
         21   -1    0    0  501  503 -0.00000000000E+00 -0.00000000000E+00 -0.10539046774E+03  0.10539046774E+03  0.00000000000E+00 0. -1.
    9000007    1    1    2  501    0  0.11157139207E+03  0.22502273157E+03  0.75385037011E+03  0.88959192092E+03  0.40000000000E+03 0. -1.
   -9000007    1    1    2    0  502 -0.11157139207E+03 -0.22502273157E+03  0.14489224356E+04  0.15239618203E+04  0.40000000000E+03 0.  1.
<mgrwt>
<rscale>  2 0.47231706E+03</rscale>
<asrwt>0</asrwt>
<pdfrwt beam="1">  1       21 0.35510200E+00 0.47231706E+03</pdfrwt>
<pdfrwt beam="2">  1       21 0.16213920E-01 0.47231706E+03</pdfrwt>
<totfact> 0.42820427E+02</totfact>
</mgrwt>
</event>
<event>
 4    1  0.4716816E-002  0.5004450E+03  0.7818608E-02  0.1013663E+00
         21   -1    0    0  501  502  0.00000000000E+00  0.00000000000E+00  0.20819481163E+04  0.20819481163E+04  0.00000000000E+00 0.  1.
         21   -1    0    0  502  503 -0.00000000000E+00 -0.00000000000E+00 -0.12455012483E+03  0.12455012483E+03  0.00000000000E+00 0.  1.
    9000007    1    1    2  501    0  0.23818361799E+03 -0.18361303675E+03  0.11826498063E+04  0.12841751234E+04  0.40000000000E+03 0.  1.
   -9000007    1    1    2    0  503 -0.23818361799E+03  0.18361303675E+03  0.77474818520E+03  0.92232311780E+03  0.40000000000E+03 0.  1.
<mgrwt>
<rscale>  2 0.50044499E+03</rscale>
<asrwt>0</asrwt>
<pdfrwt beam="1">  1       21 0.32029969E+00 0.50044499E+03</pdfrwt>
<pdfrwt beam="2">  1       21 0.19161559E-01 0.50044499E+03</pdfrwt>
<totfact> 0.50219955E+02</totfact>
</mgrwt>
</event>
<event>
 4    1  0.4716816E-002  0.4030138E+03  0.7818608E-02  0.1042741E+00
         21   -1    0    0  503  502  0.00000000000E+00  0.00000000000E+00  0.99553411683E+02  0.99553411683E+02  0.00000000000E+00 0.  1.
         21   -1    0    0  501  503 -0.00000000000E+00 -0.00000000000E+00 -0.17343958571E+04  0.17343958571E+04  0.00000000000E+00 0.  1.
    9000007    1    1    2  501    0  0.97278401271E+01  0.48223553359E+02 -0.10407828845E+04  0.11160865355E+04  0.40000000000E+03 0.  1.
   -9000007    1    1    2    0  502 -0.97278401271E+01 -0.48223553359E+02 -0.59405956091E+03  0.71786273331E+03  0.40000000000E+03 0.  1.
<mgrwt>
<rscale>  2 0.40301382E+03</rscale>
<asrwt>0</asrwt>
<pdfrwt beam="1">  1       21 0.15315909E-01 0.40301382E+03</pdfrwt>
<pdfrwt beam="2">  1       21 0.26683015E+00 0.40301382E+03</pdfrwt>
<totfact> 0.16914533E+03</totfact>
</mgrwt>
</event>
<event>
 4    1  0.4716816E-002  0.5113289E+03  0.7818608E-02  0.1010863E+00
         21   -1    0    0  503  502  0.00000000000E+00  0.00000000000E+00  0.20216013989E+03  0.20216013989E+03  0.00000000000E+00 0.  1.
         21   -1    0    0  501  503 -0.00000000000E+00 -0.00000000000E+00 -0.19463928998E+04  0.19463928998E+04  0.00000000000E+00 0. -1.
    9000007    1    1    2  501    0 -0.23866728492E+03  0.21093876912E+03 -0.14943915983E+04  0.15794503747E+04  0.40000000000E+03 0. -1.
   -9000007    1    1    2    0  502  0.23866728492E+03 -0.21093876912E+03 -0.24984116161E+03  0.56910266494E+03  0.40000000000E+03 0.  1.
<mgrwt>
<rscale>  2 0.51132889E+03</rscale>
<asrwt>0</asrwt>
<pdfrwt beam="1">  1       21 0.31101561E-01 0.51132889E+03</pdfrwt>
<pdfrwt beam="2">  1       21 0.29944505E+00 0.51132889E+03</pdfrwt>
<totfact> 0.26004303E+02</totfact>
</mgrwt>
</event>
<event>
 4    1  0.4716816E-002  0.4494361E+03  0.7818608E-02  0.1027890E+00
         21   -1    0    0  501  502  0.00000000000E+00  0.00000000000E+00  0.37128168115E+03  0.37128168115E+03  0.00000000000E+00 0.  1.
         21   -1    0    0  502  503 -0.00000000000E+00 -0.00000000000E+00 -0.61983938265E+03  0.61983938265E+03  0.00000000000E+00 0. -1.
    9000007    1    1    2  501    0 -0.17512754064E+03  0.10641038649E+03  0.49015438579E+02  0.45210102750E+03  0.40000000000E+03 0. -1.
   -9000007    1    1    2    0  503  0.17512754064E+03 -0.10641038649E+03 -0.29757314008E+03  0.53902003631E+03  0.40000000000E+03 0.  1.
<mgrwt>
<rscale>  2 0.44943612E+03</rscale>
<asrwt>0</asrwt>
<pdfrwt beam="1">  1       21 0.57120259E-01 0.44943612E+03</pdfrwt>
<pdfrwt beam="2">  1       21 0.95359904E-01 0.44943612E+03</pdfrwt>
<totfact> 0.22871663E+03</totfact>
</mgrwt>
</event>
<event>
 4    1  0.4716816E-002  0.4029480E+03  0.7818608E-02  0.1042764E+00
         21   -1    0    0  503  502  0.00000000000E+00  0.00000000000E+00  0.25749199350E+03  0.25749199350E+03  0.00000000000E+00 0.  1.
         21   -1    0    0  501  503 -0.00000000000E+00 -0.00000000000E+00 -0.99318851541E+03  0.99318851541E+03  0.00000000000E+00 0.  1.
    9000007    1    1    2  501    0  0.43134052161E+02 -0.22506345422E+02 -0.74570285084E+03  0.84760829620E+03  0.40000000000E+03 0.  1.
   -9000007    1    1    2    0  502 -0.43134052161E+02  0.22506345422E+02  0.10006328932E+02  0.40307221271E+03  0.40000000000E+03 0.  1.
<mgrwt>
<rscale>  2 0.40294799E+03</rscale>
<asrwt>0</asrwt>
<pdfrwt beam="1">  1       21 0.39614153E-01 0.40294799E+03</pdfrwt>
<pdfrwt beam="2">  1       21 0.15279823E+00 0.40294799E+03</pdfrwt>
<totfact> 0.15184702E+03</totfact>
</mgrwt>
</event>
<event>
 4    1  0.4716816E-002  0.6332030E+03  0.7818608E-02  0.9838818E-01
         21   -1    0    0  503  502  0.00000000000E+00  0.00000000000E+00  0.60054109237E+03  0.60054109237E+03  0.00000000000E+00 0.  1.
         21   -1    0    0  501  503 -0.00000000000E+00 -0.00000000000E+00 -0.80265872325E+03  0.80265872325E+03  0.00000000000E+00 0. -1.
    9000007    1    1    2  501    0 -0.28699406243E+03  0.39822159181E+03 -0.38881123646E+03  0.74304791612E+03  0.40000000000E+03 0. -1.
   -9000007    1    1    2    0  502  0.28699406243E+03 -0.39822159181E+03  0.18669360558E+03  0.66015189950E+03  0.40000000000E+03 0.  1.
<mgrwt>
<rscale>  2 0.63320299E+03</rscale>
<asrwt>0</asrwt>
<pdfrwt beam="1">  1       21 0.92390938E-01 0.63320299E+03</pdfrwt>
<pdfrwt beam="2">  1       21 0.12348596E+00 0.63320299E+03</pdfrwt>
<totfact> 0.37680045E+02</totfact>
</mgrwt>
</event>
<event>
 4    1  0.4716816E-002  0.4492106E+03  0.7818608E-02  0.1027958E+00
         21   -1    0    0  503  502  0.00000000000E+00  0.00000000000E+00  0.10458878607E+04  0.10458878607E+04  0.00000000000E+00 0.  1.
         21   -1    0    0  501  503 -0.00000000000E+00 -0.00000000000E+00 -0.19701961807E+03  0.19701961807E+03  0.00000000000E+00 0.  1.
    9000007    1    1    2  501    0 -0.19867604165E+03 -0.48145879952E+02  0.33497240587E+03  0.56035409160E+03  0.40000000000E+03 0. -1.
   -9000007    1    1    2    0  502  0.19867604165E+03  0.48145879952E+02  0.51389583675E+03  0.68255338715E+03  0.40000000000E+03 0. -1.
<mgrwt>
<rscale>  2 0.44921064E+03</rscale>
<asrwt>0</asrwt>
<pdfrwt beam="1">  1       21 0.16090582E+00 0.44921064E+03</pdfrwt>
<pdfrwt beam="2">  1       21 0.30310711E-01 0.44921064E+03</pdfrwt>
<totfact> 0.22163940E+03</totfact>
</mgrwt>
</event>
<event>
 4    1  0.4716816E-002  0.5890936E+03  0.7818608E-02  0.9928295E-01
         21   -1    0    0  501  502  0.00000000000E+00  0.00000000000E+00  0.34752774978E+03  0.34752774978E+03  0.00000000000E+00 0. -1.
         21   -1    0    0  502  503 -0.00000000000E+00 -0.00000000000E+00 -0.11113605354E+04  0.11113605354E+04  0.00000000000E+00 0.  1.
    9000007    1    1    2  501    0  0.83582841924E+02 -0.42431731803E+03 -0.14953670968E+03  0.60777669039E+03  0.40000000000E+03 0. -1.
   -9000007    1    1    2    0  503 -0.83582841924E+02  0.42431731803E+03 -0.61429607594E+03  0.85111159477E+03  0.40000000000E+03 0.  1.
<mgrwt>
<rscale>  2 0.58909361E+03</rscale>
<asrwt>0</asrwt>
<pdfrwt beam="1">  1       21 0.53465807E-01 0.58909361E+03</pdfrwt>
<pdfrwt beam="2">  1       21 0.17097855E+00 0.58909361E+03</pdfrwt>
<totfact> 0.54686684E+02</totfact>
</mgrwt>
</event>
<event>
 4    1  0.4716816E-002  0.4046179E+03  0.7818608E-02  0.1042192E+00
         21   -1    0    0  501  502  0.00000000000E+00  0.00000000000E+00  0.17698282589E+04  0.17698282589E+04  0.00000000000E+00 0. -1.
         21   -1    0    0  502  503 -0.00000000000E+00 -0.00000000000E+00 -0.10309352018E+03  0.10309352018E+03  0.00000000000E+00 0. -1.
    9000007    1    1    2  501    0  0.10663495356E+02  0.60016172605E+02  0.11335035711E+04  0.12035555645E+04  0.40000000000E+03 0. -1.
   -9000007    1    1    2    0  503 -0.10663495356E+02 -0.60016172605E+02  0.53323116761E+03  0.66936621458E+03  0.40000000000E+03 0. -1.
<mgrwt>
<rscale>  2 0.40461791E+03</rscale>
<asrwt>0</asrwt>
<pdfrwt beam="1">  1       21 0.27228125E+00 0.40461791E+03</pdfrwt>
<pdfrwt beam="2">  1       21 0.15860543E-01 0.40461791E+03</pdfrwt>
<totfact> 0.14683746E+03</totfact>
</mgrwt>
</event>
<event>
 4    1  0.4716816E-002  0.4127286E+03  0.7818608E-02  0.1039459E+00
         21   -1    0    0  501  502  0.00000000000E+00  0.00000000000E+00  0.50588499709E+03  0.50588499709E+03  0.00000000000E+00 0.  1.
         21   -1    0    0  502  503 -0.00000000000E+00 -0.00000000000E+00 -0.39776167330E+03  0.39776167330E+03  0.00000000000E+00 0.  1.
    9000007    1    1    2  501    0  0.94086898711E+02  0.38633666531E+02 -0.12292768996E+03  0.43064616759E+03  0.40000000000E+03 0.  1.
   -9000007    1    1    2    0  503 -0.94086898711E+02 -0.38633666531E+02  0.23105101374E+03  0.47300050280E+03  0.40000000000E+03 0.  1.
<mgrwt>
<rscale>  2 0.41272861E+03</rscale>
<asrwt>0</asrwt>
<pdfrwt beam="1">  1       21 0.77828461E-01 0.41272861E+03</pdfrwt>
<pdfrwt beam="2">  1       21 0.61194103E-01 0.41272861E+03</pdfrwt>
<totfact> 0.32119651E+03</totfact>
</mgrwt>
</event>
<event>
 4    1  0.4716816E-002  0.5109307E+03  0.7818608E-02  0.1010965E+00
         21   -1    0    0  501  502  0.00000000000E+00  0.00000000000E+00  0.67432366983E+03  0.67432366983E+03  0.00000000000E+00 0.  1.
         21   -1    0    0  502  503 -0.00000000000E+00 -0.00000000000E+00 -0.46928962835E+03  0.46928962835E+03  0.00000000000E+00 0.  1.
    9000007    1    1    2  501    0  0.24176241016E+03 -0.20640032989E+03  0.34177197928E+03  0.61470175286E+03  0.40000000000E+03 0.  1.
   -9000007    1    1    2    0  503 -0.24176241016E+03  0.20640032989E+03 -0.13673793780E+03  0.52891154533E+03  0.40000000000E+03 0.  1.
<mgrwt>
<rscale>  2 0.51093068E+03</rscale>
<asrwt>0</asrwt>
<pdfrwt beam="1">  1       21 0.10374210E+00 0.51093068E+03</pdfrwt>
<pdfrwt beam="2">  1       21 0.72198405E-01 0.51093068E+03</pdfrwt>
<totfact> 0.10829790E+03</totfact>
</mgrwt>
</event>
<event>
 4    1  0.4716816E-002  0.5301015E+03  0.7818608E-02  0.1006208E+00
         21   -1    0    0  503  502  0.00000000000E+00  0.00000000000E+00  0.11177028459E+04  0.11177028459E+04  0.00000000000E+00 0.  1.
         21   -1    0    0  501  503 -0.00000000000E+00 -0.00000000000E+00 -0.31850017877E+03  0.31850017877E+03  0.00000000000E+00 0.  1.
    9000007    1    1    2  501    0 -0.33776186533E+03 -0.83213783691E+02  0.70034668817E+02  0.53470783266E+03  0.40000000000E+03 0.  1.
   -9000007    1    1    2    0  502  0.33776186533E+03  0.83213783691E+02  0.72916799834E+03  0.90149519204E+03  0.40000000000E+03 0.  1.
<mgrwt>
<rscale>  2 0.53010151E+03</rscale>
<asrwt>0</asrwt>
<pdfrwt beam="1">  1       21 0.17195428E+00 0.53010151E+03</pdfrwt>
<pdfrwt beam="2">  1       21 0.49000028E-01 0.53010151E+03</pdfrwt>
<totfact> 0.66293380E+02</totfact>
</mgrwt>
</event>
<event>
 4    1  0.4716816E-002  0.5125162E+03  0.7818608E-02  0.1010563E+00
         21   -1    0    0  501  502  0.00000000000E+00  0.00000000000E+00  0.18689185678E+04  0.18689185678E+04  0.00000000000E+00 0. -1.
         21   -1    0    0  502  503 -0.00000000000E+00 -0.00000000000E+00 -0.16859588543E+03  0.16859588543E+03  0.00000000000E+00 0. -1.
    9000007    1    1    2  501    0  0.30861466819E+03 -0.86196358972E+02  0.12656862236E+04  0.13655161817E+04  0.40000000000E+03 0. -1.
   -9000007    1    1    2    0  503 -0.30861466819E+03  0.86196358972E+02  0.43463645874E+03  0.67199827156E+03  0.40000000000E+03 0. -1.
<mgrwt>
<rscale>  2 0.51251617E+03</rscale>
<asrwt>0</asrwt>
<pdfrwt beam="1">  1       21 0.28752592E+00 0.51251617E+03</pdfrwt>
<pdfrwt beam="2">  1       21 0.25937830E-01 0.51251617E+03</pdfrwt>
<totfact> 0.43952400E+02</totfact>
</mgrwt>
</event>
<event>
 4    1  0.4716816E-002  0.4656078E+03  0.7818608E-02  0.1023167E+00
         21   -1    0    0  501  502  0.00000000000E+00  0.00000000000E+00  0.28415629562E+03  0.28415629562E+03  0.00000000000E+00 0. -1.
         21   -1    0    0  502  503 -0.00000000000E+00 -0.00000000000E+00 -0.78791797839E+03  0.78791797839E+03  0.00000000000E+00 0. -1.
    9000007    1    1    2  501    0  0.23653707091E+03 -0.28997096693E+02 -0.34734552112E+03  0.58089545408E+03  0.40000000000E+03 0. -1.
   -9000007    1    1    2    0  503 -0.23653707091E+03  0.28997096693E+02 -0.15641616165E+03  0.49117881994E+03  0.40000000000E+03 0. -1.
<mgrwt>
<rscale>  2 0.46560779E+03</rscale>
<asrwt>0</asrwt>
<pdfrwt beam="1">  1       21 0.43716353E-01 0.46560779E+03</pdfrwt>
<pdfrwt beam="2">  1       21 0.12121815E+00 0.46560779E+03</pdfrwt>
<totfact> 0.22200661E+03</totfact>
</mgrwt>
</event>
<event>
 4    1  0.4716816E-002  0.7862394E+03  0.7818608E-02  0.9580151E-01
         21   -1    0    0  501  502  0.00000000000E+00  0.00000000000E+00  0.14785152806E+04  0.14785152806E+04  0.00000000000E+00 0.  1.
         21   -1    0    0  502  503 -0.00000000000E+00 -0.00000000000E+00 -0.47756043698E+03  0.47756043698E+03  0.00000000000E+00 0. -1.
    9000007    1    1    2  501    0  0.66241670332E+03  0.13919977594E+03  0.84557557189E+03  0.11546300335E+04  0.40000000000E+03 0. -1.
   -9000007    1    1    2    0  503 -0.66241670332E+03 -0.13919977594E+03  0.15537927173E+03  0.80144568409E+03  0.40000000000E+03 0.  1.
<mgrwt>
<rscale>  2 0.78623945E+03</rscale>
<asrwt>0</asrwt>
<pdfrwt beam="1">  1       21 0.22746389E+00 0.78623945E+03</pdfrwt>
<pdfrwt beam="2">  1       21 0.73470837E-01 0.78623945E+03</pdfrwt>
<totfact> 0.10375042E+02</totfact>
</mgrwt>
</event>
<event>
 4    1  0.4716816E-002  0.5397152E+03  0.7818608E-02  0.1003903E+00
         21   -1    0    0  503  502  0.00000000000E+00  0.00000000000E+00  0.18248697383E+03  0.18248697383E+03  0.00000000000E+00 0.  1.
         21   -1    0    0  501  503 -0.00000000000E+00 -0.00000000000E+00 -0.18749942296E+04  0.18749942296E+04  0.00000000000E+00 0.  1.
    9000007    1    1    2  501    0  0.38838127102E+02  0.36025566674E+03 -0.12429138183E+04  0.13550377505E+04  0.40000000000E+03 0.  1.
   -9000007    1    1    2    0  502 -0.38838127102E+02 -0.36025566674E+03 -0.44959343741E+03  0.70244345289E+03  0.40000000000E+03 0.  1.
<mgrwt>
<rscale>  2 0.53971524E+03</rscale>
<asrwt>0</asrwt>
<pdfrwt beam="1">  1       21 0.28074921E-01 0.53971524E+03</pdfrwt>
<pdfrwt beam="2">  1       21 0.28846064E+00 0.53971524E+03</pdfrwt>
<totfact> 0.36644454E+02</totfact>
</mgrwt>
</event>
<event>
 4    1  0.4716816E-002  0.4301035E+03  0.7818608E-02  0.1033827E+00
         21   -1    0    0  501  502  0.00000000000E+00  0.00000000000E+00  0.38400528497E+03  0.38400528497E+03  0.00000000000E+00 0. -1.
         21   -1    0    0  502  503 -0.00000000000E+00 -0.00000000000E+00 -0.48411856790E+03  0.48411856790E+03  0.00000000000E+00 0. -1.
    9000007    1    1    2  501    0  0.10385796892E+02  0.15773770479E+03 -0.19603833571E+02  0.43055006512E+03  0.40000000000E+03 0. -1.
   -9000007    1    1    2    0  503 -0.10385796892E+02 -0.15773770479E+03 -0.80509449361E+02  0.43757378775E+03  0.40000000000E+03 0. -1.
<mgrwt>
<rscale>  2 0.43010353E+03</rscale>
<asrwt>0</asrwt>
<pdfrwt beam="1">  1       21 0.59077736E-01 0.43010353E+03</pdfrwt>
<pdfrwt beam="2">  1       21 0.74479780E-01 0.43010353E+03</pdfrwt>
<totfact> 0.38114259E+03</totfact>
</mgrwt>
</event>
<event>
 4    1  0.4716816E-002  0.4850780E+03  0.7818608E-02  0.1017749E+00
         21   -1    0    0  501  502  0.00000000000E+00  0.00000000000E+00  0.83478192148E+03  0.83478192148E+03  0.00000000000E+00 0.  1.
         21   -1    0    0  502  503 -0.00000000000E+00 -0.00000000000E+00 -0.29141640183E+03  0.29141640183E+03  0.00000000000E+00 0. -1.
    9000007    1    1    2  501    0 -0.31120292793E+02  0.27263931182E+03  0.37359562848E+03  0.61226984296E+03  0.40000000000E+03 0.  1.
   -9000007    1    1    2    0  503  0.31120292793E+02 -0.27263931182E+03  0.16976989117E+03  0.51392848036E+03  0.40000000000E+03 0. -1.
<mgrwt>
<rscale>  2 0.48507800E+03</rscale>
<asrwt>0</asrwt>
<pdfrwt beam="1">  1       21 0.12842799E+00 0.48507800E+03</pdfrwt>
<pdfrwt beam="2">  1       21 0.44833293E-01 0.48507800E+03</pdfrwt>
<totfact> 0.18019065E+03</totfact>
</mgrwt>
</event>
<event>
 4    1  0.4716816E-002  0.5857764E+03  0.7818608E-02  0.9935363E-01
         21   -1    0    0  501  502  0.00000000000E+00  0.00000000000E+00  0.22128152637E+04  0.22128152637E+04  0.00000000000E+00 0.  1.
         21   -1    0    0  502  503 -0.00000000000E+00 -0.00000000000E+00 -0.20155102129E+03  0.20155102129E+03  0.00000000000E+00 0.  1.
    9000007    1    1    2  501    0  0.37559362433E+03 -0.20509376491E+03  0.15853728018E+04  0.16901304517E+04  0.40000000000E+03 0.  1.
   -9000007    1    1    2    0  503 -0.37559362433E+03  0.20509376491E+03  0.42589144060E+03  0.72423583329E+03  0.40000000000E+03 0.  1.
<mgrwt>
<rscale>  2 0.58577643E+03</rscale>
<asrwt>0</asrwt>
<pdfrwt beam="1">  1       21 0.34043310E+00 0.58577643E+03</pdfrwt>
<pdfrwt beam="2">  1       21 0.31007851E-01 0.58577643E+03</pdfrwt>
<totfact> 0.14176149E+02</totfact>
</mgrwt>
</event>
<event>
 4    1  0.4716816E-002  0.4172264E+03  0.7818608E-02  0.1037973E+00
         21   -1    0    0  503  502  0.00000000000E+00  0.00000000000E+00  0.14582077925E+04  0.14582077925E+04  0.00000000000E+00 0. -1.
         21   -1    0    0  501  503 -0.00000000000E+00 -0.00000000000E+00 -0.12169766651E+03  0.12169766651E+03  0.00000000000E+00 0. -1.
    9000007    1    1    2  501    0  0.82259204837E+02  0.85505947865E+02  0.55919185389E+03  0.69769146000E+03  0.40000000000E+03 0. -1.
   -9000007    1    1    2    0  502 -0.82259204837E+02 -0.85505947865E+02  0.77731827206E+03  0.88221399897E+03  0.40000000000E+03 0. -1.
<mgrwt>
<rscale>  2 0.41722637E+03</rscale>
<asrwt>0</asrwt>
<pdfrwt beam="1">  1       21 0.22433965E+00 0.41722637E+03</pdfrwt>
<pdfrwt beam="2">  1       21 0.18722719E-01 0.41722637E+03</pdfrwt>
<totfact> 0.21059337E+03</totfact>
</mgrwt>
</event>
<event>
 4    1  0.4716816E-002  0.5074127E+03  0.7818608E-02  0.1011862E+00
         21   -1    0    0  501  502  0.00000000000E+00  0.00000000000E+00  0.97749205661E+03  0.97749205661E+03  0.00000000000E+00 0.  1.
         21   -1    0    0  502  503 -0.00000000000E+00 -0.00000000000E+00 -0.26892097676E+03  0.26892097676E+03  0.00000000000E+00 0. -1.
    9000007    1    1    2  501    0 -0.17591848480E+03  0.25791541614E+03  0.44361150958E+03  0.67398727481E+03  0.40000000000E+03 0.  1.
   -9000007    1    1    2    0  503  0.17591848480E+03 -0.25791541614E+03  0.26495957027E+03  0.57242575855E+03  0.40000000000E+03 0. -1.
<mgrwt>
<rscale>  2 0.50741273E+03</rscale>
<asrwt>0</asrwt>
<pdfrwt beam="1">  1       21 0.15038339E+00 0.50741273E+03</pdfrwt>
<pdfrwt beam="2">  1       21 0.41372459E-01 0.50741273E+03</pdfrwt>
<totfact> 0.13891410E+03</totfact>
</mgrwt>
</event>
<event>
 4    1  0.4716816E-002  0.4224375E+03  0.7818608E-02  0.1036276E+00
         21   -1    0    0  503  502  0.00000000000E+00  0.00000000000E+00  0.22796512215E+03  0.22796512215E+03  0.00000000000E+00 0.  1.
         21   -1    0    0  501  503 -0.00000000000E+00 -0.00000000000E+00 -0.10019935488E+04  0.10019935488E+04  0.00000000000E+00 0.  1.
    9000007    1    1    2  501    0 -0.11260524679E+03 -0.75983337890E+02 -0.67464270143E+03  0.79598755256E+03  0.40000000000E+03 0. -1.
   -9000007    1    1    2    0  502  0.11260524679E+03  0.75983337890E+02 -0.99385725256E+02  0.43397111842E+03  0.40000000000E+03 0. -1.
<mgrwt>
<rscale>  2 0.42243746E+03</rscale>
<asrwt>0</asrwt>
<pdfrwt beam="1">  1       21 0.35071557E-01 0.42243746E+03</pdfrwt>
<pdfrwt beam="2">  1       21 0.15415285E+00 0.42243746E+03</pdfrwt>
<totfact> 0.18832164E+03</totfact>
</mgrwt>
</event>
<event>
 4    1  0.4716816E-002  0.4634323E+03  0.7818608E-02  0.1023790E+00
         21   -1    0    0  503  502  0.00000000000E+00  0.00000000000E+00  0.34143218534E+03  0.34143218534E+03  0.00000000000E+00 0.  1.
         21   -1    0    0  501  503 -0.00000000000E+00 -0.00000000000E+00 -0.82883165637E+03  0.82883165637E+03  0.00000000000E+00 0.  1.
    9000007    1    1    2  501    0  0.20840610188E+03 -0.10647249490E+03  0.43593391012E+02  0.46547811894E+03  0.40000000000E+03 0.  1.
   -9000007    1    1    2    0  502 -0.20840610188E+03  0.10647249490E+03 -0.53099286205E+03  0.70478572277E+03  0.40000000000E+03 0.  1.
<mgrwt>
<rscale>  2 0.46343230E+03</rscale>
<asrwt>0</asrwt>
<pdfrwt beam="1">  1       21 0.52528030E-01 0.46343230E+03</pdfrwt>
<pdfrwt beam="2">  1       21 0.12751256E+00 0.46343230E+03</pdfrwt>
<totfact> 0.13227723E+03</totfact>
</mgrwt>
</event>
<event>
 4    1  0.4716816E-002  0.4338222E+03  0.7818608E-02  0.1032659E+00
         21   -1    0    0  503  502  0.00000000000E+00  0.00000000000E+00  0.99696749064E+03  0.99696749064E+03  0.00000000000E+00 0. -1.
         21   -1    0    0  501  503 -0.00000000000E+00 -0.00000000000E+00 -0.25549617581E+03  0.25549617581E+03  0.00000000000E+00 0. -1.
    9000007    1    1    2  501    0  0.14919329188E+02 -0.16726958919E+03  0.69075594675E+03  0.81568712128E+03  0.40000000000E+03 0. -1.
   -9000007    1    1    2    0  502 -0.14919329188E+02  0.16726958919E+03  0.50715368080E+02  0.43677654517E+03  0.40000000000E+03 0. -1.
<mgrwt>
<rscale>  2 0.43382220E+03</rscale>
<asrwt>0</asrwt>
<pdfrwt beam="1">  1       21 0.15337961E+00 0.43382220E+03</pdfrwt>
<pdfrwt beam="2">  1       21 0.39307104E-01 0.43382220E+03</pdfrwt>
<totfact> 0.15062906E+03</totfact>
</mgrwt>
</event>
<event>
 4    1  0.4716816E-002  0.5026912E+03  0.7818608E-02  0.1013079E+00
         21   -1    0    0  503  502  0.00000000000E+00  0.00000000000E+00  0.28358017901E+03  0.28358017901E+03  0.00000000000E+00 0.  1.
         21   -1    0    0  501  503 -0.00000000000E+00 -0.00000000000E+00 -0.90174227623E+03  0.90174227623E+03  0.00000000000E+00 0.  1.
    9000007    1    1    2  501    0 -0.27863902265E+03  0.12271424999E+03 -0.24469844078E+03  0.55908480485E+03  0.40000000000E+03 0.  1.
   -9000007    1    1    2    0  502  0.27863902265E+03 -0.12271424999E+03 -0.37346365644E+03  0.62623765040E+03  0.40000000000E+03 0.  1.
<mgrwt>
<rscale>  2 0.50269125E+03</rscale>
<asrwt>0</asrwt>
<pdfrwt beam="1">  1       21 0.43627721E-01 0.50269125E+03</pdfrwt>
<pdfrwt beam="2">  1       21 0.13872958E+00 0.50269125E+03</pdfrwt>
<totfact> 0.15484906E+03</totfact>
</mgrwt>
</event>
<event>
 4    1  0.4716816E-002  0.4077415E+03  0.7818608E-02  0.1041132E+00
         21   -1    0    0  501  502  0.00000000000E+00  0.00000000000E+00  0.31183425553E+03  0.31183425553E+03  0.00000000000E+00 0.  1.
         21   -1    0    0  502  503 -0.00000000000E+00 -0.00000000000E+00 -0.53505499384E+03  0.53505499384E+03  0.00000000000E+00 0.  1.
    9000007    1    1    2  501    0  0.29534321548E+02 -0.73354494730E+02 -0.86316814146E+02  0.41677781905E+03  0.40000000000E+03 0.  1.
   -9000007    1    1    2    0  503 -0.29534321548E+02  0.73354494730E+02 -0.13690392417E+03  0.43011143033E+03  0.40000000000E+03 0.  1.
<mgrwt>
<rscale>  2 0.40774153E+03</rscale>
<asrwt>0</asrwt>
<pdfrwt beam="1">  1       21 0.47974501E-01 0.40774153E+03</pdfrwt>
<pdfrwt beam="2">  1       21 0.82316152E-01 0.40774153E+03</pdfrwt>
<totfact> 0.47726632E+03</totfact>
</mgrwt>
</event>
<event>
 4    1  0.4716816E-002  0.4666729E+03  0.7818608E-02  0.1022863E+00
         21   -1    0    0  501  502  0.00000000000E+00  0.00000000000E+00  0.25141123831E+03  0.25141123831E+03  0.00000000000E+00 0. -1.
         21   -1    0    0  502  503 -0.00000000000E+00 -0.00000000000E+00 -0.90065051128E+03  0.90065051128E+03  0.00000000000E+00 0. -1.
    9000007    1    1    2  501    0  0.28550058657E+02 -0.23868065850E+03 -0.43720599579E+03  0.63947841664E+03  0.40000000000E+03 0. -1.
   -9000007    1    1    2    0  503 -0.28550058657E+02  0.23868065850E+03 -0.21203327717E+03  0.51258333295E+03  0.40000000000E+03 0. -1.
<mgrwt>
<rscale>  2 0.46667286E+03</rscale>
<asrwt>0</asrwt>
<pdfrwt beam="1">  1       21 0.38678652E-01 0.46667286E+03</pdfrwt>
<pdfrwt beam="2">  1       21 0.13856162E+00 0.46667286E+03</pdfrwt>
<totfact> 0.20201475E+03</totfact>
</mgrwt>
</event>
<event>
 4    1  0.4716816E-002  0.4119885E+03  0.7818608E-02  0.1039706E+00
         21   -1    0    0  503  502  0.00000000000E+00  0.00000000000E+00  0.46870988620E+03  0.46870988620E+03  0.00000000000E+00 0. -1.
         21   -1    0    0  501  503 -0.00000000000E+00 -0.00000000000E+00 -0.49926709893E+03  0.49926709893E+03  0.00000000000E+00 0. -1.
    9000007    1    1    2  501    0  0.97933058253E+02  0.11986046177E+02  0.23837666107E+03  0.47598107288E+03  0.40000000000E+03 0. -1.
   -9000007    1    1    2    0  502 -0.97933058253E+02 -0.11986046177E+02 -0.26893387380E+03  0.49199591226E+03  0.40000000000E+03 0. -1.
<mgrwt>
<rscale>  2 0.41198853E+03</rscale>
<asrwt>0</asrwt>
<pdfrwt beam="1">  1       21 0.72109214E-01 0.41198853E+03</pdfrwt>
<pdfrwt beam="2">  1       21 0.76810322E-01 0.41198853E+03</pdfrwt>
<totfact> 0.22975961E+03</totfact>
</mgrwt>
</event>
<event>
 4    1  0.4716816E-002  0.4771251E+03  0.7818608E-02  0.1019928E+00
         21   -1    0    0  503  502  0.00000000000E+00  0.00000000000E+00  0.30978407731E+03  0.30978407731E+03  0.00000000000E+00 0.  1.
         21   -1    0    0  501  503 -0.00000000000E+00 -0.00000000000E+00 -0.74666042382E+03  0.74666042382E+03  0.00000000000E+00 0. -1.
    9000007    1    1    2  501    0 -0.10271206474E+03  0.23895316790E+03 -0.15203684888E+03  0.50076300593E+03  0.40000000000E+03 0.  1.
   -9000007    1    1    2    0  502  0.10271206474E+03 -0.23895316790E+03 -0.28483949763E+03  0.55568149519E+03  0.40000000000E+03 0. -1.
<mgrwt>
<rscale>  2 0.47712512E+03</rscale>
<asrwt>0</asrwt>
<pdfrwt beam="1">  1       21 0.47659089E-01 0.47712512E+03</pdfrwt>
<pdfrwt beam="2">  1       21 0.11487083E+00 0.47712512E+03</pdfrwt>
<totfact> 0.21125176E+03</totfact>
</mgrwt>
</event>
<event>
 4    1  0.4716816E-002  0.4544459E+03  0.7818608E-02  0.1026404E+00
         21   -1    0    0  501  502  0.00000000000E+00  0.00000000000E+00  0.44789116871E+03  0.44789116871E+03  0.00000000000E+00 0. -1.
         21   -1    0    0  502  503 -0.00000000000E+00 -0.00000000000E+00 -0.61162202427E+03  0.61162202427E+03  0.00000000000E+00 0. -1.
    9000007    1    1    2  501    0 -0.68729186347E+01 -0.21557801606E+03  0.18094323192E+03  0.48914371221E+03  0.40000000000E+03 0. -1.
   -9000007    1    1    2    0  503  0.68729186347E+01  0.21557801606E+03 -0.34467408747E+03  0.57036948077E+03  0.40000000000E+03 0. -1.
<mgrwt>
<rscale>  2 0.45444595E+03</rscale>
<asrwt>0</asrwt>
<pdfrwt beam="1">  1       21 0.68906333E-01 0.45444595E+03</pdfrwt>
<pdfrwt beam="2">  1       21 0.94095696E-01 0.45444595E+03</pdfrwt>
<totfact> 0.15573355E+03</totfact>
</mgrwt>
</event>
<event>
 4    1  0.4716816E-002  0.4221059E+03  0.7818608E-02  0.1036383E+00
         21   -1    0    0  503  502  0.00000000000E+00  0.00000000000E+00  0.76117456401E+03  0.76117456401E+03  0.00000000000E+00 0. -1.
         21   -1    0    0  501  503 -0.00000000000E+00 -0.00000000000E+00 -0.32345663101E+03  0.32345663101E+03  0.00000000000E+00 0. -1.
    9000007    1    1    2  501    0  0.62912220872E+02  0.11922857034E+03  0.50393685448E+03  0.65736272546E+03  0.40000000000E+03 0. -1.
   -9000007    1    1    2    0  502 -0.62912220872E+02 -0.11922857034E+03 -0.66218921476E+02  0.42726846956E+03  0.40000000000E+03 0. -1.
<mgrwt>
<rscale>  2 0.42210591E+03</rscale>
<asrwt>0</asrwt>
<pdfrwt beam="1">  1       21 0.11710378E+00 0.42210591E+03</pdfrwt>
<pdfrwt beam="2">  1       21 0.49762559E-01 0.42210591E+03</pdfrwt>
<totfact> 0.18761710E+03</totfact>
</mgrwt>
</event>
<event>
 4    1  0.4716816E-002  0.6518139E+03  0.7818608E-02  0.9803382E-01
         21   -1    0    0  503  502  0.00000000000E+00  0.00000000000E+00  0.13610395179E+04  0.13610395179E+04  0.00000000000E+00 0.  1.
         21   -1    0    0  501  503 -0.00000000000E+00 -0.00000000000E+00 -0.34574304892E+03  0.34574304892E+03  0.00000000000E+00 0. -1.
    9000007    1    1    2  501    0 -0.50336032698E+03  0.10719009609E+03  0.77361976207E+03  0.10116070738E+04  0.40000000000E+03 0.  1.
   -9000007    1    1    2    0  502  0.50336032698E+03 -0.10719009609E+03  0.24167670692E+03  0.69517549305E+03  0.40000000000E+03 0. -1.
<mgrwt>
<rscale>  2 0.65181388E+03</rscale>
<asrwt>0</asrwt>
<pdfrwt beam="1">  1       21 0.20939069E+00 0.65181388E+03</pdfrwt>
<pdfrwt beam="2">  1       21 0.53191239E-01 0.65181388E+03</pdfrwt>
<totfact> 0.29277773E+02</totfact>
</mgrwt>
</event>
<event>
 4    1  0.4716816E-002  0.4298718E+03  0.7818608E-02  0.1033900E+00
         21   -1    0    0  501  502  0.00000000000E+00  0.00000000000E+00  0.31845573985E+04  0.31845573985E+04  0.00000000000E+00 0.  1.
         21   -1    0    0  502  503 -0.00000000000E+00 -0.00000000000E+00 -0.63087291023E+02  0.63087291023E+02  0.00000000000E+00 0.  1.
    9000007    1    1    2  501    0  0.66816107724E+01 -0.15730573450E+03  0.11008354269E+04  0.11817903262E+04  0.40000000000E+03 0.  1.
   -9000007    1    1    2    0  503 -0.66816107724E+01  0.15730573450E+03  0.20206346806E+04  0.20658543633E+04  0.40000000000E+03 0.  1.
<mgrwt>
<rscale>  2 0.42987177E+03</rscale>
<asrwt>0</asrwt>
<pdfrwt beam="1">  1       21 0.48993178E+00 0.42987177E+03</pdfrwt>
<pdfrwt beam="2">  1       21 0.97057395E-02 0.42987177E+03</pdfrwt>
<totfact> 0.14582074E+02</totfact>
</mgrwt>
</event>
<event>
 4    1  0.4716816E-002  0.8114166E+03  0.7818608E-02  0.9543637E-01
         21   -1    0    0  503  502  0.00000000000E+00  0.00000000000E+00  0.10961500622E+04  0.10961500622E+04  0.00000000000E+00 0. -1.
         21   -1    0    0  501  503 -0.00000000000E+00 -0.00000000000E+00 -0.65784164770E+03  0.65784164770E+03  0.00000000000E+00 0. -1.
    9000007    1    1    2  501    0 -0.33097783898E+03  0.62357885733E+03  0.47775068554E+03  0.94161703401E+03  0.40000000000E+03 0. -1.
   -9000007    1    1    2    0  502  0.33097783898E+03 -0.62357885733E+03 -0.39442271080E+02  0.81237467585E+03  0.40000000000E+03 0. -1.
<mgrwt>
<rscale>  2 0.81141661E+03</rscale>
<asrwt>0</asrwt>
<pdfrwt beam="1">  1       21 0.16863847E+00 0.81141661E+03</pdfrwt>
<pdfrwt beam="2">  1       21 0.10120641E+00 0.81141661E+03</pdfrwt>
<totfact> 0.12213035E+02</totfact>
</mgrwt>
</event>
<event>
 4    1  0.4716816E-002  0.4522423E+03  0.7818608E-02  0.1027055E+00
         21   -1    0    0  503  502  0.00000000000E+00  0.00000000000E+00  0.13451615214E+04  0.13451615214E+04  0.00000000000E+00 0. -1.
         21   -1    0    0  501  503 -0.00000000000E+00 -0.00000000000E+00 -0.23022404301E+03  0.23022404301E+03  0.00000000000E+00 0.  1.
    9000007    1    1    2  501    0  0.19985596375E+03 -0.67681048736E+02  0.98449662363E+02  0.46283416752E+03  0.40000000000E+03 0.  1.
   -9000007    1    1    2    0  502 -0.19985596375E+03  0.67681048736E+02  0.10164878160E+04  0.11125513969E+04  0.40000000000E+03 0. -1.
<mgrwt>
<rscale>  2 0.45224234E+03</rscale>
<asrwt>0</asrwt>
<pdfrwt beam="1">  1       21 0.20694792E+00 0.45224234E+03</pdfrwt>
<pdfrwt beam="2">  1       21 0.35419084E-01 0.45224234E+03</pdfrwt>
<totfact> 0.77159272E+02</totfact>
</mgrwt>
</event>
<event>
 4    1  0.4716816E-002  0.5887039E+03  0.7818608E-02  0.9929123E-01
         21   -1    0    0  503  502  0.00000000000E+00  0.00000000000E+00  0.39680050659E+03  0.39680050659E+03  0.00000000000E+00 0.  1.
         21   -1    0    0  501  503 -0.00000000000E+00 -0.00000000000E+00 -0.89922596432E+03  0.89922596432E+03  0.00000000000E+00 0. -1.
    9000007    1    1    2  501    0 -0.43039766352E+03 -0.36470642547E+02 -0.14142954083E+03  0.60545402101E+03  0.40000000000E+03 0. -1.
   -9000007    1    1    2    0  502  0.43039766352E+03  0.36470642547E+02 -0.36099591690E+03  0.69057244989E+03  0.40000000000E+03 0.  1.
<mgrwt>
<rscale>  2 0.58870388E+03</rscale>
<asrwt>0</asrwt>
<pdfrwt beam="1">  1       21 0.61046233E-01 0.58870388E+03</pdfrwt>
<pdfrwt beam="2">  1       21 0.13834245E+00 0.58870388E+03</pdfrwt>
<totfact> 0.73621386E+02</totfact>
</mgrwt>
</event>
<event>
 4    1  0.4716816E-002  0.4940761E+03  0.7818608E-02  0.1015337E+00
         21   -1    0    0  501  502  0.00000000000E+00  0.00000000000E+00  0.10877384328E+03  0.10877384328E+03  0.00000000000E+00 0.  1.
         21   -1    0    0  502  503 -0.00000000000E+00 -0.00000000000E+00 -0.25140520146E+04  0.25140520146E+04  0.00000000000E+00 0.  1.
    9000007    1    1    2  501    0 -0.16753200379E+03 -0.23673661193E+03 -0.16322825747E+04  0.17054200654E+04  0.40000000000E+03 0.  1.
   -9000007    1    1    2    0  503  0.16753200379E+03  0.23673661193E+03 -0.77299559656E+03  0.91740579245E+03  0.40000000000E+03 0.  1.
<mgrwt>
<rscale>  2 0.49407610E+03</rscale>
<asrwt>0</asrwt>
<pdfrwt beam="1">  1       21 0.16734440E-01 0.49407610E+03</pdfrwt>
<pdfrwt beam="2">  1       21 0.38677717E+00 0.49407610E+03</pdfrwt>
<totfact> 0.25235558E+02</totfact>
</mgrwt>
</event>
<event>
 4    1  0.4716816E-002  0.4942219E+03  0.7818608E-02  0.1015298E+00
         21   -1    0    0  503  502  0.00000000000E+00  0.00000000000E+00  0.37353037505E+03  0.37353037505E+03  0.00000000000E+00 0.  1.
         21   -1    0    0  501  503 -0.00000000000E+00 -0.00000000000E+00 -0.69473034306E+03  0.69473034306E+03  0.00000000000E+00 0. -1.
    9000007    1    1    2  501    0  0.23587879747E+03  0.16916394600E+03 -0.31127508405E+02  0.49520114045E+03  0.40000000000E+03 0.  1.
   -9000007    1    1    2    0  502 -0.23587879747E+03 -0.16916394600E+03 -0.29007245960E+03  0.57305957766E+03  0.40000000000E+03 0. -1.
<mgrwt>
<rscale>  2 0.49422186E+03</rscale>
<asrwt>0</asrwt>
<pdfrwt beam="1">  1       21 0.57466213E-01 0.49422186E+03</pdfrwt>
<pdfrwt beam="2">  1       21 0.10688159E+00 0.49422186E+03</pdfrwt>
<totfact> 0.16815021E+03</totfact>
</mgrwt>
</event>
<event>
 4    1  0.4716816E-002  0.4796089E+03  0.7818608E-02  0.1019243E+00
         21   -1    0    0  501  502  0.00000000000E+00  0.00000000000E+00  0.53748720784E+03  0.53748720784E+03  0.00000000000E+00 0.  1.
         21   -1    0    0  502  503 -0.00000000000E+00 -0.00000000000E+00 -0.49718148878E+03  0.49718148878E+03  0.00000000000E+00 0. -1.
    9000007    1    1    2  501    0 -0.60739691246E+02 -0.25755665905E+03  0.21318262547E+03  0.52485386015E+03  0.40000000000E+03 0.  1.
   -9000007    1    1    2    0  503  0.60739691246E+02  0.25755665905E+03 -0.17287690640E+03  0.50981483647E+03  0.40000000000E+03 0. -1.
<mgrwt>
<rscale>  2 0.47960895E+03</rscale>
<asrwt>0</asrwt>
<pdfrwt beam="1">  1       21 0.82690340E-01 0.47960895E+03</pdfrwt>
<pdfrwt beam="2">  1       21 0.76489459E-01 0.47960895E+03</pdfrwt>
<totfact> 0.16514828E+03</totfact>
</mgrwt>
</event>
<event>
 4    1  0.4716816E-002  0.4465169E+03  0.7818608E-02  0.1028766E+00
         21   -1    0    0  503  502  0.00000000000E+00  0.00000000000E+00  0.46419599343E+03  0.46419599343E+03  0.00000000000E+00 0. -1.
         21   -1    0    0  501  503 -0.00000000000E+00 -0.00000000000E+00 -0.52991081518E+03  0.52991081518E+03  0.00000000000E+00 0. -1.
    9000007    1    1    2  501    0  0.12740381592E+03 -0.15213671434E+03 -0.24921293714E+03  0.51135545387E+03  0.40000000000E+03 0. -1.
   -9000007    1    1    2    0  502 -0.12740381592E+03  0.15213671434E+03  0.18349811539E+03  0.48275135475E+03  0.40000000000E+03 0. -1.
<mgrwt>
<rscale>  2 0.44651687E+03</rscale>
<asrwt>0</asrwt>
<pdfrwt beam="1">  1       21 0.71414769E-01 0.44651687E+03</pdfrwt>
<pdfrwt beam="2">  1       21 0.81524740E-01 0.44651687E+03</pdfrwt>
<totfact> 0.20201550E+03</totfact>
</mgrwt>
</event>
<event>
 4    1  0.4716816E-002  0.4556279E+03  0.7818608E-02  0.1026057E+00
         21   -1    0    0  503  502  0.00000000000E+00  0.00000000000E+00  0.28161283930E+03  0.28161283930E+03  0.00000000000E+00 0. -1.
         21   -1    0    0  501  503 -0.00000000000E+00 -0.00000000000E+00 -0.11092781912E+04  0.11092781912E+04  0.00000000000E+00 0. -1.
    9000007    1    1    2  501    0  0.19699561846E+03 -0.93752603328E+02 -0.81662101837E+03  0.93512924880E+03  0.40000000000E+03 0. -1.
   -9000007    1    1    2    0  502 -0.19699561846E+03  0.93752603328E+02 -0.11044333495E+02  0.45576178166E+03  0.40000000000E+03 0. -1.
<mgrwt>
<rscale>  2 0.45562795E+03</rscale>
<asrwt>0</asrwt>
<pdfrwt beam="1">  1       21 0.43325052E-01 0.45562795E+03</pdfrwt>
<pdfrwt beam="2">  1       21 0.17065818E+00 0.45562795E+03</pdfrwt>
<totfact> 0.90525315E+02</totfact>
</mgrwt>
</event>
<event>
 4    1  0.4716816E-002  0.4199044E+03  0.7818608E-02  0.1037097E+00
         21   -1    0    0  501  502  0.00000000000E+00  0.00000000000E+00  0.34951830013E+03  0.34951830013E+03  0.00000000000E+00 0.  1.
         21   -1    0    0  502  503 -0.00000000000E+00 -0.00000000000E+00 -0.59015495970E+03  0.59015495970E+03  0.00000000000E+00 0.  1.
    9000007    1    1    2  501    0 -0.81100653340E+02 -0.98703534221E+02 -0.29934970274E+03  0.51568396152E+03  0.40000000000E+03 0.  1.
   -9000007    1    1    2    0  503  0.81100653340E+02  0.98703534221E+02  0.58713043166E+02  0.42398929831E+03  0.40000000000E+03 0.  1.
<mgrwt>
<rscale>  2 0.41990440E+03</rscale>
<asrwt>0</asrwt>
<pdfrwt beam="1">  1       21 0.53772047E-01 0.41990440E+03</pdfrwt>
<pdfrwt beam="2">  1       21 0.90793069E-01 0.41990440E+03</pdfrwt>
<totfact> 0.29619201E+03</totfact>
</mgrwt>
</event>
<event>
 4    1  0.4716816E-002  0.5051365E+03  0.7818608E-02  0.1012447E+00
         21   -1    0    0  501  502  0.00000000000E+00  0.00000000000E+00  0.12674317034E+03  0.12674317034E+03  0.00000000000E+00 0. -1.
         21   -1    0    0  502  503 -0.00000000000E+00 -0.00000000000E+00 -0.32248430750E+04  0.32248430750E+04  0.00000000000E+00 0. -1.
    9000007    1    1    2  501    0 -0.30722458980E+03  0.27856063896E+02 -0.52186551396E+03  0.72629644329E+03  0.40000000000E+03 0. -1.
   -9000007    1    1    2    0  503  0.30722458980E+03 -0.27856063896E+02 -0.25762343907E+04  0.26252898021E+04  0.40000000000E+03 0. -1.
<mgrwt>
<rscale>  2 0.50513652E+03</rscale>
<asrwt>0</asrwt>
<pdfrwt beam="1">  1       21 0.19498947E-01 0.50513652E+03</pdfrwt>
<pdfrwt beam="2">  1       21 0.49612976E+00 0.50513652E+03</pdfrwt>
<totfact> 0.34523073E+01</totfact>
</mgrwt>
</event>
<event>
 4    1  0.4716816E-002  0.4587823E+03  0.7818608E-02  0.1025135E+00
         21   -1    0    0  503  502  0.00000000000E+00  0.00000000000E+00  0.14872881864E+03  0.14872881864E+03  0.00000000000E+00 0. -1.
         21   -1    0    0  501  503 -0.00000000000E+00 -0.00000000000E+00 -0.14786540283E+04  0.14786540283E+04  0.00000000000E+00 0. -1.
    9000007    1    1    2  501    0  0.17989742147E+03 -0.13460343738E+03 -0.49640329241E+03  0.67594185869E+03  0.40000000000E+03 0. -1.
   -9000007    1    1    2    0  502 -0.17989742147E+03  0.13460343738E+03 -0.83352191725E+03  0.95144098827E+03  0.40000000000E+03 0. -1.
<mgrwt>
<rscale>  2 0.45878227E+03</rscale>
<asrwt>0</asrwt>
<pdfrwt beam="1">  1       21 0.22881358E-01 0.45878227E+03</pdfrwt>
<pdfrwt beam="2">  1       21 0.22748522E+00 0.45878227E+03</pdfrwt>
<totfact> 0.13454847E+03</totfact>
</mgrwt>
</event>
<event>
 4    1  0.4716816E-002  0.5278350E+03  0.7818608E-02  0.1006759E+00
         21   -1    0    0  501  502  0.00000000000E+00  0.00000000000E+00  0.17601912866E+04  0.17601912866E+04  0.00000000000E+00 0. -1.
         21   -1    0    0  502  503 -0.00000000000E+00 -0.00000000000E+00 -0.31701410871E+03  0.31701410871E+03  0.00000000000E+00 0. -1.
    9000007    1    1    2  501    0 -0.75909615758E+02 -0.33592785822E+03  0.14565085745E+04  0.15492020602E+04  0.40000000000E+03 0. -1.
   -9000007    1    1    2    0  503  0.75909615758E+02  0.33592785822E+03 -0.13331396681E+02  0.52800333506E+03  0.40000000000E+03 0. -1.
<mgrwt>
<rscale>  2 0.52783501E+03</rscale>
<asrwt>0</asrwt>
<pdfrwt beam="1">  1       21 0.27079865E+00 0.52783501E+03</pdfrwt>
<pdfrwt beam="2">  1       21 0.48771402E-01 0.52783501E+03</pdfrwt>
<totfact> 0.15224718E+02</totfact>
</mgrwt>
</event>
<event>
 4    1  0.4716816E-002  0.4375854E+03  0.7818608E-02  0.1031490E+00
         21   -1    0    0  501  502  0.00000000000E+00  0.00000000000E+00  0.20968107237E+04  0.20968107237E+04  0.00000000000E+00 0.  1.
         21   -1    0    0  502  503 -0.00000000000E+00 -0.00000000000E+00 -0.95491567665E+02  0.95491567665E+02  0.00000000000E+00 0.  1.
    9000007    1    1    2  501    0  0.10094465923E+03  0.14591499292E+03  0.12297628378E+04  0.13052959996E+04  0.40000000000E+03 0.  1.
   -9000007    1    1    2    0  503 -0.10094465923E+03 -0.14591499292E+03  0.77155631824E+03  0.88700629175E+03  0.40000000000E+03 0.  1.
<mgrwt>
<rscale>  2 0.43758543E+03</rscale>
<asrwt>0</asrwt>
<pdfrwt beam="1">  1       21 0.32258623E+00 0.43758543E+03</pdfrwt>
<pdfrwt beam="2">  1       21 0.14691012E-01 0.43758543E+03</pdfrwt>
<totfact> 0.82871729E+02</totfact>
</mgrwt>
</event>
<event>
 4    1  0.4716816E-002  0.4223354E+03  0.7818608E-02  0.1036309E+00
         21   -1    0    0  503  502  0.00000000000E+00  0.00000000000E+00  0.26898305227E+03  0.26898305227E+03  0.00000000000E+00 0. -1.
         21   -1    0    0  501  503 -0.00000000000E+00 -0.00000000000E+00 -0.85371880452E+03  0.85371880452E+03  0.00000000000E+00 0. -1.
    9000007    1    1    2  501    0 -0.13517119739E+03  0.97938140875E+01 -0.55760895970E+03  0.69949619251E+03  0.40000000000E+03 0.  1.
   -9000007    1    1    2    0  502  0.13517119739E+03 -0.97938140875E+01 -0.27126792543E+02  0.42320566427E+03  0.40000000000E+03 0.  1.
<mgrwt>
<rscale>  2 0.42233538E+03</rscale>
<asrwt>0</asrwt>
<pdfrwt beam="1">  1       21 0.41382008E-01 0.42233538E+03</pdfrwt>
<pdfrwt beam="2">  1       21 0.13134135E+00 0.42233538E+03</pdfrwt>
<totfact> 0.20579541E+03</totfact>
</mgrwt>
</event>
<event>
 4    1  0.4716816E-002  0.4261589E+03  0.7818608E-02  0.1035080E+00
         21   -1    0    0  503  502  0.00000000000E+00  0.00000000000E+00  0.55398196468E+03  0.55398196468E+03  0.00000000000E+00 0. -1.
         21   -1    0    0  501  503 -0.00000000000E+00 -0.00000000000E+00 -0.42355331651E+03  0.42355331651E+03  0.00000000000E+00 0. -1.
    9000007    1    1    2  501    0 -0.14699917656E+03 -0.16349917919E+01 -0.16714452738E+03  0.45776492236E+03  0.40000000000E+03 0. -1.
   -9000007    1    1    2    0  502  0.14699917656E+03  0.16349917919E+01  0.29757317556E+03  0.51977035883E+03  0.40000000000E+03 0. -1.
<mgrwt>
<rscale>  2 0.42615893E+03</rscale>
<asrwt>0</asrwt>
<pdfrwt beam="1">  1       21 0.85227995E-01 0.42615893E+03</pdfrwt>
<pdfrwt beam="2">  1       21 0.65162048E-01 0.42615893E+03</pdfrwt>
<totfact> 0.22541427E+03</totfact>
</mgrwt>
</event>
<event>
 4    1  0.4716816E-002  0.5642851E+03  0.7818608E-02  0.9982405E-01
         21   -1    0    0  501  502  0.00000000000E+00  0.00000000000E+00  0.67435907070E+03  0.67435907070E+03  0.00000000000E+00 0.  1.
         21   -1    0    0  502  503 -0.00000000000E+00 -0.00000000000E+00 -0.47358109259E+03  0.47358109259E+03  0.00000000000E+00 0.  1.
    9000007    1    1    2  501    0  0.28358558076E+03  0.27927923047E+03  0.13162820675E+03  0.57943390909E+03  0.40000000000E+03 0.  1.
   -9000007    1    1    2    0  503 -0.28358558076E+03 -0.27927923047E+03  0.69149771372E+02  0.56850625420E+03  0.40000000000E+03 0.  1.
<mgrwt>
<rscale>  2 0.56428510E+03</rscale>
<asrwt>0</asrwt>
<pdfrwt beam="1">  1       21 0.10374755E+00 0.56428510E+03</pdfrwt>
<pdfrwt beam="2">  1       21 0.72858629E-01 0.56428510E+03</pdfrwt>
<totfact> 0.10416810E+03</totfact>
</mgrwt>
</event>
<event>
 4    1  0.4716816E-002  0.4557617E+03  0.7818608E-02  0.1026018E+00
         21   -1    0    0  501  502  0.00000000000E+00  0.00000000000E+00  0.78450591837E+03  0.78450591837E+03  0.00000000000E+00 0. -1.
         21   -1    0    0  502  503 -0.00000000000E+00 -0.00000000000E+00 -0.28830939382E+03  0.28830939382E+03  0.00000000000E+00 0. -1.
    9000007    1    1    2  501    0 -0.60603568380E+02  0.20987113157E+03  0.94847095025E+02  0.46552621387E+03  0.40000000000E+03 0. -1.
   -9000007    1    1    2    0  503  0.60603568380E+02 -0.20987113157E+03  0.40134942952E+03  0.60728909832E+03  0.40000000000E+03 0. -1.
<mgrwt>
<rscale>  2 0.45576165E+03</rscale>
<asrwt>0</asrwt>
<pdfrwt beam="1">  1       21 0.12069322E+00 0.45576165E+03</pdfrwt>
<pdfrwt beam="2">  1       21 0.44355292E-01 0.45576165E+03</pdfrwt>
<totfact> 0.21857480E+03</totfact>
</mgrwt>
</event>
<event>
 4    1  0.4716816E-002  0.4393152E+03  0.7818608E-02  0.1030957E+00
         21   -1    0    0  503  502  0.00000000000E+00  0.00000000000E+00  0.48686044252E+03  0.48686044252E+03  0.00000000000E+00 0.  1.
         21   -1    0    0  501  503 -0.00000000000E+00 -0.00000000000E+00 -0.51131747385E+03  0.51131747385E+03  0.00000000000E+00 0. -1.
    9000007    1    1    2  501    0  0.13113189429E+03 -0.12570719980E+03  0.22436392289E+03  0.49329204704E+03  0.40000000000E+03 0.  1.
   -9000007    1    1    2    0  502 -0.13113189429E+03  0.12570719980E+03 -0.24882095423E+03  0.50488586933E+03  0.40000000000E+03 0. -1.
<mgrwt>
<rscale>  2 0.43931523E+03</rscale>
<asrwt>0</asrwt>
<pdfrwt beam="1">  1       21 0.74901606E-01 0.43931523E+03</pdfrwt>
<pdfrwt beam="2">  1       21 0.78664227E-01 0.43931523E+03</pdfrwt>
<totfact> 0.19743262E+03</totfact>
</mgrwt>
</event>
<event>
 4    1  0.4716816E-002  0.4132015E+03  0.7818608E-02  0.1039302E+00
         21   -1    0    0  501  502  0.00000000000E+00  0.00000000000E+00  0.37470519249E+03  0.37470519249E+03  0.00000000000E+00 0.  1.
         21   -1    0    0  502  503 -0.00000000000E+00 -0.00000000000E+00 -0.48968474695E+03  0.48968474695E+03  0.00000000000E+00 0.  1.
    9000007    1    1    2  501    0 -0.93683075025E+02  0.44260537202E+02  0.56447037913E+02  0.41703930485E+03  0.40000000000E+03 0.  1.
   -9000007    1    1    2    0  503  0.93683075025E+02 -0.44260537202E+02 -0.17142659237E+03  0.44735063459E+03  0.40000000000E+03 0.  1.
<mgrwt>
<rscale>  2 0.41320154E+03</rscale>
<asrwt>0</asrwt>
<pdfrwt beam="1">  1       21 0.57646952E-01 0.41320154E+03</pdfrwt>
<pdfrwt beam="2">  1       21 0.75336115E-01 0.41320154E+03</pdfrwt>
<totfact> 0.39412991E+03</totfact>
</mgrwt>
</event>
<event>
 4    1  0.4716816E-002  0.4264470E+03  0.7818608E-02  0.1034988E+00
         21   -1    0    0  503  502  0.00000000000E+00  0.00000000000E+00  0.32399889462E+03  0.32399889462E+03  0.00000000000E+00 0. -1.
         21   -1    0    0  501  503 -0.00000000000E+00 -0.00000000000E+00 -0.82031790899E+03  0.82031790899E+03  0.00000000000E+00 0. -1.
    9000007    1    1    2  501    0 -0.13496384731E+03  0.60347198143E+02 -0.56967305548E+03  0.71160692418E+03  0.40000000000E+03 0. -1.
   -9000007    1    1    2    0  502  0.13496384731E+03 -0.60347198143E+02  0.73354041103E+02  0.43270987942E+03  0.40000000000E+03 0. -1.
<mgrwt>
<rscale>  2 0.42644698E+03</rscale>
<asrwt>0</asrwt>
<pdfrwt beam="1">  1       21 0.49845984E-01 0.42644698E+03</pdfrwt>
<pdfrwt beam="2">  1       21 0.12620275E+00 0.42644698E+03</pdfrwt>
<totfact> 0.15422717E+03</totfact>
</mgrwt>
</event>
<event>
 4    1  0.4716816E-002  0.5444949E+03  0.7818608E-02  0.1002776E+00
         21   -1    0    0  503  502  0.00000000000E+00  0.00000000000E+00  0.14818002018E+04  0.14818002018E+04  0.00000000000E+00 0. -1.
         21   -1    0    0  501  503 -0.00000000000E+00 -0.00000000000E+00 -0.20225261690E+03  0.20225261690E+03  0.00000000000E+00 0.  1.
    9000007    1    1    2  501    0  0.19003781980E+03  0.31679697247E+03  0.55245003529E+03  0.77567759811E+03  0.40000000000E+03 0.  1.
   -9000007    1    1    2    0  502 -0.19003781980E+03 -0.31679697247E+03  0.72709754956E+03  0.90837522055E+03  0.40000000000E+03 0. -1.
<mgrwt>
<rscale>  2 0.54449490E+03</rscale>
<asrwt>0</asrwt>
<pdfrwt beam="1">  1       21 0.22796926E+00 0.54449490E+03</pdfrwt>
<pdfrwt beam="2">  1       21 0.31115788E-01 0.54449490E+03</pdfrwt>
<totfact> 0.70395702E+02</totfact>
</mgrwt>
</event>
<event>
 4    1  0.4716816E-002  0.5076522E+03  0.7818608E-02  0.1011801E+00
         21   -1    0    0  503  502  0.00000000000E+00  0.00000000000E+00  0.48399662796E+03  0.48399662796E+03  0.00000000000E+00 0. -1.
         21   -1    0    0  501  503 -0.00000000000E+00 -0.00000000000E+00 -0.11799646470E+04  0.11799646470E+04  0.00000000000E+00 0.  1.
    9000007    1    1    2  501    0 -0.30186560106E+03 -0.81165811224E+02 -0.96429350606E+03  0.10897580905E+04  0.40000000000E+03 0.  1.
   -9000007    1    1    2    0  502  0.30186560106E+03  0.81165811224E+02  0.26832548703E+03  0.57420318443E+03  0.40000000000E+03 0. -1.
<mgrwt>
<rscale>  2 0.50765217E+03</rscale>
<asrwt>0</asrwt>
<pdfrwt beam="1">  1       21 0.74461019E-01 0.50765217E+03</pdfrwt>
<pdfrwt beam="2">  1       21 0.18153302E+00 0.50765217E+03</pdfrwt>
<totfact> 0.22731657E+02</totfact>
</mgrwt>
</event>
<event>
 4    1  0.4716816E-002  0.4055302E+03  0.7818608E-02  0.1041881E+00
         21   -1    0    0  503  502  0.00000000000E+00  0.00000000000E+00  0.30235413122E+03  0.30235413122E+03  0.00000000000E+00 0.  1.
         21   -1    0    0  501  503 -0.00000000000E+00 -0.00000000000E+00 -0.63597663570E+03  0.63597663570E+03  0.00000000000E+00 0.  1.
    9000007    1    1    2  501    0  0.24470870935E+01  0.66698701729E+02 -0.34531470198E+03  0.53263209484E+03  0.40000000000E+03 0.  1.
   -9000007    1    1    2    0  502 -0.24470870935E+01 -0.66698701729E+02  0.11692197493E+02  0.40569867208E+03  0.40000000000E+03 0.  1.
<mgrwt>
<rscale>  2 0.40553015E+03</rscale>
<asrwt>0</asrwt>
<pdfrwt beam="1">  1       21 0.46516020E-01 0.40553015E+03</pdfrwt>
<pdfrwt beam="2">  1       21 0.97842559E-01 0.40553015E+03</pdfrwt>
<totfact> 0.33895249E+03</totfact>
</mgrwt>
</event>
<event>
 4    1  0.4716816E-002  0.4264415E+03  0.7818608E-02  0.1034990E+00
         21   -1    0    0  503  502  0.00000000000E+00  0.00000000000E+00  0.63612685024E+03  0.63612685024E+03  0.00000000000E+00 0.  1.
         21   -1    0    0  501  503 -0.00000000000E+00 -0.00000000000E+00 -0.73247669798E+03  0.73247669798E+03  0.00000000000E+00 0.  1.
    9000007    1    1    2  501    0  0.14165575037E+03  0.42261539509E+02 -0.58250698075E+03  0.72191881258E+03  0.40000000000E+03 0.  1.
   -9000007    1    1    2    0  502 -0.14165575037E+03 -0.42261539509E+02  0.48615713301E+03  0.64668473564E+03  0.40000000000E+03 0.  1.
<mgrwt>
<rscale>  2 0.42644154E+03</rscale>
<asrwt>0</asrwt>
<pdfrwt beam="1">  1       21 0.97865669E-01 0.42644154E+03</pdfrwt>
<pdfrwt beam="2">  1       21 0.11268872E+00 0.42644154E+03</pdfrwt>
<totfact> 0.44888053E+02</totfact>
</mgrwt>
</event>
<event>
 4    1  0.4716816E-002  0.5155084E+03  0.7818608E-02  0.1009808E+00
         21   -1    0    0  503  502  0.00000000000E+00  0.00000000000E+00  0.53819326404E+03  0.53819326404E+03  0.00000000000E+00 0.  1.
         21   -1    0    0  501  503 -0.00000000000E+00 -0.00000000000E+00 -0.93339751078E+03  0.93339751078E+03  0.00000000000E+00 0. -1.
    9000007    1    1    2  501    0 -0.32439840357E+03  0.22684189652E+02 -0.70256725679E+03  0.87140670586E+03  0.40000000000E+03 0. -1.
   -9000007    1    1    2    0  502  0.32439840357E+03 -0.22684189652E+02  0.30736301005E+03  0.60018406897E+03  0.40000000000E+03 0.  1.
<mgrwt>
<rscale>  2 0.51550839E+03</rscale>
<asrwt>0</asrwt>
<pdfrwt beam="1">  1       21 0.82798964E-01 0.51550839E+03</pdfrwt>
<pdfrwt beam="2">  1       21 0.14359962E+00 0.51550839E+03</pdfrwt>
<totfact> 0.34257913E+02</totfact>
</mgrwt>
</event>
<event>
 4    1  0.4716816E-002  0.4005143E+03  0.7818608E-02  0.1043602E+00
         21   -1    0    0  503  502  0.00000000000E+00  0.00000000000E+00  0.84080772065E+03  0.84080772065E+03  0.00000000000E+00 0. -1.
         21   -1    0    0  501  503 -0.00000000000E+00 -0.00000000000E+00 -0.19129122990E+03  0.19129122990E+03  0.00000000000E+00 0. -1.
    9000007    1    1    2  501    0 -0.57575032919E+01  0.19457164173E+02  0.35136055127E+03  0.53279073478E+03  0.40000000000E+03 0.  1.
   -9000007    1    1    2    0  502  0.57575032919E+01 -0.19457164173E+02  0.29815593948E+03  0.49930821577E+03  0.40000000000E+03 0.  1.
<mgrwt>
<rscale>  2 0.40051433E+03</rscale>
<asrwt>0</asrwt>
<pdfrwt beam="1">  1       21 0.12935503E+00 0.40051433E+03</pdfrwt>
<pdfrwt beam="2">  1       21 0.29429421E-01 0.40051433E+03</pdfrwt>
<totfact> 0.43000052E+03</totfact>
</mgrwt>
</event>
<event>
 4    1  0.4716816E-002  0.4682521E+03  0.7818608E-02  0.1022415E+00
         21   -1    0    0  501  502  0.00000000000E+00  0.00000000000E+00  0.20863252501E+03  0.20863252501E+03  0.00000000000E+00 0.  1.
         21   -1    0    0  502  503 -0.00000000000E+00 -0.00000000000E+00 -0.19345855304E+04  0.19345855304E+04  0.00000000000E+00 0.  1.
    9000007    1    1    2  501    0  0.23265136439E+03 -0.71647286715E+02 -0.15872152601E+04  0.16548450903E+04  0.40000000000E+03 0.  1.
   -9000007    1    1    2    0  503 -0.23265136439E+03  0.71647286715E+02 -0.13873774527E+03  0.48837296507E+03  0.40000000000E+03 0.  1.
<mgrwt>
<rscale>  2 0.46825206E+03</rscale>
<asrwt>0</asrwt>
<pdfrwt beam="1">  1       21 0.32097312E-01 0.46825206E+03</pdfrwt>
<pdfrwt beam="2">  1       21 0.29762854E+00 0.46825206E+03</pdfrwt>
<totfact> 0.25635742E+02</totfact>
</mgrwt>
</event>
<event>
 4    1  0.4716816E-002  0.4370464E+03  0.7818608E-02  0.1031657E+00
         21   -1    0    0  503  502  0.00000000000E+00  0.00000000000E+00  0.22703545587E+04  0.22703545587E+04  0.00000000000E+00 0.  1.
         21   -1    0    0  501  503 -0.00000000000E+00 -0.00000000000E+00 -0.12659990052E+03  0.12659990052E+03  0.00000000000E+00 0.  1.
    9000007    1    1    2  501    0 -0.13620250685E+03  0.11161715744E+03  0.37774319114E+03  0.57766723220E+03  0.40000000000E+03 0.  1.
   -9000007    1    1    2    0  502  0.13620250685E+03 -0.11161715744E+03  0.17660114670E+04  0.18192872270E+04  0.40000000000E+03 0.  1.
<mgrwt>
<rscale>  2 0.43704635E+03</rscale>
<asrwt>0</asrwt>
<pdfrwt beam="1">  1       21 0.34928529E+00 0.43704635E+03</pdfrwt>
<pdfrwt beam="2">  1       21 0.19476909E-01 0.43704635E+03</pdfrwt>
<totfact> 0.33644910E+02</totfact>
</mgrwt>
</event>
<event>
 4    1  0.4716816E-002  0.4034378E+03  0.7818608E-02  0.1042596E+00
         21   -1    0    0  501  502  0.00000000000E+00  0.00000000000E+00  0.10562420476E+03  0.10562420476E+03  0.00000000000E+00 0. -1.
         21   -1    0    0  502  503 -0.00000000000E+00 -0.00000000000E+00 -0.18363354272E+04  0.18363354272E+04  0.00000000000E+00 0.  1.
    9000007    1    1    2  501    0 -0.41463145993E+02  0.32293596328E+02 -0.47592902900E+03  0.62391546662E+03  0.40000000000E+03 0. -1.
   -9000007    1    1    2    0  503  0.41463145993E+02 -0.32293596328E+02 -0.12547821935E+04  0.13180441654E+04  0.40000000000E+03 0.  1.
<mgrwt>
<rscale>  2 0.40343781E+03</rscale>
<asrwt>0</asrwt>
<pdfrwt beam="1">  1       21 0.16249878E-01 0.40343781E+03</pdfrwt>
<pdfrwt beam="2">  1       21 0.28251314E+00 0.40343781E+03</pdfrwt>
<totfact> 0.12193158E+03</totfact>
</mgrwt>
</event>
<event>
 4    1  0.4716816E-002  0.5954099E+03  0.7818608E-02  0.9914975E-01
         21   -1    0    0  501  502  0.00000000000E+00  0.00000000000E+00  0.96664937577E+03  0.96664937577E+03  0.00000000000E+00 0.  1.
         21   -1    0    0  502  503 -0.00000000000E+00 -0.00000000000E+00 -0.38676258251E+03  0.38676258251E+03  0.00000000000E+00 0. -1.
    9000007    1    1    2  501    0 -0.30315345876E+03 -0.32032934839E+03  0.44389841929E+03  0.74266999243E+03  0.40000000000E+03 0.  1.
   -9000007    1    1    2    0  503  0.30315345876E+03  0.32032934839E+03  0.13598837397E+03  0.61074196586E+03  0.40000000000E+03 0. -1.
<mgrwt>
<rscale>  2 0.59540987E+03</rscale>
<asrwt>0</asrwt>
<pdfrwt beam="1">  1       21 0.14871529E+00 0.59540987E+03</pdfrwt>
<pdfrwt beam="2">  1       21 0.59501936E-01 0.59540987E+03</pdfrwt>
<totfact> 0.63923787E+02</totfact>
</mgrwt>
</event>
<event>
 4    1  0.4716816E-002  0.4207594E+03  0.7818608E-02  0.1036819E+00
         21   -1    0    0  503  502  0.00000000000E+00  0.00000000000E+00  0.19672020369E+04  0.19672020369E+04  0.00000000000E+00 0. -1.
         21   -1    0    0  501  503 -0.00000000000E+00 -0.00000000000E+00 -0.25312866961E+03  0.25312866961E+03  0.00000000000E+00 0. -1.
    9000007    1    1    2  501    0  0.11616390943E+03  0.59534692206E+02 -0.34191158876E+02  0.42214626467E+03  0.40000000000E+03 0. -1.
   -9000007    1    1    2    0  502 -0.11616390943E+03 -0.59534692206E+02  0.17482645262E+04  0.17981844418E+04  0.40000000000E+03 0. -1.
<mgrwt>
<rscale>  2 0.42075935E+03</rscale>
<asrwt>0</asrwt>
<pdfrwt beam="1">  1       21 0.30264646E+00 0.42075935E+03</pdfrwt>
<pdfrwt beam="2">  1       21 0.38942874E-01 0.42075935E+03</pdfrwt>
<totfact> 0.16647665E+02</totfact>
</mgrwt>
</event>
<event>
 4    1  0.4716816E-002  0.4607469E+03  0.7818608E-02  0.1024565E+00
         21   -1    0    0  503  502  0.00000000000E+00  0.00000000000E+00  0.53716804235E+03  0.53716804235E+03  0.00000000000E+00 0. -1.
         21   -1    0    0  501  503 -0.00000000000E+00 -0.00000000000E+00 -0.43707388428E+03  0.43707388428E+03  0.00000000000E+00 0. -1.
    9000007    1    1    2  501    0 -0.16068600514E+03  0.16268895922E+03 -0.10073225943E+03  0.47162981012E+03  0.40000000000E+03 0. -1.
   -9000007    1    1    2    0  502  0.16068600514E+03 -0.16268895922E+03  0.20082641750E+03  0.50261211651E+03  0.40000000000E+03 0. -1.
<mgrwt>
<rscale>  2 0.46074688E+03</rscale>
<asrwt>0</asrwt>
<pdfrwt beam="1">  1       21 0.82641237E-01 0.46074688E+03</pdfrwt>
<pdfrwt beam="2">  1       21 0.67242136E-01 0.46074688E+03</pdfrwt>
<totfact> 0.22292873E+03</totfact>
</mgrwt>
</event>
<event>
 4    1  0.4716816E-002  0.5129384E+03  0.7818608E-02  0.1010456E+00
         21   -1    0    0  501  502  0.00000000000E+00  0.00000000000E+00  0.15511462201E+04  0.15511462201E+04  0.00000000000E+00 0.  1.
         21   -1    0    0  502  503 -0.00000000000E+00 -0.00000000000E+00 -0.20814284868E+03  0.20814284868E+03  0.00000000000E+00 0.  1.
    9000007    1    1    2  501    0  0.30997023795E+03  0.83810780300E+02  0.10499305913E+04  0.11685290077E+04  0.40000000000E+03 0.  1.
   -9000007    1    1    2    0  503 -0.30997023795E+03 -0.83810780300E+02  0.29307278011E+03  0.59076006107E+03  0.40000000000E+03 0.  1.
<mgrwt>
<rscale>  2 0.51293839E+03</rscale>
<asrwt>0</asrwt>
<pdfrwt beam="1">  1       21 0.23863787E+00 0.51293839E+03</pdfrwt>
<pdfrwt beam="2">  1       21 0.32021978E-01 0.51293839E+03</pdfrwt>
<totfact> 0.57673866E+02</totfact>
</mgrwt>
</event>
<event>
 4    1  0.4716816E-002  0.4417419E+03  0.7818608E-02  0.1030214E+00
         21   -1    0    0  503  502  0.00000000000E+00  0.00000000000E+00  0.16999489020E+04  0.16999489020E+04  0.00000000000E+00 0. -1.
         21   -1    0    0  501  503 -0.00000000000E+00 -0.00000000000E+00 -0.41036027270E+03  0.41036027270E+03  0.00000000000E+00 0. -1.
    9000007    1    1    2  501    0 -0.15828260010E+03  0.10041172600E+03 -0.25070312360E+03  0.50792514448E+03  0.40000000000E+03 0. -1.
   -9000007    1    1    2    0  502  0.15828260010E+03 -0.10041172600E+03  0.15402917529E+04  0.16023840302E+04  0.40000000000E+03 0. -1.
<mgrwt>
<rscale>  2 0.44174189E+03</rscale>
<asrwt>0</asrwt>
<pdfrwt beam="1">  1       21 0.26153060E+00 0.44174189E+03</pdfrwt>
<pdfrwt beam="2">  1       21 0.63132351E-01 0.44174189E+03</pdfrwt>
<totfact> 0.10402384E+02</totfact>
</mgrwt>
</event>
<event>
 4    1  0.4716816E-002  0.4635756E+03  0.7818608E-02  0.1023749E+00
         21   -1    0    0  503  502  0.00000000000E+00  0.00000000000E+00  0.24346270532E+04  0.24346270532E+04  0.00000000000E+00 0.  1.
         21   -1    0    0  501  503 -0.00000000000E+00 -0.00000000000E+00 -0.92722500675E+02  0.92722500675E+02  0.00000000000E+00 0.  1.
    9000007    1    1    2  501    0 -0.17853112900E+03 -0.15175314562E+03  0.89401093884E+03  0.10070540899E+04  0.40000000000E+03 0.  1.
   -9000007    1    1    2    0  502  0.17853112900E+03  0.15175314562E+03  0.14478936137E+04  0.15202954640E+04  0.40000000000E+03 0.  1.
<mgrwt>
<rscale>  2 0.46357565E+03</rscale>
<asrwt>0</asrwt>
<pdfrwt beam="1">  1       21 0.37455796E+00 0.46357565E+03</pdfrwt>
<pdfrwt beam="2">  1       21 0.14265002E-01 0.46357565E+03</pdfrwt>
<totfact> 0.41338038E+02</totfact>
</mgrwt>
</event>
<event>
 4    1  0.4716816E-002  0.5222963E+03  0.7818608E-02  0.1008118E+00
         21   -1    0    0  501  502  0.00000000000E+00  0.00000000000E+00  0.44099982846E+03  0.44099982846E+03  0.00000000000E+00 0.  1.
         21   -1    0    0  502  503 -0.00000000000E+00 -0.00000000000E+00 -0.83029536169E+03  0.83029536169E+03  0.00000000000E+00 0. -1.
    9000007    1    1    2  501    0 -0.29620402373E+03  0.15829271496E+03  0.12633144630E+03  0.53735746166E+03  0.40000000000E+03 0. -1.
   -9000007    1    1    2    0  503  0.29620402373E+03 -0.15829271496E+03 -0.51562697952E+03  0.73393772848E+03  0.40000000000E+03 0. -1.
<mgrwt>
<rscale>  2 0.52229628E+03</rscale>
<asrwt>0</asrwt>
<pdfrwt beam="1">  1       21 0.67846129E-01 0.52229628E+03</pdfrwt>
<pdfrwt beam="2">  1       21 0.12773775E+00 0.52229628E+03</pdfrwt>
<totfact> 0.73428295E+02</totfact>
</mgrwt>
</event>
<event>
 4    1  0.4716816E-002  0.4046483E+03  0.7818608E-02  0.1042182E+00
         21   -1    0    0  503  502  0.00000000000E+00  0.00000000000E+00  0.71633738146E+03  0.71633738146E+03  0.00000000000E+00 0.  1.
         21   -1    0    0  501  503 -0.00000000000E+00 -0.00000000000E+00 -0.64262212924E+03  0.64262212924E+03  0.00000000000E+00 0.  1.
    9000007    1    1    2  501    0  0.61152395224E+02  0.79185588751E+00 -0.50854982195E+03  0.64989473293E+03  0.40000000000E+03 0.  1.
   -9000007    1    1    2    0  502 -0.61152395224E+02 -0.79185588751E+00  0.58226507417E+03  0.70906477777E+03  0.40000000000E+03 0.  1.
<mgrwt>
<rscale>  2 0.40464829E+03</rscale>
<asrwt>0</asrwt>
<pdfrwt beam="1">  1       21 0.11020575E+00 0.40464829E+03</pdfrwt>
<pdfrwt beam="2">  1       21 0.98864943E-01 0.40464829E+03</pdfrwt>
<totfact> 0.46796210E+02</totfact>
</mgrwt>
</event>
<event>
 4    1  0.4716816E-002  0.4401866E+03  0.7818608E-02  0.1030690E+00
         21   -1    0    0  501  502  0.00000000000E+00  0.00000000000E+00  0.84053334122E+03  0.84053334122E+03  0.00000000000E+00 0. -1.
         21   -1    0    0  502  503 -0.00000000000E+00 -0.00000000000E+00 -0.33771378944E+03  0.33771378944E+03  0.00000000000E+00 0. -1.
    9000007    1    1    2  501    0  0.12376001527E+03 -0.13582215662E+03  0.58330887682E+03  0.73076223588E+03  0.40000000000E+03 0. -1.
   -9000007    1    1    2    0  503 -0.12376001527E+03  0.13582215662E+03 -0.80489325043E+02  0.44748489478E+03  0.40000000000E+03 0. -1.
<mgrwt>
<rscale>  2 0.44018655E+03</rscale>
<asrwt>0</asrwt>
<pdfrwt beam="1">  1       21 0.12931282E+00 0.44018655E+03</pdfrwt>
<pdfrwt beam="2">  1       21 0.51955968E-01 0.44018655E+03</pdfrwt>
<totfact> 0.13182802E+03</totfact>
</mgrwt>
</event>
<event>
 4    1  0.4716816E-002  0.6528726E+03  0.7818608E-02  0.9801404E-01
         21   -1    0    0  501  502  0.00000000000E+00  0.00000000000E+00  0.80662152367E+03  0.80662152367E+03  0.00000000000E+00 0.  1.
         21   -1    0    0  502  503 -0.00000000000E+00 -0.00000000000E+00 -0.93158451712E+03  0.93158451712E+03  0.00000000000E+00 0. -1.
    9000007    1    1    2  501    0 -0.57898090376E+02 -0.51272842603E+03  0.50925530744E+03  0.82799975597E+03  0.40000000000E+03 0.  1.
   -9000007    1    1    2    0  503  0.57898090376E+02  0.51272842603E+03 -0.63421830089E+03  0.91020628481E+03  0.40000000000E+03 0. -1.
<mgrwt>
<rscale>  2 0.65287260E+03</rscale>
<asrwt>0</asrwt>
<pdfrwt beam="1">  1       21 0.12409562E+00 0.65287260E+03</pdfrwt>
<pdfrwt beam="2">  1       21 0.14332069E+00 0.65287260E+03</pdfrwt>
<totfact> 0.12098444E+02</totfact>
</mgrwt>
</event>
<event>
 4    1  0.4716816E-002  0.4948586E+03  0.7818608E-02  0.1015130E+00
         21   -1    0    0  501  502  0.00000000000E+00  0.00000000000E+00  0.24572683582E+03  0.24572683582E+03  0.00000000000E+00 0.  1.
         21   -1    0    0  502  503 -0.00000000000E+00 -0.00000000000E+00 -0.99744177557E+03  0.99744177557E+03  0.00000000000E+00 0.  1.
    9000007    1    1    2  501    0 -0.28532982928E+03  0.58923150834E+02 -0.39418842557E+03  0.63266860523E+03  0.40000000000E+03 0.  1.
   -9000007    1    1    2    0  503  0.28532982928E+03 -0.58923150834E+02 -0.35752651417E+03  0.61050000616E+03  0.40000000000E+03 0.  1.
<mgrwt>
<rscale>  2 0.49485862E+03</rscale>
<asrwt>0</asrwt>
<pdfrwt beam="1">  1       21 0.37804128E-01 0.49485862E+03</pdfrwt>
<pdfrwt beam="2">  1       21 0.15345258E+00 0.49485862E+03</pdfrwt>
<totfact> 0.15902649E+03</totfact>
</mgrwt>
</event>
<event>
 4    1  0.4716816E-002  0.7171938E+03  0.7818608E-02  0.9688272E-01
         21   -1    0    0  503  502  0.00000000000E+00  0.00000000000E+00  0.18599322855E+04  0.18599322855E+04  0.00000000000E+00 0.  1.
         21   -1    0    0  501  503 -0.00000000000E+00 -0.00000000000E+00 -0.42521184911E+03  0.42521184911E+03  0.00000000000E+00 0. -1.
    9000007    1    1    2  501    0  0.11498850130E+03  0.58407589354E+03  0.41777481146E+02  0.71840960654E+03  0.40000000000E+03 0.  1.
   -9000007    1    1    2    0  502 -0.11498850130E+03 -0.58407589354E+03  0.13929429553E+04  0.15667345281E+04  0.40000000000E+03 0. -1.
<mgrwt>
<rscale>  2 0.71719384E+03</rscale>
<asrwt>0</asrwt>
<pdfrwt beam="1">  1       21 0.28614342E+00 0.71719384E+03</pdfrwt>
<pdfrwt beam="2">  1       21 0.65417209E-01 0.71719384E+03</pdfrwt>
<totfact> 0.59357966E+01</totfact>
</mgrwt>
</event>
<event>
 4    1  0.4716816E-002  0.4271950E+03  0.7818608E-02  0.1034750E+00
         21   -1    0    0  503  502  0.00000000000E+00  0.00000000000E+00  0.68928978088E+03  0.68928978088E+03  0.00000000000E+00 0.  1.
         21   -1    0    0  501  503 -0.00000000000E+00 -0.00000000000E+00 -0.40807103835E+03  0.40807103835E+03  0.00000000000E+00 0.  1.
    9000007    1    1    2  501    0  0.65088742278E+02 -0.13512583512E+03 -0.18454770231E+03  0.46535297369E+03  0.40000000000E+03 0.  1.
   -9000007    1    1    2    0  502 -0.65088742278E+02  0.13512583512E+03  0.46576644485E+03  0.63200784555E+03  0.40000000000E+03 0.  1.
<mgrwt>
<rscale>  2 0.42719496E+03</rscale>
<asrwt>0</asrwt>
<pdfrwt beam="1">  1       21 0.10604458E+00 0.42719496E+03</pdfrwt>
<pdfrwt beam="2">  1       21 0.62780160E-01 0.42719496E+03</pdfrwt>
<totfact> 0.14489547E+03</totfact>
</mgrwt>
</event>
<event>
 4    1  0.4716816E-002  0.4219631E+03  0.7818608E-02  0.1036429E+00
         21   -1    0    0  503  502  0.00000000000E+00  0.00000000000E+00  0.38659628118E+04  0.38659628118E+04  0.00000000000E+00 0. -1.
         21   -1    0    0  501  503 -0.00000000000E+00 -0.00000000000E+00 -0.66597635492E+02  0.66597635492E+02  0.00000000000E+00 0. -1.
    9000007    1    1    2  501    0  0.64018253649E+02  0.11812936025E+03  0.80766967234E+03  0.91125363218E+03  0.40000000000E+03 0. -1.
   -9000007    1    1    2    0  502 -0.64018253649E+02 -0.11812936025E+03  0.29916955040E+04  0.30213068151E+04  0.40000000000E+03 0. -1.
<mgrwt>
<rscale>  2 0.42196313E+03</rscale>
<asrwt>0</asrwt>
<pdfrwt beam="1">  1       21 0.59476333E+00 0.42196313E+03</pdfrwt>
<pdfrwt beam="2">  1       21 0.10245793E-01 0.42196313E+03</pdfrwt>
<totfact> 0.22114405E+01</totfact>
</mgrwt>
</event>
<event>
 4    1  0.4716816E-002  0.5339136E+03  0.7818608E-02  0.1005287E+00
         21   -1    0    0  501  502  0.00000000000E+00  0.00000000000E+00  0.13453538244E+04  0.13453538244E+04  0.00000000000E+00 0.  1.
         21   -1    0    0  502  503 -0.00000000000E+00 -0.00000000000E+00 -0.21199874057E+03  0.21199874057E+03  0.00000000000E+00 0.  1.
    9000007    1    1    2  501    0 -0.33528387557E+03 -0.11246529667E+03  0.54884421606E+03  0.76569817400E+03  0.40000000000E+03 0.  1.
   -9000007    1    1    2    0  503  0.33528387557E+03  0.11246529667E+03  0.58451086773E+03  0.79165439092E+03  0.40000000000E+03 0.  1.
<mgrwt>
<rscale>  2 0.53391359E+03</rscale>
<asrwt>0</asrwt>
<pdfrwt beam="1">  1       21 0.20697751E+00 0.53391359E+03</pdfrwt>
<pdfrwt beam="2">  1       21 0.32615192E-01 0.53391359E+03</pdfrwt>
<totfact> 0.87964513E+02</totfact>
</mgrwt>
</event>
<event>
 4    1  0.4716816E-002  0.4703523E+03  0.7818608E-02  0.1021821E+00
         21   -1    0    0  501  502  0.00000000000E+00  0.00000000000E+00  0.51671453763E+03  0.51671453763E+03  0.00000000000E+00 0. -1.
         21   -1    0    0  502  503 -0.00000000000E+00 -0.00000000000E+00 -0.43491463962E+03  0.43491463962E+03  0.00000000000E+00 0. -1.
    9000007    1    1    2  501    0 -0.23407584268E+03 -0.80248008021E+02 -0.18442223050E+02  0.47071366934E+03  0.40000000000E+03 0.  1.
   -9000007    1    1    2    0  503  0.23407584268E+03  0.80248008021E+02  0.10024212106E+03  0.48091550791E+03  0.40000000000E+03 0.  1.
<mgrwt>
<rscale>  2 0.47035225E+03</rscale>
<asrwt>0</asrwt>
<pdfrwt beam="1">  1       21 0.79494544E-01 0.47035225E+03</pdfrwt>
<pdfrwt beam="2">  1       21 0.66909945E-01 0.47035225E+03</pdfrwt>
<totfact> 0.24579728E+03</totfact>
</mgrwt>
</event>
<event>
 4    1  0.4716816E-002  0.4765139E+03  0.7818608E-02  0.1020098E+00
         21   -1    0    0  503  502  0.00000000000E+00  0.00000000000E+00  0.11350616751E+04  0.11350616751E+04  0.00000000000E+00 0. -1.
         21   -1    0    0  501  503 -0.00000000000E+00 -0.00000000000E+00 -0.40501387177E+03  0.40501387177E+03  0.00000000000E+00 0.  1.
    9000007    1    1    2  501    0  0.13575080584E+03 -0.22053843149E+03 -0.18277241201E+03  0.51036382674E+03  0.40000000000E+03 0.  1.
   -9000007    1    1    2    0  502 -0.13575080584E+03  0.22053843149E+03  0.91282021529E+03  0.10297117201E+04  0.40000000000E+03 0. -1.
<mgrwt>
<rscale>  2 0.47651388E+03</rscale>
<asrwt>0</asrwt>
<pdfrwt beam="1">  1       21 0.17462487E+00 0.47651388E+03</pdfrwt>
<pdfrwt beam="2">  1       21 0.62309827E-01 0.47651388E+03</pdfrwt>
<totfact> 0.38529496E+02</totfact>
</mgrwt>
</event>
<event>
 4    1  0.4716816E-002  0.4037192E+03  0.7818608E-02  0.1042499E+00
         21   -1    0    0  501  502  0.00000000000E+00  0.00000000000E+00  0.59659496623E+03  0.59659496623E+03  0.00000000000E+00 0. -1.
         21   -1    0    0  502  503 -0.00000000000E+00 -0.00000000000E+00 -0.36860159712E+03  0.36860159712E+03  0.00000000000E+00 0. -1.
    9000007    1    1    2  501    0  0.20304687904E+02  0.50763516712E+02  0.35951675997E+03  0.54059366966E+03  0.40000000000E+03 0. -1.
   -9000007    1    1    2    0  503 -0.20304687904E+02 -0.50763516712E+02 -0.13152339087E+03  0.42460289368E+03  0.40000000000E+03 0. -1.
<mgrwt>
<rscale>  2 0.40371923E+03</rscale>
<asrwt>0</asrwt>
<pdfrwt beam="1">  1       21 0.91783842E-01 0.40371923E+03</pdfrwt>
<pdfrwt beam="2">  1       21 0.56707938E-01 0.40371923E+03</pdfrwt>
<totfact> 0.25906243E+03</totfact>
</mgrwt>
</event>
<event>
 4    1  0.4716816E-002  0.4054327E+03  0.7818608E-02  0.1041915E+00
         21   -1    0    0  501  502  0.00000000000E+00  0.00000000000E+00  0.49040944327E+03  0.49040944327E+03  0.00000000000E+00 0.  1.
         21   -1    0    0  502  503 -0.00000000000E+00 -0.00000000000E+00 -0.34590553442E+03  0.34590553442E+03  0.00000000000E+00 0.  1.
    9000007    1    1    2  501    0 -0.48335318947E+01  0.65972220466E+02  0.14588281429E+03  0.43087990486E+03  0.40000000000E+03 0.  1.
   -9000007    1    1    2    0  503  0.48335318947E+01 -0.65972220466E+02 -0.13789054427E+01  0.40543507283E+03  0.40000000000E+03 0.  1.
<mgrwt>
<rscale>  2 0.40543273E+03</rscale>
<asrwt>0</asrwt>
<pdfrwt beam="1">  1       21 0.75447606E-01 0.40543273E+03</pdfrwt>
<pdfrwt beam="2">  1       21 0.53216236E-01 0.40543273E+03</pdfrwt>
<totfact> 0.46810603E+03</totfact>
</mgrwt>
</event>
<event>
 4    1  0.4716816E-002  0.5172051E+03  0.7818608E-02  0.1009383E+00
         21   -1    0    0  503  502  0.00000000000E+00  0.00000000000E+00  0.10513095223E+04  0.10513095223E+04  0.00000000000E+00 0.  1.
         21   -1    0    0  501  503 -0.00000000000E+00 -0.00000000000E+00 -0.45759526541E+03  0.45759526541E+03  0.00000000000E+00 0. -1.
    9000007    1    1    2  501    0  0.88788505349E+02 -0.31562280936E+03 -0.20583149876E+03  0.55665767070E+03  0.40000000000E+03 0. -1.
   -9000007    1    1    2    0  502 -0.88788505349E+02  0.31562280936E+03  0.79954575568E+03  0.95224711703E+03  0.40000000000E+03 0.  1.
<mgrwt>
<rscale>  2 0.51720514E+03</rscale>
<asrwt>0</asrwt>
<pdfrwt beam="1">  1       21 0.16173993E+00 0.51720514E+03</pdfrwt>
<pdfrwt beam="2">  1       21 0.70399272E-01 0.51720514E+03</pdfrwt>
<totfact> 0.35838328E+02</totfact>
</mgrwt>
</event>
<event>
 4    1  0.4716816E-002  0.5101780E+03  0.7818608E-02  0.1011156E+00
         21   -1    0    0  501  502  0.00000000000E+00  0.00000000000E+00  0.72616964002E+03  0.72616964002E+03  0.00000000000E+00 0. -1.
         21   -1    0    0  502  503 -0.00000000000E+00 -0.00000000000E+00 -0.45628853142E+03  0.45628853142E+03  0.00000000000E+00 0.  1.
    9000007    1    1    2  501    0 -0.13467482484E+03  0.28660816279E+03  0.40874067806E+03  0.65372049786E+03  0.40000000000E+03 0. -1.
   -9000007    1    1    2    0  503  0.13467482484E+03 -0.28660816279E+03 -0.13885956946E+03  0.52873767357E+03  0.40000000000E+03 0.  1.
<mgrwt>
<rscale>  2 0.51017796E+03</rscale>
<asrwt>0</asrwt>
<pdfrwt beam="1">  1       21 0.11171841E+00 0.51017796E+03</pdfrwt>
<pdfrwt beam="2">  1       21 0.70198236E-01 0.51017796E+03</pdfrwt>
<totfact> 0.96068080E+02</totfact>
</mgrwt>
</event>
<event>
 4    1  0.4716816E-002  0.5812849E+03  0.7818608E-02  0.9945013E-01
         21   -1    0    0  503  502  0.00000000000E+00  0.00000000000E+00  0.28845775263E+03  0.28845775263E+03  0.00000000000E+00 0. -1.
         21   -1    0    0  501  503 -0.00000000000E+00 -0.00000000000E+00 -0.12361359453E+04  0.12361359453E+04  0.00000000000E+00 0. -1.
    9000007    1    1    2  501    0 -0.18309728133E+03  0.37995725987E+03 -0.29935800596E+03  0.65384046180E+03  0.40000000000E+03 0. -1.
   -9000007    1    1    2    0  502  0.18309728133E+03 -0.37995725987E+03 -0.64832018675E+03  0.87075323617E+03  0.40000000000E+03 0. -1.
<mgrwt>
<rscale>  2 0.58128490E+03</rscale>
<asrwt>0</asrwt>
<pdfrwt beam="1">  1       21 0.44378116E-01 0.58128490E+03</pdfrwt>
<pdfrwt beam="2">  1       21 0.19017476E+00 0.58128490E+03</pdfrwt>
<totfact> 0.59574756E+02</totfact>
</mgrwt>
</event>
<event>
 4    1  0.4716816E-002  0.4815176E+03  0.7818608E-02  0.1018719E+00
         21   -1    0    0  503  502  0.00000000000E+00  0.00000000000E+00  0.21854188627E+04  0.21854188627E+04  0.00000000000E+00 0. -1.
         21   -1    0    0  501  503 -0.00000000000E+00 -0.00000000000E+00 -0.10623134443E+03  0.10623134443E+03  0.00000000000E+00 0.  1.
    9000007    1    1    2  501    0 -0.11515461435E+03  0.24207144352E+03  0.10808390485E+04  0.11832464738E+04  0.40000000000E+03 0. -1.
   -9000007    1    1    2    0  502  0.11515461435E+03 -0.24207144352E+03  0.99834846977E+03  0.11084037333E+04  0.40000000000E+03 0. -1.
<mgrwt>
<rscale>  2 0.48151757E+03</rscale>
<asrwt>0</asrwt>
<pdfrwt beam="1">  1       21 0.33621825E+00 0.48151757E+03</pdfrwt>
<pdfrwt beam="2">  1       21 0.16343285E-01 0.48151757E+03</pdfrwt>
<totfact> 0.54791757E+02</totfact>
</mgrwt>
</event>
<event>
 4    1  0.4716816E-002  0.4047629E+03  0.7818608E-02  0.1042143E+00
         21   -1    0    0  503  502  0.00000000000E+00  0.00000000000E+00  0.65059888981E+03  0.65059888981E+03  0.00000000000E+00 0. -1.
         21   -1    0    0  501  503 -0.00000000000E+00 -0.00000000000E+00 -0.27236836770E+03  0.27236836770E+03  0.00000000000E+00 0. -1.
    9000007    1    1    2  501    0 -0.58214936530E+02  0.21072757479E+02  0.62356152511E+02  0.40953794659E+03  0.40000000000E+03 0. -1.
   -9000007    1    1    2    0  502  0.58214936530E+02 -0.21072757479E+02  0.31587436960E+03  0.51342931092E+03  0.40000000000E+03 0. -1.
<mgrwt>
<rscale>  2 0.40476294E+03</rscale>
<asrwt>0</asrwt>
<pdfrwt beam="1">  1       21 0.10009214E+00 0.40476294E+03</pdfrwt>
<pdfrwt beam="2">  1       21 0.41902826E-01 0.40476294E+03</pdfrwt>
<totfact> 0.39902199E+03</totfact>
</mgrwt>
</event>
<event>
 4    1  0.4716816E-002  0.4491399E+03  0.7818608E-02  0.1027979E+00
         21   -1    0    0  501  502  0.00000000000E+00  0.00000000000E+00  0.45628425143E+03  0.45628425143E+03  0.00000000000E+00 0. -1.
         21   -1    0    0  502  503 -0.00000000000E+00 -0.00000000000E+00 -0.44217105715E+03  0.44217105715E+03  0.00000000000E+00 0. -1.
    9000007    1    1    2  501    0  0.19465523437E+03  0.61935114496E+02  0.12449028381E+02  0.44931236015E+03  0.40000000000E+03 0. -1.
   -9000007    1    1    2    0  503 -0.19465523437E+03 -0.61935114496E+02  0.16641658940E+01  0.44914294843E+03  0.40000000000E+03 0. -1.
<mgrwt>
<rscale>  2 0.44913987E+03</rscale>
<asrwt>0</asrwt>
<pdfrwt beam="1">  1       21 0.70197577E-01 0.44913987E+03</pdfrwt>
<pdfrwt beam="2">  1       21 0.68026316E-01 0.44913987E+03</pdfrwt>
<totfact> 0.31689958E+03</totfact>
</mgrwt>
</event>
<event>
 4    1  0.4716816E-002  0.7265329E+03  0.7818608E-02  0.9672903E-01
         21   -1    0    0  503  502  0.00000000000E+00  0.00000000000E+00  0.20938384754E+04  0.20938384754E+04  0.00000000000E+00 0. -1.
         21   -1    0    0  501  503 -0.00000000000E+00 -0.00000000000E+00 -0.44169818977E+03  0.44169818977E+03  0.00000000000E+00 0. -1.
    9000007    1    1    2  501    0  0.98751739036E+02  0.59841302851E+03 -0.45410986079E+01  0.72654709430E+03  0.40000000000E+03 0. -1.
   -9000007    1    1    2    0  502 -0.98751739036E+02 -0.59841302851E+03  0.16566813842E+04  0.18089895709E+04  0.40000000000E+03 0. -1.
<mgrwt>
<rscale>  2 0.72653290E+03</rscale>
<asrwt>0</asrwt>
<pdfrwt beam="1">  1       21 0.32212899E+00 0.72653290E+03</pdfrwt>
<pdfrwt beam="2">  1       21 0.67953569E-01 0.72653290E+03</pdfrwt>
<totfact> 0.32622430E+01</totfact>
</mgrwt>
</event>
<event>
 4    1  0.4716816E-002  0.4054986E+03  0.7818608E-02  0.1041892E+00
         21   -1    0    0  501  502  0.00000000000E+00  0.00000000000E+00  0.59615199392E+03  0.59615199392E+03  0.00000000000E+00 0.  1.
         21   -1    0    0  502  503 -0.00000000000E+00 -0.00000000000E+00 -0.27626121268E+03  0.27626121268E+03  0.00000000000E+00 0.  1.
    9000007    1    1    2  501    0  0.23468768488E+02  0.62276138230E+02  0.17742879323E+03  0.44261730327E+03  0.40000000000E+03 0. -1.
   -9000007    1    1    2    0  503 -0.23468768488E+02 -0.62276138230E+02  0.14246198801E+03  0.42979590332E+03  0.40000000000E+03 0. -1.
<mgrwt>
<rscale>  2 0.40549858E+03</rscale>
<asrwt>0</asrwt>
<pdfrwt beam="1">  1       21 0.91715691E-01 0.40549858E+03</pdfrwt>
<pdfrwt beam="2">  1       21 0.42501725E-01 0.40549858E+03</pdfrwt>
<totfact> 0.47755397E+03</totfact>
</mgrwt>
</event>
<event>
 4    1  0.4716816E-002  0.1018211E+04  0.7818608E-02  0.9288794E-01
         21   -1    0    0  501  502  0.00000000000E+00  0.00000000000E+00  0.80710410236E+03  0.80710410236E+03  0.00000000000E+00 0.  1.
         21   -1    0    0  502  503 -0.00000000000E+00 -0.00000000000E+00 -0.13088239805E+04  0.13088239805E+04  0.00000000000E+00 0. -1.
    9000007    1    1    2  501    0 -0.18537895094E+03 -0.91781696306E+03 -0.39498397778E+03  0.10921381212E+04  0.40000000000E+03 0. -1.
   -9000007    1    1    2    0  503  0.18537895094E+03  0.91781696306E+03 -0.10673590037E+03  0.10237899616E+04  0.40000000000E+03 0.  1.
<mgrwt>
<rscale>  2 0.10182108E+04</rscale>
<asrwt>0</asrwt>
<pdfrwt beam="1">  1       21 0.12416986E+00 0.10182108E+04</pdfrwt>
<pdfrwt beam="2">  1       21 0.20135753E+00 0.10182108E+04</pdfrwt>
<totfact> 0.40098444E+01</totfact>
</mgrwt>
</event>
<event>
 4    1  0.4716816E-002  0.4499917E+03  0.7818608E-02  0.1027725E+00
         21   -1    0    0  501  502  0.00000000000E+00  0.00000000000E+00  0.14507683706E+04  0.14507683706E+04  0.00000000000E+00 0.  1.
         21   -1    0    0  502  503 -0.00000000000E+00 -0.00000000000E+00 -0.17256962830E+03  0.17256962830E+03  0.00000000000E+00 0.  1.
    9000007    1    1    2  501    0  0.15029134295E+03  0.14108524408E+03  0.99400379904E+03  0.10911168986E+04  0.40000000000E+03 0.  1.
   -9000007    1    1    2    0  503 -0.15029134295E+03 -0.14108524408E+03  0.28419494330E+03  0.53222110035E+03  0.40000000000E+03 0.  1.
<mgrwt>
<rscale>  2 0.44999170E+03</rscale>
<asrwt>0</asrwt>
<pdfrwt beam="1">  1       21 0.22319513E+00 0.44999170E+03</pdfrwt>
<pdfrwt beam="2">  1       21 0.26549175E-01 0.44999170E+03</pdfrwt>
<totfact> 0.10773353E+03</totfact>
</mgrwt>
</event>
<event>
 4    1  0.4716816E-002  0.6375702E+03  0.7818608E-02  0.9830386E-01
         21   -1    0    0  503  502  0.00000000000E+00  0.00000000000E+00  0.40166186738E+03  0.40166186738E+03  0.00000000000E+00 0. -1.
         21   -1    0    0  501  503 -0.00000000000E+00 -0.00000000000E+00 -0.15404719243E+04  0.15404719243E+04  0.00000000000E+00 0. -1.
    9000007    1    1    2  501    0 -0.37137525517E+03 -0.32950905336E+03 -0.11381517504E+04  0.13045632232E+04  0.40000000000E+03 0. -1.
   -9000007    1    1    2    0  502  0.37137525517E+03  0.32950905336E+03 -0.65830649803E+00  0.63757056846E+03  0.40000000000E+03 0. -1.
<mgrwt>
<rscale>  2 0.63757023E+03</rscale>
<asrwt>0</asrwt>
<pdfrwt beam="1">  1       21 0.61794133E-01 0.63757023E+03</pdfrwt>
<pdfrwt beam="2">  1       21 0.23699568E+00 0.63757023E+03</pdfrwt>
<totfact> 0.14048399E+02</totfact>
</mgrwt>
</event>
<event>
 4    1  0.4716816E-002  0.4757736E+03  0.7818608E-02  0.1020303E+00
         21   -1    0    0  501  502  0.00000000000E+00  0.00000000000E+00  0.39093581577E+03  0.39093581577E+03  0.00000000000E+00 0.  1.
         21   -1    0    0  502  503 -0.00000000000E+00 -0.00000000000E+00 -0.60493681951E+03  0.60493681951E+03  0.00000000000E+00 0. -1.
    9000007    1    1    2  501    0 -0.23725098251E+03 -0.10036162794E+03 -0.39400890634E+01  0.47578987943E+03  0.40000000000E+03 0.  1.
   -9000007    1    1    2    0  503  0.23725098251E+03  0.10036162794E+03 -0.21006091467E+03  0.52008275585E+03  0.40000000000E+03 0. -1.
<mgrwt>
<rscale>  2 0.47577356E+03</rscale>
<asrwt>0</asrwt>
<pdfrwt beam="1">  1       21 0.60143971E-01 0.47577356E+03</pdfrwt>
<pdfrwt beam="2">  1       21 0.93067203E-01 0.47577356E+03</pdfrwt>
<totfact> 0.21454600E+03</totfact>
</mgrwt>
</event>
<event>
 4    1  0.4716816E-002  0.4650786E+03  0.7818608E-02  0.1023319E+00
         21   -1    0    0  501  502  0.00000000000E+00  0.00000000000E+00  0.13557680568E+04  0.13557680568E+04  0.00000000000E+00 0.  1.
         21   -1    0    0  502  503 -0.00000000000E+00 -0.00000000000E+00 -0.20926778037E+03  0.20926778037E+03  0.00000000000E+00 0. -1.
    9000007    1    1    2  501    0 -0.20428607432E+03 -0.12068665360E+03  0.95470785412E+03  0.10619628785E+04  0.40000000000E+03 0.  1.
   -9000007    1    1    2    0  503  0.20428607432E+03  0.12068665360E+03  0.19179242230E+03  0.50307295870E+03  0.40000000000E+03 0. -1.
<mgrwt>
<rscale>  2 0.46507856E+03</rscale>
<asrwt>0</asrwt>
<pdfrwt beam="1">  1       21 0.20857970E+00 0.46507856E+03</pdfrwt>
<pdfrwt beam="2">  1       21 0.32195044E-01 0.46507856E+03</pdfrwt>
<totfact> 0.90709348E+02</totfact>
</mgrwt>
</event>
<event>
 4    1  0.4716816E-002  0.5302025E+03  0.7818608E-02  0.1006183E+00
         21   -1    0    0  503  502  0.00000000000E+00  0.00000000000E+00  0.58216629001E+03  0.58216629001E+03  0.00000000000E+00 0.  1.
         21   -1    0    0  501  503 -0.00000000000E+00 -0.00000000000E+00 -0.53413113613E+03  0.53413113613E+03  0.00000000000E+00 0.  1.
    9000007    1    1    2  501    0  0.23547422907E+03 -0.25625492552E+03 -0.14888064540E+03  0.55070876694E+03  0.40000000000E+03 0.  1.
   -9000007    1    1    2    0  502 -0.23547422907E+03  0.25625492552E+03  0.19691579928E+03  0.56558865920E+03  0.40000000000E+03 0.  1.
<mgrwt>
<rscale>  2 0.53020251E+03</rscale>
<asrwt>0</asrwt>
<pdfrwt beam="1">  1       21 0.89564045E-01 0.53020251E+03</pdfrwt>
<pdfrwt beam="2">  1       21 0.82174021E-01 0.53020251E+03</pdfrwt>
<totfact> 0.11393284E+03</totfact>
</mgrwt>
</event>
<event>
 4    1  0.4716816E-002  0.4177851E+03  0.7818608E-02  0.1037790E+00
         21   -1    0    0  503  502  0.00000000000E+00  0.00000000000E+00  0.38973547928E+03  0.38973547928E+03  0.00000000000E+00 0. -1.
         21   -1    0    0  501  503 -0.00000000000E+00 -0.00000000000E+00 -0.75989322515E+03  0.75989322515E+03  0.00000000000E+00 0. -1.
    9000007    1    1    2  501    0  0.44578895126E+02 -0.11205841794E+03 -0.55342517708E+03  0.69341458994E+03  0.40000000000E+03 0. -1.
   -9000007    1    1    2    0  502 -0.44578895126E+02  0.11205841794E+03  0.18326743120E+03  0.45621411449E+03  0.40000000000E+03 0. -1.
<mgrwt>
<rscale>  2 0.41778507E+03</rscale>
<asrwt>0</asrwt>
<pdfrwt beam="1">  1       21 0.59959305E-01 0.41778507E+03</pdfrwt>
<pdfrwt beam="2">  1       21 0.11690665E+00 0.41778507E+03</pdfrwt>
<totfact> 0.12633415E+03</totfact>
</mgrwt>
</event>
<event>
 4    1  0.4716816E-002  0.4056184E+03  0.7818608E-02  0.1041851E+00
         21   -1    0    0  501  502  0.00000000000E+00  0.00000000000E+00  0.27473352535E+04  0.27473352535E+04  0.00000000000E+00 0. -1.
         21   -1    0    0  502  503 -0.00000000000E+00 -0.00000000000E+00 -0.60618644586E+02  0.60618644586E+02  0.00000000000E+00 0. -1.
    9000007    1    1    2  501    0 -0.12131677833E+02 -0.66174726291E+02  0.11889845999E+04  0.12562685425E+04  0.40000000000E+03 0. -1.
   -9000007    1    1    2    0  503  0.12131677833E+02  0.66174726291E+02  0.14977320090E+04  0.15516853556E+04  0.40000000000E+03 0. -1.
<mgrwt>
<rscale>  2 0.40561838E+03</rscale>
<asrwt>0</asrwt>
<pdfrwt beam="1">  1       21 0.42266686E+00 0.40561838E+03</pdfrwt>
<pdfrwt beam="2">  1       21 0.93259475E-02 0.40561838E+03</pdfrwt>
<totfact> 0.45727273E+02</totfact>
</mgrwt>
</event>
<event>
 4    1  0.4716816E-002  0.4650875E+03  0.7818608E-02  0.1023316E+00
         21   -1    0    0  503  502  0.00000000000E+00  0.00000000000E+00  0.44164786889E+03  0.44164786889E+03  0.00000000000E+00 0. -1.
         21   -1    0    0  501  503 -0.00000000000E+00 -0.00000000000E+00 -0.67297329965E+03  0.67297329965E+03  0.00000000000E+00 0. -1.
    9000007    1    1    2  501    0  0.13300658149E+03 -0.19650866062E+03 -0.40644209374E+03  0.61765814168E+03  0.40000000000E+03 0.  1.
   -9000007    1    1    2    0  502 -0.13300658149E+03  0.19650866062E+03  0.17511666298E+03  0.49696302687E+03  0.40000000000E+03 0.  1.
<mgrwt>
<rscale>  2 0.46508752E+03</rscale>
<asrwt>0</asrwt>
<pdfrwt beam="1">  1       21 0.67945826E-01 0.46508752E+03</pdfrwt>
<pdfrwt beam="2">  1       21 0.10353435E+00 0.46508752E+03</pdfrwt>
<totfact> 0.12695989E+03</totfact>
</mgrwt>
</event>
<event>
 4    1  0.4716816E-002  0.4430072E+03  0.7818608E-02  0.1029828E+00
         21   -1    0    0  501  502  0.00000000000E+00  0.00000000000E+00  0.90314911851E+03  0.90314911851E+03  0.00000000000E+00 0. -1.
         21   -1    0    0  502  503 -0.00000000000E+00 -0.00000000000E+00 -0.31595616782E+03  0.31595616782E+03  0.00000000000E+00 0.  1.
    9000007    1    1    2  501    0  0.16035455196E+03  0.10267342879E+03  0.63420633169E+03  0.77361042293E+03  0.40000000000E+03 0. -1.
   -9000007    1    1    2    0  503 -0.16035455196E+03 -0.10267342879E+03 -0.47013381005E+02  0.44549486339E+03  0.40000000000E+03 0.  1.
<mgrwt>
<rscale>  2 0.44300724E+03</rscale>
<asrwt>0</asrwt>
<pdfrwt beam="1">  1       21 0.13894602E+00 0.44300724E+03</pdfrwt>
<pdfrwt beam="2">  1       21 0.48608641E-01 0.44300724E+03</pdfrwt>
<totfact> 0.12572110E+03</totfact>
</mgrwt>
</event>
<event>
 4    1  0.4716816E-002  0.5162000E+03  0.7818608E-02  0.1009635E+00
         21   -1    0    0  501  502  0.00000000000E+00  0.00000000000E+00  0.16650543615E+04  0.16650543615E+04  0.00000000000E+00 0. -1.
         21   -1    0    0  502  503 -0.00000000000E+00 -0.00000000000E+00 -0.28136256465E+03  0.28136256465E+03  0.00000000000E+00 0. -1.
    9000007    1    1    2  501    0  0.72465441301E+02  0.31813714287E+03  0.13309289340E+04  0.14275273410E+04  0.40000000000E+03 0. -1.
   -9000007    1    1    2    0  503 -0.72465441301E+02 -0.31813714287E+03  0.52762862772E+02  0.51888958512E+03  0.40000000000E+03 0. -1.
<mgrwt>
<rscale>  2 0.51620004E+03</rscale>
<asrwt>0</asrwt>
<pdfrwt beam="1">  1       21 0.25616220E+00 0.51620004E+03</pdfrwt>
<pdfrwt beam="2">  1       21 0.43286550E-01 0.51620004E+03</pdfrwt>
<totfact> 0.24199130E+02</totfact>
</mgrwt>
</event>
<event>
 4    1  0.4716816E-002  0.4582068E+03  0.7818608E-02  0.1025303E+00
         21   -1    0    0  501  502  0.00000000000E+00  0.00000000000E+00  0.12761902681E+04  0.12761902681E+04  0.00000000000E+00 0. -1.
         21   -1    0    0  502  503 -0.00000000000E+00 -0.00000000000E+00 -0.25434489982E+03  0.25434489982E+03  0.00000000000E+00 0. -1.
    9000007    1    1    2  501    0  0.21279650828E+03  0.68345515692E+02  0.96571207322E+03  0.10689028355E+04  0.40000000000E+03 0. -1.
   -9000007    1    1    2    0  503 -0.21279650828E+03 -0.68345515692E+02  0.56133295027E+02  0.46163233234E+03  0.40000000000E+03 0. -1.
<mgrwt>
<rscale>  2 0.45820679E+03</rscale>
<asrwt>0</asrwt>
<pdfrwt beam="1">  1       21 0.19633696E+00 0.45820679E+03</pdfrwt>
<pdfrwt beam="2">  1       21 0.39129985E-01 0.45820679E+03</pdfrwt>
<totfact> 0.73863166E+02</totfact>
</mgrwt>
</event>
<event>
 4    1  0.4716816E-002  0.4675613E+03  0.7818608E-02  0.1022611E+00
         21   -1    0    0  501  502  0.00000000000E+00  0.00000000000E+00  0.19893977255E+04  0.19893977255E+04  0.00000000000E+00 0. -1.
         21   -1    0    0  502  503 -0.00000000000E+00 -0.00000000000E+00 -0.20963764337E+03  0.20963764337E+03  0.00000000000E+00 0. -1.
    9000007    1    1    2  501    0  0.22431259843E+03 -0.91090395765E+02  0.16483184950E+04  0.17133497784E+04  0.40000000000E+03 0. -1.
   -9000007    1    1    2    0  503 -0.22431259843E+03  0.91090395765E+02  0.13144158712E+03  0.48568559052E+03  0.40000000000E+03 0. -1.
<mgrwt>
<rscale>  2 0.46756134E+03</rscale>
<asrwt>0</asrwt>
<pdfrwt beam="1">  1       21 0.30606118E+00 0.46756134E+03</pdfrwt>
<pdfrwt beam="2">  1       21 0.32251946E-01 0.46756134E+03</pdfrwt>
<totfact> 0.22596391E+02</totfact>
</mgrwt>
</event>
<event>
 4    1  0.4716816E-002  0.4270247E+03  0.7818608E-02  0.1034804E+00
         21   -1    0    0  503  502  0.00000000000E+00  0.00000000000E+00  0.51600872891E+03  0.51600872891E+03  0.00000000000E+00 0.  1.
         21   -1    0    0  501  503 -0.00000000000E+00 -0.00000000000E+00 -0.36554020357E+03  0.36554020357E+03  0.00000000000E+00 0. -1.
    9000007    1    1    2  501    0  0.31828483563E+02 -0.14607215083E+03  0.15560848478E+03  0.45449326304E+03  0.40000000000E+03 0.  1.
   -9000007    1    1    2    0  502 -0.31828483563E+02  0.14607215083E+03 -0.51399594358E+01  0.42705566944E+03  0.40000000000E+03 0.  1.
<mgrwt>
<rscale>  2 0.42702474E+03</rscale>
<asrwt>0</asrwt>
<pdfrwt beam="1">  1       21 0.79385958E-01 0.42702474E+03</pdfrwt>
<pdfrwt beam="2">  1       21 0.56236955E-01 0.42702474E+03</pdfrwt>
<totfact> 0.36699889E+03</totfact>
</mgrwt>
</event>
<event>
 4    1  0.4716816E-002  0.4129472E+03  0.7818608E-02  0.1039387E+00
         21   -1    0    0  501  502  0.00000000000E+00  0.00000000000E+00  0.29273533130E+03  0.29273533130E+03  0.00000000000E+00 0. -1.
         21   -1    0    0  502  503 -0.00000000000E+00 -0.00000000000E+00 -0.10637510896E+04  0.10637510896E+04  0.00000000000E+00 0. -1.
    9000007    1    1    2  501    0  0.91778095106E+02  0.45849288698E+02  0.70676540883E+02  0.41895172687E+03  0.40000000000E+03 0. -1.
   -9000007    1    1    2    0  503 -0.91778095106E+02 -0.45849288698E+02 -0.84169229920E+03  0.93753469405E+03  0.40000000000E+03 0. -1.
<mgrwt>
<rscale>  2 0.41294718E+03</rscale>
<asrwt>0</asrwt>
<pdfrwt beam="1">  1       21 0.45036205E-01 0.41294718E+03</pdfrwt>
<pdfrwt beam="2">  1       21 0.16365401E+00 0.41294718E+03</pdfrwt>
<totfact> 0.95840102E+02</totfact>
</mgrwt>
</event>
<event>
 4    1  0.4716816E-002  0.4101407E+03  0.7818608E-02  0.1040324E+00
         21   -1    0    0  501  502  0.00000000000E+00  0.00000000000E+00  0.62701289251E+03  0.62701289251E+03  0.00000000000E+00 0. -1.
         21   -1    0    0  502  503 -0.00000000000E+00 -0.00000000000E+00 -0.39361772933E+03  0.39361772933E+03  0.00000000000E+00 0. -1.
    9000007    1    1    2  501    0 -0.58710822938E+02 -0.69054059225E+02  0.40466348283E+03  0.57616660626E+03  0.40000000000E+03 0. -1.
   -9000007    1    1    2    0  503  0.58710822938E+02  0.69054059225E+02 -0.17126831966E+03  0.44446401558E+03  0.40000000000E+03 0. -1.
<mgrwt>
<rscale>  2 0.41014074E+03</rscale>
<asrwt>0</asrwt>
<pdfrwt beam="1">  1       21 0.96463522E-01 0.41014074E+03</pdfrwt>
<pdfrwt beam="2">  1       21 0.60556574E-01 0.41014074E+03</pdfrwt>
<totfact> 0.19888728E+03</totfact>
</mgrwt>
</event>
<event>
 4    1  0.4716816E-002  0.5063550E+03  0.7818608E-02  0.1012133E+00
         21   -1    0    0  501  502  0.00000000000E+00  0.00000000000E+00  0.29804841838E+03  0.29804841838E+03  0.00000000000E+00 0.  1.
         21   -1    0    0  502  503 -0.00000000000E+00 -0.00000000000E+00 -0.87911823846E+03  0.87911823846E+03  0.00000000000E+00 0.  1.
    9000007    1    1    2  501    0 -0.28201726419E+03 -0.12985259093E+03 -0.37676875684E+03  0.63114984655E+03  0.40000000000E+03 0.  1.
   -9000007    1    1    2    0  503  0.28201726419E+03  0.12985259093E+03 -0.20430106325E+03  0.54601681029E+03  0.40000000000E+03 0.  1.
<mgrwt>
<rscale>  2 0.50635505E+03</rscale>
<asrwt>0</asrwt>
<pdfrwt beam="1">  1       21 0.45853603E-01 0.50635505E+03</pdfrwt>
<pdfrwt beam="2">  1       21 0.13524896E+00 0.50635505E+03</pdfrwt>
<totfact> 0.14901230E+03</totfact>
</mgrwt>
</event>
<event>
 4    1  0.4716816E-002  0.4015145E+03  0.7818608E-02  0.1043257E+00
         21   -1    0    0  503  502  0.00000000000E+00  0.00000000000E+00  0.11422904353E+04  0.11422904353E+04  0.00000000000E+00 0.  1.
         21   -1    0    0  501  503 -0.00000000000E+00 -0.00000000000E+00 -0.18356213818E+03  0.18356213818E+03  0.00000000000E+00 0.  1.
    9000007    1    1    2  501    0  0.86863496691E+01 -0.33741327931E+02  0.16064362473E+03  0.43245844199E+03  0.40000000000E+03 0.  1.
   -9000007    1    1    2    0  502 -0.86863496691E+01  0.33741327931E+02  0.79808467242E+03  0.89339413152E+03  0.40000000000E+03 0.  1.
<mgrwt>
<rscale>  2 0.40151455E+03</rscale>
<asrwt>0</asrwt>
<pdfrwt beam="1">  1       21 0.17573699E+00 0.40151455E+03</pdfrwt>
<pdfrwt beam="2">  1       21 0.28240330E-01 0.40151455E+03</pdfrwt>
<totfact> 0.20271792E+03</totfact>
</mgrwt>
</event>
<event>
 4    1  0.4716816E-002  0.4528365E+03  0.7818608E-02  0.1026880E+00
         21   -1    0    0  501  502  0.00000000000E+00  0.00000000000E+00  0.24539841825E+03  0.24539841825E+03  0.00000000000E+00 0.  1.
         21   -1    0    0  502  503 -0.00000000000E+00 -0.00000000000E+00 -0.83853691882E+03  0.83853691882E+03  0.00000000000E+00 0. -1.
    9000007    1    1    2  501    0 -0.98277894209E+02 -0.18815519452E+03 -0.26462873738E+03  0.52448955220E+03  0.40000000000E+03 0.  1.
   -9000007    1    1    2    0  503  0.98277894209E+02  0.18815519452E+03 -0.32850976319E+03  0.55944578488E+03  0.40000000000E+03 0.  1.
<mgrwt>
<rscale>  2 0.45283653E+03</rscale>
<asrwt>0</asrwt>
<pdfrwt beam="1">  1       21 0.37753603E-01 0.45283653E+03</pdfrwt>
<pdfrwt beam="2">  1       21 0.12900568E+00 0.45283653E+03</pdfrwt>
<totfact> 0.25726376E+03</totfact>
</mgrwt>
</event>
<event>
 4    1  0.4716816E-002  0.4078362E+03  0.7818608E-02  0.1041100E+00
         21   -1    0    0  503  502  0.00000000000E+00  0.00000000000E+00  0.60805095054E+03  0.60805095054E+03  0.00000000000E+00 0.  1.
         21   -1    0    0  501  503 -0.00000000000E+00 -0.00000000000E+00 -0.36229537795E+03  0.36229537795E+03  0.00000000000E+00 0.  1.
    9000007    1    1    2  501    0  0.45120581919E+02 -0.65532524001E+02 -0.11725205227E+03  0.42435648030E+03  0.40000000000E+03 0.  1.
   -9000007    1    1    2    0  502 -0.45120581919E+02  0.65532524001E+02  0.36300762486E+03  0.54598984819E+03  0.40000000000E+03 0.  1.
<mgrwt>
<rscale>  2 0.40783622E+03</rscale>
<asrwt>0</asrwt>
<pdfrwt beam="1">  1       21 0.93546300E-01 0.40783622E+03</pdfrwt>
<pdfrwt beam="2">  1       21 0.55737750E-01 0.40783622E+03</pdfrwt>
<totfact> 0.25658327E+03</totfact>
</mgrwt>
</event>
<event>
 4    1  0.4716816E-002  0.4207710E+03  0.7818608E-02  0.1036816E+00
         21   -1    0    0  501  502  0.00000000000E+00  0.00000000000E+00  0.26160786548E+03  0.26160786548E+03  0.00000000000E+00 0. -1.
         21   -1    0    0  502  503 -0.00000000000E+00 -0.00000000000E+00 -0.68391784496E+03  0.68391784496E+03  0.00000000000E+00 0.  1.
    9000007    1    1    2  501    0  0.74860053562E+02 -0.10697770707E+03 -0.25948760392E+03  0.49435015325E+03  0.40000000000E+03 0.  1.
   -9000007    1    1    2    0  503 -0.74860053562E+02  0.10697770707E+03 -0.16282237556E+03  0.45117555720E+03  0.40000000000E+03 0. -1.
<mgrwt>
<rscale>  2 0.42077103E+03</rscale>
<asrwt>0</asrwt>
<pdfrwt beam="1">  1       21 0.40247364E-01 0.42077103E+03</pdfrwt>
<pdfrwt beam="2">  1       21 0.10521813E+00 0.42077103E+03</pdfrwt>
<totfact> 0.38149427E+03</totfact>
</mgrwt>
</event>
<event>
 4    1  0.4716816E-002  0.6464327E+03  0.7818608E-02  0.9813496E-01
         21   -1    0    0  503  502  0.00000000000E+00  0.00000000000E+00  0.21398947838E+03  0.21398947838E+03  0.00000000000E+00 0. -1.
         21   -1    0    0  501  503 -0.00000000000E+00 -0.00000000000E+00 -0.24365336168E+04  0.24365336168E+04  0.00000000000E+00 0. -1.
    9000007    1    1    2  501    0  0.47667137740E+02 -0.50557206620E+03 -0.17017798510E+04  0.18204202623E+04  0.40000000000E+03 0. -1.
   -9000007    1    1    2    0  502 -0.47667137740E+02  0.50557206620E+03 -0.52076428750E+03  0.83010283296E+03  0.40000000000E+03 0. -1.
<mgrwt>
<rscale>  2 0.64643273E+03</rscale>
<asrwt>0</asrwt>
<pdfrwt beam="1">  1       21 0.32921459E-01 0.64643273E+03</pdfrwt>
<pdfrwt beam="2">  1       21 0.37485131E+00 0.64643273E+03</pdfrwt>
<totfact> 0.74415131E+01</totfact>
</mgrwt>
</event>
<event>
 4    1  0.4716816E-002  0.4798039E+03  0.7818608E-02  0.1019189E+00
         21   -1    0    0  503  502  0.00000000000E+00  0.00000000000E+00  0.39659852738E+03  0.39659852738E+03  0.00000000000E+00 0. -1.
         21   -1    0    0  501  503 -0.00000000000E+00 -0.00000000000E+00 -0.63671984806E+03  0.63671984806E+03  0.00000000000E+00 0. -1.
    9000007    1    1    2  501    0  0.16636409056E+03  0.20623954334E+03 -0.27363124456E+03  0.55234574124E+03  0.40000000000E+03 0. -1.
   -9000007    1    1    2    0  502 -0.16636409056E+03 -0.20623954334E+03  0.33509923884E+02  0.48097263421E+03  0.40000000000E+03 0. -1.
<mgrwt>
<rscale>  2 0.47980388E+03</rscale>
<asrwt>0</asrwt>
<pdfrwt beam="1">  1       21 0.61015159E-01 0.47980388E+03</pdfrwt>
<pdfrwt beam="2">  1       21 0.97956898E-01 0.47980388E+03</pdfrwt>
<totfact> 0.18353439E+03</totfact>
</mgrwt>
</event>
<event>
 4    1  0.4716816E-002  0.4213781E+03  0.7818608E-02  0.1036619E+00
         21   -1    0    0  501  502  0.00000000000E+00  0.00000000000E+00  0.96011907355E+03  0.96011907355E+03  0.00000000000E+00 0. -1.
         21   -1    0    0  502  503 -0.00000000000E+00 -0.00000000000E+00 -0.19394097418E+03  0.19394097418E+03  0.00000000000E+00 0. -1.
    9000007    1    1    2  501    0  0.88031106836E+02  0.99045622709E+02  0.50743502373E+03  0.65958306108E+03  0.40000000000E+03 0. -1.
   -9000007    1    1    2    0  503 -0.88031106836E+02 -0.99045622709E+02  0.25874307564E+03  0.49447698666E+03  0.40000000000E+03 0. -1.
<mgrwt>
<rscale>  2 0.42137811E+03</rscale>
<asrwt>0</asrwt>
<pdfrwt beam="1">  1       21 0.14771062E+00 0.42137811E+03</pdfrwt>
<pdfrwt beam="2">  1       21 0.29837074E-01 0.42137811E+03</pdfrwt>
<totfact> 0.29237656E+03</totfact>
</mgrwt>
</event>
<event>
 4    1  0.4716816E-002  0.4407028E+03  0.7818608E-02  0.1030531E+00
         21   -1    0    0  503  502  0.00000000000E+00  0.00000000000E+00  0.27247283636E+04  0.27247283636E+04  0.00000000000E+00 0.  1.
         21   -1    0    0  501  503 -0.00000000000E+00 -0.00000000000E+00 -0.72610943140E+02  0.72610943140E+02  0.00000000000E+00 0.  1.
    9000007    1    1    2  501    0 -0.18149764426E+03  0.35743540795E+02  0.15154118180E+04  0.15781926289E+04  0.40000000000E+03 0.  1.
   -9000007    1    1    2    0  502  0.18149764426E+03 -0.35743540795E+02  0.11367056025E+04  0.12191466779E+04  0.40000000000E+03 0.  1.
<mgrwt>
<rscale>  2 0.44070284E+03</rscale>
<asrwt>0</asrwt>
<pdfrwt beam="1">  1       21 0.41918890E+00 0.44070284E+03</pdfrwt>
<pdfrwt beam="2">  1       21 0.11170916E-01 0.44070284E+03</pdfrwt>
<totfact> 0.33996625E+02</totfact>
</mgrwt>
</event>
<event>
 4    1  0.4716816E-002  0.4008687E+03  0.7818608E-02  0.1043479E+00
         21   -1    0    0  503  502  0.00000000000E+00  0.00000000000E+00  0.18139285721E+03  0.18139285721E+03  0.00000000000E+00 0.  1.
         21   -1    0    0  501  503 -0.00000000000E+00 -0.00000000000E+00 -0.12448801488E+04  0.12448801488E+04  0.00000000000E+00 0.  1.
    9000007    1    1    2  501    0  0.11458820032E+02  0.23757028812E+02 -0.91469612364E+03  0.99868148054E+03  0.40000000000E+03 0.  1.
   -9000007    1    1    2    0  502 -0.11458820032E+02 -0.23757028812E+02 -0.14879116793E+03  0.42759152544E+03  0.40000000000E+03 0.  1.
<mgrwt>
<rscale>  2 0.40086868E+03</rscale>
<asrwt>0</asrwt>
<pdfrwt beam="1">  1       21 0.27906593E-01 0.40086868E+03</pdfrwt>
<pdfrwt beam="2">  1       21 0.19152002E+00 0.40086868E+03</pdfrwt>
<totfact> 0.16130019E+03</totfact>
</mgrwt>
</event>
<event>
 4    1  0.4716816E-002  0.4630568E+03  0.7818608E-02  0.1023898E+00
         21   -1    0    0  501  502  0.00000000000E+00  0.00000000000E+00  0.54059236744E+03  0.54059236744E+03  0.00000000000E+00 0.  1.
         21   -1    0    0  502  503 -0.00000000000E+00 -0.00000000000E+00 -0.42384206835E+03  0.42384206835E+03  0.00000000000E+00 0.  1.
    9000007    1    1    2  501    0  0.20975750962E+03  0.10209512172E+03  0.18053425514E+03  0.49700527563E+03  0.40000000000E+03 0.  1.
   -9000007    1    1    2    0  503 -0.20975750962E+03 -0.10209512172E+03 -0.63783956056E+02  0.46742916017E+03  0.40000000000E+03 0.  1.
<mgrwt>
<rscale>  2 0.46305683E+03</rscale>
<asrwt>0</asrwt>
<pdfrwt beam="1">  1       21 0.83168057E-01 0.46305683E+03</pdfrwt>
<pdfrwt beam="2">  1       21 0.65206472E-01 0.46305683E+03</pdfrwt>
<totfact> 0.23505133E+03</totfact>
</mgrwt>
</event>
<event>
 4    1  0.4716816E-002  0.4557367E+03  0.7818608E-02  0.1026025E+00
         21   -1    0    0  503  502  0.00000000000E+00  0.00000000000E+00  0.32147201363E+03  0.32147201363E+03  0.00000000000E+00 0.  1.
         21   -1    0    0  501  503 -0.00000000000E+00 -0.00000000000E+00 -0.75938511350E+03  0.75938511350E+03  0.00000000000E+00 0. -1.
    9000007    1    1    2  501    0  0.39539618389E+02  0.21478491226E+03 -0.42771120813E+03  0.62500625398E+03  0.40000000000E+03 0. -1.
   -9000007    1    1    2    0  502 -0.39539618389E+02 -0.21478491226E+03 -0.10201891735E+02  0.45585087315E+03  0.40000000000E+03 0. -1.
<mgrwt>
<rscale>  2 0.45573670E+03</rscale>
<asrwt>0</asrwt>
<pdfrwt beam="1">  1       21 0.49457233E-01 0.45573670E+03</pdfrwt>
<pdfrwt beam="2">  1       21 0.11682848E+00 0.45573670E+03</pdfrwt>
<totfact> 0.18868888E+03</totfact>
</mgrwt>
</event>
<event>
 4    1  0.4716816E-002  0.5875015E+03  0.7818608E-02  0.9931681E-01
         21   -1    0    0  501  502  0.00000000000E+00  0.00000000000E+00  0.25113539668E+03  0.25113539668E+03  0.00000000000E+00 0. -1.
         21   -1    0    0  502  503 -0.00000000000E+00 -0.00000000000E+00 -0.15975399522E+04  0.15975399522E+04  0.00000000000E+00 0. -1.
    9000007    1    1    2  501    0 -0.40358553076E+03  0.14925380025E+03 -0.32773796474E+03  0.67273334320E+03  0.40000000000E+03 0. -1.
   -9000007    1    1    2    0  503  0.40358553076E+03 -0.14925380025E+03 -0.10186665908E+04  0.11759420057E+04  0.40000000000E+03 0. -1.
<mgrwt>
<rscale>  2 0.58750147E+03</rscale>
<asrwt>0</asrwt>
<pdfrwt beam="1">  1       21 0.38636214E-01 0.58750147E+03</pdfrwt>
<pdfrwt beam="2">  1       21 0.24577538E+00 0.58750147E+03</pdfrwt>
<totfact> 0.34417570E+02</totfact>
</mgrwt>
</event>
<event>
 4    1  0.4716816E-002  0.4208086E+03  0.7818608E-02  0.1036803E+00
         21   -1    0    0  501  502  0.00000000000E+00  0.00000000000E+00  0.39041692282E+03  0.39041692282E+03  0.00000000000E+00 0.  1.
         21   -1    0    0  502  503 -0.00000000000E+00 -0.00000000000E+00 -0.45366540377E+03  0.45366540377E+03  0.00000000000E+00 0.  1.
    9000007    1    1    2  501    0  0.39016619237E+02 -0.12473010150E+03 -0.25381246834E+02  0.42157336549E+03  0.40000000000E+03 0. -1.
   -9000007    1    1    2    0  503 -0.39016619237E+02  0.12473010150E+03 -0.37867234116E+02  0.42250896111E+03  0.40000000000E+03 0. -1.
<mgrwt>
<rscale>  2 0.42080862E+03</rscale>
<asrwt>0</asrwt>
<pdfrwt beam="1">  1       21 0.60064142E-01 0.42080862E+03</pdfrwt>
<pdfrwt beam="2">  1       21 0.69794677E-01 0.42080862E+03</pdfrwt>
<totfact> 0.42718145E+03</totfact>
</mgrwt>
</event>
<event>
 4    1  0.4716816E-002  0.4296389E+03  0.7818608E-02  0.1033974E+00
         21   -1    0    0  501  502  0.00000000000E+00  0.00000000000E+00  0.16207141113E+04  0.16207141113E+04  0.00000000000E+00 0.  1.
         21   -1    0    0  502  503 -0.00000000000E+00 -0.00000000000E+00 -0.20753629223E+03  0.20753629223E+03  0.00000000000E+00 0.  1.
    9000007    1    1    2  501    0 -0.11408413331E+03  0.10758428280E+03  0.13206261890E+04  0.13887559535E+04  0.40000000000E+03 0.  1.
   -9000007    1    1    2    0  503  0.11408413331E+03 -0.10758428280E+03  0.92551630116E+02  0.43949445004E+03  0.40000000000E+03 0.  1.
<mgrwt>
<rscale>  2 0.42963888E+03</rscale>
<asrwt>0</asrwt>
<pdfrwt beam="1">  1       21 0.24934062E+00 0.42963888E+03</pdfrwt>
<pdfrwt beam="2">  1       21 0.31928661E-01 0.42963888E+03</pdfrwt>
<totfact> 0.51909563E+02</totfact>
</mgrwt>
</event>
<event>
 4    1  0.4716816E-002  0.4348098E+03  0.7818608E-02  0.1032351E+00
         21   -1    0    0  501  502  0.00000000000E+00  0.00000000000E+00  0.18842098272E+03  0.18842098272E+03  0.00000000000E+00 0.  1.
         21   -1    0    0  502  503 -0.00000000000E+00 -0.00000000000E+00 -0.25020079342E+04  0.25020079342E+04  0.00000000000E+00 0.  1.
    9000007    1    1    2  501    0  0.33224457597E+02  0.16719959476E+03 -0.11569269626E+03  0.44993818357E+03  0.40000000000E+03 0.  1.
   -9000007    1    1    2    0  503 -0.33224457597E+02 -0.16719959476E+03 -0.21978942552E+04  0.22404907333E+04  0.40000000000E+03 0.  1.
<mgrwt>
<rscale>  2 0.43480981E+03</rscale>
<asrwt>0</asrwt>
<pdfrwt beam="1">  1       21 0.28987845E-01 0.43480981E+03</pdfrwt>
<pdfrwt beam="2">  1       21 0.38492427E+00 0.43480981E+03</pdfrwt>
<totfact> 0.93721736E+01</totfact>
</mgrwt>
</event>
<event>
 4    1  0.4716816E-002  0.4049616E+03  0.7818608E-02  0.1042075E+00
         21   -1    0    0  503  502  0.00000000000E+00  0.00000000000E+00  0.14830425225E+04  0.14830425225E+04  0.00000000000E+00 0. -1.
         21   -1    0    0  501  503 -0.00000000000E+00 -0.00000000000E+00 -0.44009082121E+03  0.44009082121E+03  0.00000000000E+00 0.  1.
    9000007    1    1    2  501    0  0.30855979155E+02 -0.55152562991E+02 -0.31056281272E+03  0.51033631783E+03  0.40000000000E+03 0.  1.
   -9000007    1    1    2    0  502 -0.30855979155E+02  0.55152562991E+02  0.13535145140E+04  0.14127970259E+04  0.40000000000E+03 0. -1.
<mgrwt>
<rscale>  2 0.40496160E+03</rscale>
<asrwt>0</asrwt>
<pdfrwt beam="1">  1       21 0.22816038E+00 0.40496160E+03</pdfrwt>
<pdfrwt beam="2">  1       21 0.67706281E-01 0.40496160E+03</pdfrwt>
<totfact> 0.14636624E+02</totfact>
</mgrwt>
</event>
<event>
 4    1  0.4716816E-002  0.4177446E+03  0.7818608E-02  0.1037803E+00
         21   -1    0    0  503  502  0.00000000000E+00  0.00000000000E+00  0.19728541476E+03  0.19728541476E+03  0.00000000000E+00 0. -1.
         21   -1    0    0  501  503 -0.00000000000E+00 -0.00000000000E+00 -0.13617669438E+04  0.13617669438E+04  0.00000000000E+00 0. -1.
    9000007    1    1    2  501    0 -0.11568334128E+03  0.33584897697E+02 -0.10436998092E+04  0.11241974349E+04  0.40000000000E+03 0. -1.
   -9000007    1    1    2    0  502  0.11568334128E+03 -0.33584897697E+02 -0.12078171980E+03  0.43485492367E+03  0.40000000000E+03 0. -1.
<mgrwt>
<rscale>  2 0.41774464E+03</rscale>
<asrwt>0</asrwt>
<pdfrwt beam="1">  1       21 0.30351600E-01 0.41774464E+03</pdfrwt>
<pdfrwt beam="2">  1       21 0.20950262E+00 0.41774464E+03</pdfrwt>
<totfact> 0.10292616E+03</totfact>
</mgrwt>
</event>
<event>
 4    1  0.4716816E-002  0.4046954E+03  0.7818608E-02  0.1042166E+00
         21   -1    0    0  501  502  0.00000000000E+00  0.00000000000E+00  0.53781573257E+03  0.53781573257E+03  0.00000000000E+00 0. -1.
         21   -1    0    0  502  503 -0.00000000000E+00 -0.00000000000E+00 -0.54765359259E+03  0.54765359259E+03  0.00000000000E+00 0. -1.
    9000007    1    1    2  501    0 -0.55288114233E+02 -0.26863155599E+02  0.35670111236E+03  0.53945721634E+03  0.40000000000E+03 0. -1.
   -9000007    1    1    2    0  503  0.55288114233E+02  0.26863155599E+02 -0.36653897238E+03  0.54601210882E+03  0.40000000000E+03 0. -1.
<mgrwt>
<rscale>  2 0.40469545E+03</rscale>
<asrwt>0</asrwt>
<pdfrwt beam="1">  1       21 0.82740882E-01 0.40469545E+03</pdfrwt>
<pdfrwt beam="2">  1       21 0.84254399E-01 0.40469545E+03</pdfrwt>
<totfact> 0.13588881E+03</totfact>
</mgrwt>
</event>
<event>
 4    1  0.4716816E-002  0.5772564E+03  0.7818608E-02  0.9953749E-01
         21   -1    0    0  501  502  0.00000000000E+00  0.00000000000E+00  0.81211041294E+03  0.81211041294E+03  0.00000000000E+00 0. -1.
         21   -1    0    0  502  503 -0.00000000000E+00 -0.00000000000E+00 -0.46725861618E+03  0.46725861618E+03  0.00000000000E+00 0. -1.
    9000007    1    1    2  501    0  0.25150081220E+03 -0.33162068854E+03  0.39572737508E+03  0.69987505670E+03  0.40000000000E+03 0. -1.
   -9000007    1    1    2    0  503 -0.25150081220E+03  0.33162068854E+03 -0.50875578331E+02  0.57949397242E+03  0.40000000000E+03 0. -1.
<mgrwt>
<rscale>  2 0.57725639E+03</rscale>
<asrwt>0</asrwt>
<pdfrwt beam="1">  1       21 0.12494006E+00 0.57725639E+03</pdfrwt>
<pdfrwt beam="2">  1       21 0.71885941E-01 0.57725639E+03</pdfrwt>
<totfact> 0.66924719E+02</totfact>
</mgrwt>
</event>
<event>
 4    1  0.4716816E-002  0.4241013E+03  0.7818608E-02  0.1035740E+00
         21   -1    0    0  501  502  0.00000000000E+00  0.00000000000E+00  0.53459010731E+03  0.53459010731E+03  0.00000000000E+00 0.  1.
         21   -1    0    0  502  503 -0.00000000000E+00 -0.00000000000E+00 -0.33942013649E+03  0.33942013649E+03  0.00000000000E+00 0.  1.
    9000007    1    1    2  501    0 -0.10821524941E+03 -0.90285013588E+02  0.56693640033E+02  0.42787392151E+03  0.40000000000E+03 0.  1.
   -9000007    1    1    2    0  503  0.10821524941E+03  0.90285013588E+02  0.13847633079E+03  0.44613632230E+03  0.40000000000E+03 0.  1.
<mgrwt>
<rscale>  2 0.42410131E+03</rscale>
<asrwt>0</asrwt>
<pdfrwt beam="1">  1       21 0.82244632E-01 0.42410131E+03</pdfrwt>
<pdfrwt beam="2">  1       21 0.52218482E-01 0.42410131E+03</pdfrwt>
<totfact> 0.39706792E+03</totfact>
</mgrwt>
</event>
<event>
 4    1  0.4716816E-002  0.7400572E+03  0.7818608E-02  0.9651079E-01
         21   -1    0    0  503  502  0.00000000000E+00  0.00000000000E+00  0.35987797494E+03  0.35987797494E+03  0.00000000000E+00 0.  1.
         21   -1    0    0  501  503 -0.00000000000E+00 -0.00000000000E+00 -0.18472536763E+04  0.18472536763E+04  0.00000000000E+00 0.  1.
    9000007    1    1    2  501    0 -0.55461388253E+03 -0.28299842351E+03 -0.28052033009E+03  0.79143939882E+03  0.40000000000E+03 0.  1.
   -9000007    1    1    2    0  502  0.55461388253E+03  0.28299842351E+03 -0.12068553713E+04  0.14156922525E+04  0.40000000000E+03 0.  1.
<mgrwt>
<rscale>  2 0.74005720E+03</rscale>
<asrwt>0</asrwt>
<pdfrwt beam="1">  1       21 0.55365841E-01 0.74005720E+03</pdfrwt>
<pdfrwt beam="2">  1       21 0.28419288E+00 0.74005720E+03</pdfrwt>
<totfact> 0.87562697E+01</totfact>
</mgrwt>
</event>
<event>
 4    1  0.4716816E-002  0.5881081E+03  0.7818608E-02  0.9930390E-01
         21   -1    0    0  503  502  0.00000000000E+00  0.00000000000E+00  0.17235226610E+04  0.17235226610E+04  0.00000000000E+00 0. -1.
         21   -1    0    0  501  503 -0.00000000000E+00 -0.00000000000E+00 -0.26586191587E+03  0.26586191587E+03  0.00000000000E+00 0.  1.
    9000007    1    1    2  501    0  0.38080858062E+03 -0.20212862992E+03  0.23629817626E+03  0.63380437535E+03  0.40000000000E+03 0.  1.
   -9000007    1    1    2    0  502 -0.38080858062E+03  0.20212862992E+03  0.12213625689E+04  0.13555802015E+04  0.40000000000E+03 0. -1.
<mgrwt>
<rscale>  2 0.58810812E+03</rscale>
<asrwt>0</asrwt>
<pdfrwt beam="1">  1       21 0.26515733E+00 0.58810812E+03</pdfrwt>
<pdfrwt beam="2">  1       21 0.40901834E-01 0.58810812E+03</pdfrwt>
<totfact> 0.23199901E+02</totfact>
</mgrwt>
</event>
<event>
 4    1  0.4716816E-002  0.5440184E+03  0.7818608E-02  0.1002888E+00
         21   -1    0    0  503  502  0.00000000000E+00  0.00000000000E+00  0.28110774477E+03  0.28110774477E+03  0.00000000000E+00 0. -1.
         21   -1    0    0  501  503 -0.00000000000E+00 -0.00000000000E+00 -0.10548023087E+04  0.10548023087E+04  0.00000000000E+00 0.  1.
    9000007    1    1    2  501    0  0.27888967679E+03 -0.24119816426E+03 -0.35789460633E+03  0.65118703573E+03  0.40000000000E+03 0.  1.
   -9000007    1    1    2    0  502 -0.27888967679E+03  0.24119816426E+03 -0.41579995756E+03  0.68472301770E+03  0.40000000000E+03 0. -1.
<mgrwt>
<rscale>  2 0.54401839E+03</rscale>
<asrwt>0</asrwt>
<pdfrwt beam="1">  1       21 0.43247345E-01 0.54401839E+03</pdfrwt>
<pdfrwt beam="2">  1       21 0.16227728E+00 0.54401839E+03</pdfrwt>
<totfact> 0.10122389E+03</totfact>
</mgrwt>
</event>
<event>
 4    1  0.4716816E-002  0.4450565E+03  0.7818608E-02  0.1029207E+00
         21   -1    0    0  501  502  0.00000000000E+00  0.00000000000E+00  0.54015241481E+03  0.54015241481E+03  0.00000000000E+00 0. -1.
         21   -1    0    0  502  503 -0.00000000000E+00 -0.00000000000E+00 -0.10053308051E+04  0.10053308051E+04  0.00000000000E+00 0. -1.
    9000007    1    1    2  501    0 -0.72687068098E+02 -0.18108515965E+03  0.38330183971E+03  0.58736321406E+03  0.40000000000E+03 0. -1.
   -9000007    1    1    2    0  503  0.72687068098E+02  0.18108515965E+03 -0.84848023000E+03  0.95812000585E+03  0.40000000000E+03 0. -1.
<mgrwt>
<rscale>  2 0.44505645E+03</rscale>
<asrwt>0</asrwt>
<pdfrwt beam="1">  1       21 0.83100372E-01 0.44505645E+03</pdfrwt>
<pdfrwt beam="2">  1       21 0.15466628E+00 0.44505645E+03</pdfrwt>
<totfact> 0.28673303E+02</totfact>
</mgrwt>
</event>
<event>
 4    1  0.4716816E-002  0.4753750E+03  0.7818608E-02  0.1020414E+00
         21   -1    0    0  503  502  0.00000000000E+00  0.00000000000E+00  0.11771904864E+04  0.11771904864E+04  0.00000000000E+00 0. -1.
         21   -1    0    0  501  503 -0.00000000000E+00 -0.00000000000E+00 -0.24820007692E+03  0.24820007692E+03  0.00000000000E+00 0. -1.
    9000007    1    1    2  501    0 -0.77323742937E+02  0.24495383992E+03  0.12526063559E+03  0.49160102903E+03  0.40000000000E+03 0. -1.
   -9000007    1    1    2    0  502  0.77323742937E+02 -0.24495383992E+03  0.80372977388E+03  0.93378953428E+03  0.40000000000E+03 0. -1.
<mgrwt>
<rscale>  2 0.47537495E+03</rscale>
<asrwt>0</asrwt>
<pdfrwt beam="1">  1       21 0.18110623E+00 0.47537495E+03</pdfrwt>
<pdfrwt beam="2">  1       21 0.38184628E-01 0.47537495E+03</pdfrwt>
<totfact> 0.98102332E+02</totfact>
</mgrwt>
</event>
<event>
 4    1  0.4716816E-002  0.5466400E+03  0.7818608E-02  0.1002275E+00
         21   -1    0    0  501  502  0.00000000000E+00  0.00000000000E+00  0.59613461370E+03  0.59613461370E+03  0.00000000000E+00 0. -1.
         21   -1    0    0  502  503 -0.00000000000E+00 -0.00000000000E+00 -0.50446260074E+03  0.50446260074E+03  0.00000000000E+00 0. -1.
    9000007    1    1    2  501    0 -0.23989335192E+03  0.28507271955E+03  0.19531867163E+01  0.54664347674E+03  0.40000000000E+03 0. -1.
   -9000007    1    1    2    0  503  0.23989335192E+03 -0.28507271955E+03  0.89718826250E+02  0.55395373770E+03  0.40000000000E+03 0. -1.
<mgrwt>
<rscale>  2 0.54663999E+03</rscale>
<asrwt>0</asrwt>
<pdfrwt beam="1">  1       21 0.91713018E-01 0.54663999E+03</pdfrwt>
<pdfrwt beam="2">  1       21 0.77609631E-01 0.54663999E+03</pdfrwt>
<totfact> 0.12226690E+03</totfact>
</mgrwt>
</event>
<event>
 4    1  0.4716816E-002  0.4032552E+03  0.7818608E-02  0.1042658E+00
         21   -1    0    0  501  502  0.00000000000E+00  0.00000000000E+00  0.10138061661E+03  0.10138061661E+03  0.00000000000E+00 0. -1.
         21   -1    0    0  502  503 -0.00000000000E+00 -0.00000000000E+00 -0.17072682280E+04  0.17072682280E+04  0.00000000000E+00 0. -1.
    9000007    1    1    2  501    0  0.26343083447E+02  0.43827257515E+02 -0.10253521041E+04  0.11017993120E+04  0.40000000000E+03 0.  1.
   -9000007    1    1    2    0  503 -0.26343083447E+02 -0.43827257515E+02 -0.58053550736E+03  0.70684953268E+03  0.40000000000E+03 0.  1.
<mgrwt>
<rscale>  2 0.40325524E+03</rscale>
<asrwt>0</asrwt>
<pdfrwt beam="1">  1       21 0.15597018E-01 0.40325524E+03</pdfrwt>
<pdfrwt beam="2">  1       21 0.26265664E+00 0.40325524E+03</pdfrwt>
<totfact> 0.17327985E+03</totfact>
</mgrwt>
</event>
<event>
 4    1  0.4716816E-002  0.4361997E+03  0.7818608E-02  0.1031919E+00
         21   -1    0    0  503  502  0.00000000000E+00  0.00000000000E+00  0.11748263900E+04  0.11748263900E+04  0.00000000000E+00 0. -1.
         21   -1    0    0  501  503 -0.00000000000E+00 -0.00000000000E+00 -0.38204236913E+03  0.38204236913E+03  0.00000000000E+00 0.  1.
    9000007    1    1    2  501    0  0.13632094110E+03  0.10810541373E+03 -0.19443837084E+03  0.47757351216E+03  0.40000000000E+03 0.  1.
   -9000007    1    1    2    0  502 -0.13632094110E+03 -0.10810541373E+03  0.98722239171E+03  0.10792952470E+04  0.40000000000E+03 0. -1.
<mgrwt>
<rscale>  2 0.43619970E+03</rscale>
<asrwt>0</asrwt>
<pdfrwt beam="1">  1       21 0.18074252E+00 0.43619970E+03</pdfrwt>
<pdfrwt beam="2">  1       21 0.58775750E-01 0.43619970E+03</pdfrwt>
<totfact> 0.40407255E+02</totfact>
</mgrwt>
</event>
<event>
 4    1  0.4716816E-002  0.6161052E+03  0.7818608E-02  0.9872545E-01
         21   -1    0    0  503  502  0.00000000000E+00  0.00000000000E+00  0.71965549960E+03  0.71965549960E+03  0.00000000000E+00 0.  1.
         21   -1    0    0  501  503 -0.00000000000E+00 -0.00000000000E+00 -0.93481737381E+03  0.93481737381E+03  0.00000000000E+00 0. -1.
    9000007    1    1    2  501    0 -0.12070572362E+03 -0.45278662562E+03 -0.65366177824E+03  0.89825348337E+03  0.40000000000E+03 0. -1.
   -9000007    1    1    2    0  502  0.12070572362E+03  0.45278662562E+03  0.43849990402E+03  0.75621939005E+03  0.40000000000E+03 0. -1.
<mgrwt>
<rscale>  2 0.61610519E+03</rscale>
<asrwt>0</asrwt>
<pdfrwt beam="1">  1       21 0.11071623E+00 0.61610519E+03</pdfrwt>
<pdfrwt beam="2">  1       21 0.14381806E+00 0.61610519E+03</pdfrwt>
<totfact> 0.16239749E+02</totfact>
</mgrwt>
</event>
<event>
 4    1  0.4716816E-002  0.5241548E+03  0.7818608E-02  0.1007660E+00
         21   -1    0    0  503  502  0.00000000000E+00  0.00000000000E+00  0.19682027791E+04  0.19682027791E+04  0.00000000000E+00 0.  1.
         21   -1    0    0  501  503 -0.00000000000E+00 -0.00000000000E+00 -0.14010697006E+03  0.14010697006E+03  0.00000000000E+00 0. -1.
    9000007    1    1    2  501    0 -0.29662772034E+03 -0.16355518969E+03  0.97817954806E+03  0.11097628273E+04  0.40000000000E+03 0. -1.
   -9000007    1    1    2    0  502  0.29662772034E+03  0.16355518969E+03  0.84991626098E+03  0.99854692190E+03  0.40000000000E+03 0.  1.
<mgrwt>
<rscale>  2 0.52415485E+03</rscale>
<asrwt>0</asrwt>
<pdfrwt beam="1">  1       21 0.30280041E+00 0.52415485E+03</pdfrwt>
<pdfrwt beam="2">  1       21 0.21554920E-01 0.52415485E+03</pdfrwt>
<totfact> 0.50595839E+02</totfact>
</mgrwt>
</event>
<event>
 4    1  0.4716816E-002  0.4281100E+03  0.7818608E-02  0.1034459E+00
         21   -1    0    0  501  502  0.00000000000E+00  0.00000000000E+00  0.71542407888E+03  0.71542407888E+03  0.00000000000E+00 0. -1.
         21   -1    0    0  502  503 -0.00000000000E+00 -0.00000000000E+00 -0.38215602087E+03  0.38215602087E+03  0.00000000000E+00 0. -1.
    9000007    1    1    2  501    0 -0.84535241167E+02 -0.12701155768E+03  0.48171914301E+03  0.64446215989E+03  0.40000000000E+03 0. -1.
   -9000007    1    1    2    0  503  0.84535241167E+02  0.12701155768E+03 -0.14845108501E+03  0.45311793986E+03  0.40000000000E+03 0. -1.
<mgrwt>
<rscale>  2 0.42810997E+03</rscale>
<asrwt>0</asrwt>
<pdfrwt beam="1">  1       21 0.11006524E+00 0.42810997E+03</pdfrwt>
<pdfrwt beam="2">  1       21 0.58793234E-01 0.42810997E+03</pdfrwt>
<totfact> 0.15257553E+03</totfact>
</mgrwt>
</event>
<event>
 4    1  0.4716816E-002  0.4380224E+03  0.7818608E-02  0.1031355E+00
         21   -1    0    0  503  502  0.00000000000E+00  0.00000000000E+00  0.16691062492E+04  0.16691062492E+04  0.00000000000E+00 0.  1.
         21   -1    0    0  501  503 -0.00000000000E+00 -0.00000000000E+00 -0.21096779056E+03  0.21096779056E+03  0.00000000000E+00 0.  1.
    9000007    1    1    2  501    0 -0.25276787867E+02 -0.17670519410E+03  0.94888707790E+02  0.44818245001E+03  0.40000000000E+03 0.  1.
   -9000007    1    1    2    0  502  0.25276787867E+02  0.17670519410E+03  0.13632497509E+04  0.14318915898E+04  0.40000000000E+03 0.  1.
<mgrwt>
<rscale>  2 0.43802242E+03</rscale>
<asrwt>0</asrwt>
<pdfrwt beam="1">  1       21 0.25678557E+00 0.43802242E+03</pdfrwt>
<pdfrwt beam="2">  1       21 0.32456584E-01 0.43802242E+03</pdfrwt>
<totfact> 0.45024189E+02</totfact>
</mgrwt>
</event>
<event>
 4    1  0.4716816E-002  0.5846432E+03  0.7818608E-02  0.9937789E-01
         21   -1    0    0  501  502  0.00000000000E+00  0.00000000000E+00  0.24615560204E+03  0.24615560204E+03  0.00000000000E+00 0. -1.
         21   -1    0    0  502  503 -0.00000000000E+00 -0.00000000000E+00 -0.15353996511E+04  0.15353996511E+04  0.00000000000E+00 0.  1.
    9000007    1    1    2  501    0  0.35364797846E+03 -0.23820334235E+03 -0.92007330309E+03  0.10901112824E+04  0.40000000000E+03 0. -1.
   -9000007    1    1    2    0  503 -0.35364797846E+03  0.23820334235E+03 -0.36917074599E+03  0.69144397074E+03  0.40000000000E+03 0.  1.
<mgrwt>
<rscale>  2 0.58464325E+03</rscale>
<asrwt>0</asrwt>
<pdfrwt beam="1">  1       21 0.37870093E-01 0.58464325E+03</pdfrwt>
<pdfrwt beam="2">  1       21 0.23621533E+00 0.58464325E+03</pdfrwt>
<totfact> 0.41225308E+02</totfact>
</mgrwt>
</event>
<event>
 4    1  0.4716816E-002  0.4233957E+03  0.7818608E-02  0.1035967E+00
         21   -1    0    0  503  502  0.00000000000E+00  0.00000000000E+00  0.51849650686E+03  0.51849650686E+03  0.00000000000E+00 0. -1.
         21   -1    0    0  501  503 -0.00000000000E+00 -0.00000000000E+00 -0.51718058536E+03  0.51718058536E+03  0.00000000000E+00 0. -1.
    9000007    1    1    2  501    0 -0.13773899170E+03  0.17084347582E+02 -0.29749060233E+03  0.51745972137E+03  0.40000000000E+03 0. -1.
   -9000007    1    1    2    0  502  0.13773899170E+03 -0.17084347582E+02  0.29880652383E+03  0.51821737085E+03  0.40000000000E+03 0. -1.
<mgrwt>
<rscale>  2 0.42339568E+03</rscale>
<asrwt>0</asrwt>
<pdfrwt beam="1">  1       21 0.79768693E-01 0.42339568E+03</pdfrwt>
<pdfrwt beam="2">  1       21 0.79566244E-01 0.42339568E+03</pdfrwt>
<totfact> 0.16752382E+03</totfact>
</mgrwt>
</event>
<event>
 4    1  0.4716816E-002  0.4216746E+03  0.7818608E-02  0.1036523E+00
         21   -1    0    0  503  502  0.00000000000E+00  0.00000000000E+00  0.85765889323E+03  0.85765889323E+03  0.00000000000E+00 0. -1.
         21   -1    0    0  501  503 -0.00000000000E+00 -0.00000000000E+00 -0.35995804532E+03  0.35995804532E+03  0.00000000000E+00 0.  1.
    9000007    1    1    2  501    0 -0.55529048551E+02  0.12135079493E+03 -0.14759802514E+03  0.44676019036E+03  0.40000000000E+03 0.  1.
   -9000007    1    1    2    0  502  0.55529048551E+02 -0.12135079493E+03  0.64529887305E+03  0.77085674819E+03  0.40000000000E+03 0. -1.
<mgrwt>
<rscale>  2 0.42167463E+03</rscale>
<asrwt>0</asrwt>
<pdfrwt beam="1">  1       21 0.13194752E+00 0.42167463E+03</pdfrwt>
<pdfrwt beam="2">  1       21 0.55378161E-01 0.42167463E+03</pdfrwt>
<totfact> 0.10995748E+03</totfact>
</mgrwt>
</event>
<event>
 4    1  0.4716816E-002  0.5229118E+03  0.7818608E-02  0.1007966E+00
         21   -1    0    0  503  502  0.00000000000E+00  0.00000000000E+00  0.87516304239E+03  0.87516304239E+03  0.00000000000E+00 0.  1.
         21   -1    0    0  501  503 -0.00000000000E+00 -0.00000000000E+00 -0.33793305788E+03  0.33793305788E+03  0.00000000000E+00 0. -1.
    9000007    1    1    2  501    0 -0.68810958470E+02  0.32969951752E+03  0.10202333185E+03  0.53277150834E+03  0.40000000000E+03 0. -1.
   -9000007    1    1    2    0  502  0.68810958470E+02 -0.32969951752E+03  0.43520665267E+03  0.68032459193E+03  0.40000000000E+03 0. -1.
<mgrwt>
<rscale>  2 0.52291177E+03</rscale>
<asrwt>0</asrwt>
<pdfrwt beam="1">  1       21 0.13464047E+00 0.52291177E+03</pdfrwt>
<pdfrwt beam="2">  1       21 0.51989701E-01 0.52291177E+03</pdfrwt>
<totfact> 0.11478483E+03</totfact>
</mgrwt>
</event>
<event>
 4    1  0.4716816E-002  0.6583909E+03  0.7818608E-02  0.9791160E-01
         21   -1    0    0  501  502  0.00000000000E+00  0.00000000000E+00  0.69371266339E+03  0.69371266339E+03  0.00000000000E+00 0. -1.
         21   -1    0    0  502  503 -0.00000000000E+00 -0.00000000000E+00 -0.64676576913E+03  0.64676576913E+03  0.00000000000E+00 0.  1.
    9000007    1    1    2  501    0  0.49514033834E+03  0.16826962861E+03  0.14680080618E+03  0.67455844762E+03  0.40000000000E+03 0. -1.
   -9000007    1    1    2    0  503 -0.49514033834E+03 -0.16826962861E+03 -0.99853911916E+02  0.66591998490E+03  0.40000000000E+03 0.  1.
<mgrwt>
<rscale>  2 0.65839093E+03</rscale>
<asrwt>0</asrwt>
<pdfrwt beam="1">  1       21 0.10672502E+00 0.65839093E+03</pdfrwt>
<pdfrwt beam="2">  1       21 0.99502426E-01 0.65839093E+03</pdfrwt>
<totfact> 0.45201887E+02</totfact>
</mgrwt>
</event>
<event>
 4    1  0.4716816E-002  0.5559857E+03  0.7818608E-02  0.1000118E+00
         21   -1    0    0  503  502  0.00000000000E+00  0.00000000000E+00  0.28057291377E+03  0.28057291377E+03  0.00000000000E+00 0.  1.
         21   -1    0    0  501  503 -0.00000000000E+00 -0.00000000000E+00 -0.12072423657E+04  0.12072423657E+04  0.00000000000E+00 0. -1.
    9000007    1    1    2  501    0  0.37080524932E+03 -0.10781250440E+03 -0.68324253652E+03  0.88087481105E+03  0.40000000000E+03 0. -1.
   -9000007    1    1    2    0  502 -0.37080524932E+03  0.10781250440E+03 -0.24342691537E+03  0.60694046838E+03  0.40000000000E+03 0.  1.
<mgrwt>
<rscale>  2 0.55598567E+03</rscale>
<asrwt>0</asrwt>
<pdfrwt beam="1">  1       21 0.43165062E-01 0.55598567E+03</pdfrwt>
<pdfrwt beam="2">  1       21 0.18572960E+00 0.55598567E+03</pdfrwt>
<totfact> 0.68423774E+02</totfact>
</mgrwt>
</event>
<event>
 4    1  0.4716816E-002  0.5054925E+03  0.7818608E-02  0.1012355E+00
         21   -1    0    0  503  502  0.00000000000E+00  0.00000000000E+00  0.62752757813E+03  0.62752757813E+03  0.00000000000E+00 0.  1.
         21   -1    0    0  501  503 -0.00000000000E+00 -0.00000000000E+00 -0.40752751760E+03  0.40752751760E+03  0.00000000000E+00 0.  1.
    9000007    1    1    2  501    0  0.17272961622E+03  0.25629510373E+03  0.12490268005E+03  0.52069509312E+03  0.40000000000E+03 0.  1.
   -9000007    1    1    2    0  502 -0.17272961622E+03 -0.25629510373E+03  0.95097380474E+02  0.51436000261E+03  0.40000000000E+03 0.  1.
<mgrwt>
<rscale>  2 0.50549253E+03</rscale>
<asrwt>0</asrwt>
<pdfrwt beam="1">  1       21 0.96542704E-01 0.50549253E+03</pdfrwt>
<pdfrwt beam="2">  1       21 0.62696541E-01 0.50549253E+03</pdfrwt>
<totfact> 0.17743327E+03</totfact>
</mgrwt>
</event>
<event>
 4    1  0.4716816E-002  0.7490262E+03  0.7818608E-02  0.9636879E-01
         21   -1    0    0  503  502  0.00000000000E+00  0.00000000000E+00  0.97403635932E+03  0.97403635932E+03  0.00000000000E+00 0.  1.
         21   -1    0    0  501  503 -0.00000000000E+00 -0.00000000000E+00 -0.62070030688E+03  0.62070030688E+03  0.00000000000E+00 0. -1.
    9000007    1    1    2  501    0 -0.61706237249E+02 -0.63026396210E+03 -0.37323365486E+02  0.74995556885E+03  0.40000000000E+03 0. -1.
   -9000007    1    1    2    0  502  0.61706237249E+02  0.63026396210E+03  0.39065941793E+03  0.84478109736E+03  0.40000000000E+03 0.  1.
<mgrwt>
<rscale>  2 0.74902625E+03</rscale>
<asrwt>0</asrwt>
<pdfrwt beam="1">  1       21 0.14985175E+00 0.74902625E+03</pdfrwt>
<pdfrwt beam="2">  1       21 0.95492354E-01 0.74902625E+03</pdfrwt>
<totfact> 0.20028494E+02</totfact>
</mgrwt>
</event>
<event>
 4    1  0.4716816E-002  0.4093869E+03  0.7818608E-02  0.1040577E+00
         21   -1    0    0  503  502  0.00000000000E+00  0.00000000000E+00  0.79488936456E+02  0.79488936456E+02  0.00000000000E+00 0. -1.
         21   -1    0    0  501  503 -0.00000000000E+00 -0.00000000000E+00 -0.25609528324E+04  0.25609528324E+04  0.00000000000E+00 0. -1.
    9000007    1    1    2  501    0  0.26513108507E+02 -0.83034203057E+02 -0.17956916340E+04  0.18417671048E+04  0.40000000000E+03 0. -1.
   -9000007    1    1    2    0  502 -0.26513108507E+02  0.83034203057E+02 -0.68577226195E+03  0.79867466409E+03  0.40000000000E+03 0. -1.
<mgrwt>
<rscale>  2 0.40938689E+03</rscale>
<asrwt>0</asrwt>
<pdfrwt beam="1">  1       21 0.12229069E-01 0.40938689E+03</pdfrwt>
<pdfrwt beam="2">  1       21 0.39399269E+00 0.40938689E+03</pdfrwt>
<totfact> 0.42822883E+02</totfact>
</mgrwt>
</event>
<event>
 4    1  0.4716816E-002  0.4494806E+03  0.7818608E-02  0.1027877E+00
         21   -1    0    0  503  502  0.00000000000E+00  0.00000000000E+00  0.72525283598E+03  0.72525283598E+03  0.00000000000E+00 0.  1.
         21   -1    0    0  501  503 -0.00000000000E+00 -0.00000000000E+00 -0.32821097663E+03  0.32821097663E+03  0.00000000000E+00 0.  1.
    9000007    1    1    2  501    0 -0.14819487540E+03 -0.14167231851E+03  0.40337224475E+03  0.60393868461E+03  0.40000000000E+03 0.  1.
   -9000007    1    1    2    0  502  0.14819487540E+03  0.14167231851E+03 -0.63303853926E+01  0.44952512800E+03  0.40000000000E+03 0.  1.
<mgrwt>
<rscale>  2 0.44948055E+03</rscale>
<asrwt>0</asrwt>
<pdfrwt beam="1">  1       21 0.11157736E+00 0.44948055E+03</pdfrwt>
<pdfrwt beam="2">  1       21 0.50493997E-01 0.44948055E+03</pdfrwt>
<totfact> 0.20300518E+03</totfact>
</mgrwt>
</event>
<event>
 4    1  0.4716816E-002  0.4333030E+03  0.7818608E-02  0.1032822E+00
         21   -1    0    0  501  502  0.00000000000E+00  0.00000000000E+00  0.45287712205E+03  0.45287712205E+03  0.00000000000E+00 0. -1.
         21   -1    0    0  502  503 -0.00000000000E+00 -0.00000000000E+00 -0.42450768803E+03  0.42450768803E+03  0.00000000000E+00 0. -1.
    9000007    1    1    2  501    0  0.10638539720E+03 -0.12819382366E+03 -0.52919819015E+02  0.43652264135E+03  0.40000000000E+03 0. -1.
   -9000007    1    1    2    0  503 -0.10638539720E+03  0.12819382366E+03  0.81289253040E+02  0.44086216874E+03  0.40000000000E+03 0. -1.
<mgrwt>
<rscale>  2 0.43330302E+03</rscale>
<asrwt>0</asrwt>
<pdfrwt beam="1">  1       21 0.69673403E-01 0.43330302E+03</pdfrwt>
<pdfrwt beam="2">  1       21 0.65308875E-01 0.43330302E+03</pdfrwt>
<totfact> 0.35496654E+03</totfact>
</mgrwt>
</event>
<event>
 4    1  0.4716816E-002  0.4508452E+03  0.7818608E-02  0.1027470E+00
         21   -1    0    0  501  502  0.00000000000E+00  0.00000000000E+00  0.27249570445E+03  0.27249570445E+03  0.00000000000E+00 0. -1.
         21   -1    0    0  502  503 -0.00000000000E+00 -0.00000000000E+00 -0.93789019812E+03  0.93789019812E+03  0.00000000000E+00 0. -1.
    9000007    1    1    2  501    0 -0.20638817565E+03 -0.25794425659E+02 -0.58900168289E+02  0.45467643579E+03  0.40000000000E+03 0. -1.
   -9000007    1    1    2    0  503  0.20638817565E+03  0.25794425659E+02 -0.60649432538E+03  0.75570946677E+03  0.40000000000E+03 0. -1.
<mgrwt>
<rscale>  2 0.45084524E+03</rscale>
<asrwt>0</asrwt>
<pdfrwt beam="1">  1       21 0.41922416E-01 0.45084524E+03</pdfrwt>
<pdfrwt beam="2">  1       21 0.14429080E+00 0.45084524E+03</pdfrwt>
<totfact> 0.15449335E+03</totfact>
</mgrwt>
</event>
<event>
 4    1  0.4716816E-002  0.4770555E+03  0.7818608E-02  0.1019948E+00
         21   -1    0    0  503  502  0.00000000000E+00  0.00000000000E+00  0.17768140417E+04  0.17768140417E+04  0.00000000000E+00 0. -1.
         21   -1    0    0  501  503 -0.00000000000E+00 -0.00000000000E+00 -0.32410501981E+03  0.32410501981E+03  0.00000000000E+00 0. -1.
    9000007    1    1    2  501    0 -0.24382969498E+03  0.90161212612E+02 -0.90580386120E+02  0.48557879975E+03  0.40000000000E+03 0. -1.
   -9000007    1    1    2    0  502  0.24382969498E+03 -0.90161212612E+02  0.15432894081E+04  0.16153402618E+04  0.40000000000E+03 0. -1.
<mgrwt>
<rscale>  2 0.47705552E+03</rscale>
<asrwt>0</asrwt>
<pdfrwt beam="1">  1       21 0.27335600E+00 0.47705552E+03</pdfrwt>
<pdfrwt beam="2">  1       21 0.49862312E-01 0.47705552E+03</pdfrwt>
<totfact> 0.14399340E+02</totfact>
</mgrwt>
</event>
<event>
 4    1  0.4716816E-002  0.4991785E+03  0.7818608E-02  0.1013994E+00
         21   -1    0    0  501  502  0.00000000000E+00  0.00000000000E+00  0.21033489625E+03  0.21033489625E+03  0.00000000000E+00 0. -1.
         21   -1    0    0  502  503 -0.00000000000E+00 -0.00000000000E+00 -0.13320890952E+04  0.13320890952E+04  0.00000000000E+00 0. -1.
    9000007    1    1    2  501    0  0.13370492370E+03 -0.26702458427E+03 -0.30432702276E+03  0.58463156946E+03  0.40000000000E+03 0. -1.
   -9000007    1    1    2    0  503 -0.13370492370E+03  0.26702458427E+03 -0.81742717616E+03  0.95779242195E+03  0.40000000000E+03 0. -1.
<mgrwt>
<rscale>  2 0.49917846E+03</rscale>
<asrwt>0</asrwt>
<pdfrwt beam="1">  1       21 0.32359214E-01 0.49917846E+03</pdfrwt>
<pdfrwt beam="2">  1       21 0.20493679E+00 0.49917846E+03</pdfrwt>
<totfact> 0.93474678E+02</totfact>
</mgrwt>
</event>
<event>
 4    1  0.4716816E-002  0.4881774E+03  0.7818608E-02  0.1016912E+00
         21   -1    0    0  501  502  0.00000000000E+00  0.00000000000E+00  0.64651593598E+03  0.64651593598E+03  0.00000000000E+00 0. -1.
         21   -1    0    0  502  503 -0.00000000000E+00 -0.00000000000E+00 -0.36980860801E+03  0.36980860801E+03  0.00000000000E+00 0. -1.
    9000007    1    1    2  501    0  0.12551072919E+03  0.25012844928E+03  0.16719147828E+03  0.51601373498E+03  0.40000000000E+03 0. -1.
   -9000007    1    1    2    0  503 -0.12551072919E+03 -0.25012844928E+03  0.10951584968E+03  0.50031080901E+03  0.40000000000E+03 0. -1.
<mgrwt>
<rscale>  2 0.48817741E+03</rscale>
<asrwt>0</asrwt>
<pdfrwt beam="1">  1       21 0.99463990E-01 0.48817741E+03</pdfrwt>
<pdfrwt beam="2">  1       21 0.56893632E-01 0.48817741E+03</pdfrwt>
<totfact> 0.20551517E+03</totfact>
</mgrwt>
</event>
<event>
 4    1  0.4716816E-002  0.4096998E+03  0.7818608E-02  0.1040472E+00
         21   -1    0    0  501  502  0.00000000000E+00  0.00000000000E+00  0.37689152938E+03  0.37689152938E+03  0.00000000000E+00 0. -1.
         21   -1    0    0  502  503 -0.00000000000E+00 -0.00000000000E+00 -0.44593649088E+03  0.44593649088E+03  0.00000000000E+00 0. -1.
    9000007    1    1    2  501    0 -0.87536009081E+02  0.13834695151E+02 -0.19782596961E+02  0.41017716028E+03  0.40000000000E+03 0. -1.
   -9000007    1    1    2    0  503  0.87536009081E+02 -0.13834695151E+02 -0.49262364538E+02  0.41265085997E+03  0.40000000000E+03 0. -1.
<mgrwt>
<rscale>  2 0.40969983E+03</rscale>
<asrwt>0</asrwt>
<pdfrwt beam="1">  1       21 0.57983312E-01 0.40969983E+03</pdfrwt>
<pdfrwt beam="2">  1       21 0.68605614E-01 0.40969983E+03</pdfrwt>
<totfact> 0.48138544E+03</totfact>
</mgrwt>
</event>
<event>
 4    1  0.4716816E-002  0.4065479E+03  0.7818608E-02  0.1041536E+00
         21   -1    0    0  501  502  0.00000000000E+00  0.00000000000E+00  0.28404353264E+03  0.28404353264E+03  0.00000000000E+00 0. -1.
         21   -1    0    0  502  503 -0.00000000000E+00 -0.00000000000E+00 -0.65730220023E+03  0.65730220023E+03  0.00000000000E+00 0. -1.
    9000007    1    1    2  501    0 -0.70610881564E+02 -0.17185205674E+02 -0.27200754045E+02  0.40745687982E+03  0.40000000000E+03 0. -1.
   -9000007    1    1    2    0  503  0.70610881564E+02  0.17185205674E+02 -0.34605791354E+03  0.53388885305E+03  0.40000000000E+03 0. -1.
<mgrwt>
<rscale>  2 0.40654794E+03</rscale>
<asrwt>0</asrwt>
<pdfrwt beam="1">  1       21 0.43699005E-01 0.40654794E+03</pdfrwt>
<pdfrwt beam="2">  1       21 0.10112342E+00 0.40654794E+03</pdfrwt>
<totfact> 0.35647571E+03</totfact>
</mgrwt>
</event>
<event>
 4    1  0.4716816E-002  0.4295485E+03  0.7818608E-02  0.1034003E+00
         21   -1    0    0  501  502  0.00000000000E+00  0.00000000000E+00  0.42529171170E+03  0.42529171170E+03  0.00000000000E+00 0.  1.
         21   -1    0    0  502  503 -0.00000000000E+00 -0.00000000000E+00 -0.48438484169E+03  0.48438484169E+03  0.00000000000E+00 0.  1.
    9000007    1    1    2  501    0 -0.10928538905E+03  0.11210991246E+03  0.11736841597E+03  0.44529459215E+03  0.40000000000E+03 0.  1.
   -9000007    1    1    2    0  503  0.10928538905E+03 -0.11210991246E+03 -0.17646154596E+03  0.46438196125E+03  0.40000000000E+03 0.  1.
<mgrwt>
<rscale>  2 0.42954852E+03</rscale>
<asrwt>0</asrwt>
<pdfrwt beam="1">  1       21 0.65429494E-01 0.42954852E+03</pdfrwt>
<pdfrwt beam="2">  1       21 0.74520745E-01 0.42954852E+03</pdfrwt>
<totfact> 0.30403962E+03</totfact>
</mgrwt>
</event>
<event>
 4    1  0.4716816E-002  0.4453456E+03  0.7818608E-02  0.1029119E+00
         21   -1    0    0  501  502  0.00000000000E+00  0.00000000000E+00  0.27488773031E+03  0.27488773031E+03  0.00000000000E+00 0. -1.
         21   -1    0    0  502  503 -0.00000000000E+00 -0.00000000000E+00 -0.80097422176E+03  0.80097422176E+03  0.00000000000E+00 0. -1.
    9000007    1    1    2  501    0  0.12298572437E+03  0.15233926485E+03 -0.93602414101E+02  0.45507598480E+03  0.40000000000E+03 0. -1.
   -9000007    1    1    2    0  503 -0.12298572437E+03 -0.15233926485E+03 -0.43248407735E+03  0.62078596728E+03  0.40000000000E+03 0. -1.
<mgrwt>
<rscale>  2 0.44534564E+03</rscale>
<asrwt>0</asrwt>
<pdfrwt beam="1">  1       21 0.42290420E-01 0.44534564E+03</pdfrwt>
<pdfrwt beam="2">  1       21 0.12322680E+00 0.44534564E+03</pdfrwt>
<totfact> 0.22981353E+03</totfact>
</mgrwt>
</event>
<event>
 4    1  0.4716816E-002  0.4328678E+03  0.7818608E-02  0.1032958E+00
         21   -1    0    0  503  502  0.00000000000E+00  0.00000000000E+00  0.70298593612E+03  0.70298593612E+03  0.00000000000E+00 0.  1.
         21   -1    0    0  501  503 -0.00000000000E+00 -0.00000000000E+00 -0.31898378044E+03  0.31898378044E+03  0.00000000000E+00 0.  1.
    9000007    1    1    2  501    0 -0.15611053790E+03  0.54809119564E+02 -0.15187967907E+02  0.43313417552E+03  0.40000000000E+03 0.  1.
   -9000007    1    1    2    0  502  0.15611053790E+03 -0.54809119564E+02  0.39919012358E+03  0.58883554104E+03  0.40000000000E+03 0.  1.
<mgrwt>
<rscale>  2 0.43286781E+03</rscale>
<asrwt>0</asrwt>
<pdfrwt beam="1">  1       21 0.10815168E+00 0.43286781E+03</pdfrwt>
<pdfrwt beam="2">  1       21 0.49074428E-01 0.43286781E+03</pdfrwt>
<totfact> 0.23451358E+03</totfact>
</mgrwt>
</event>
<event>
 4    1  0.4716816E-002  0.4144948E+03  0.7818608E-02  0.1038873E+00
         21   -1    0    0  501  502  0.00000000000E+00  0.00000000000E+00  0.45285280981E+03  0.45285280981E+03  0.00000000000E+00 0. -1.
         21   -1    0    0  502  503 -0.00000000000E+00 -0.00000000000E+00 -0.55675096431E+03  0.55675096431E+03  0.00000000000E+00 0. -1.
    9000007    1    1    2  501    0  0.95471450875E+02  0.51876381985E+02 -0.33687014200E+03  0.53412306589E+03  0.40000000000E+03 0. -1.
   -9000007    1    1    2    0  503 -0.95471450875E+02 -0.51876381985E+02  0.23297198750E+03  0.47548070823E+03  0.40000000000E+03 0. -1.
<mgrwt>
<rscale>  2 0.41449482E+03</rscale>
<asrwt>0</asrwt>
<pdfrwt beam="1">  1       21 0.69669663E-01 0.41449482E+03</pdfrwt>
<pdfrwt beam="2">  1       21 0.85653994E-01 0.41449482E+03</pdfrwt>
<totfact> 0.19278250E+03</totfact>
</mgrwt>
</event>
<event>
 4    1  0.4716816E-002  0.4267235E+03  0.7818608E-02  0.1034900E+00
         21   -1    0    0  503  502  0.00000000000E+00  0.00000000000E+00  0.10131299234E+04  0.10131299234E+04  0.00000000000E+00 0.  1.
         21   -1    0    0  501  503 -0.00000000000E+00 -0.00000000000E+00 -0.19788681372E+03  0.19788681372E+03  0.00000000000E+00 0.  1.
    9000007    1    1    2  501    0  0.20823746298E+02 -0.14717109809E+03  0.22422350439E+03  0.48204682391E+03  0.40000000000E+03 0.  1.
   -9000007    1    1    2    0  502 -0.20823746298E+02  0.14717109809E+03  0.59101960529E+03  0.72896991321E+03  0.40000000000E+03 0.  1.
<mgrwt>
<rscale>  2 0.42672352E+03</rscale>
<asrwt>0</asrwt>
<pdfrwt beam="1">  1       21 0.15586614E+00 0.42672352E+03</pdfrwt>
<pdfrwt beam="2">  1       21 0.30444126E-01 0.42672352E+03</pdfrwt>
<totfact> 0.24218085E+03</totfact>
</mgrwt>
</event>
<event>
 4    1  0.4716816E-002  0.5021415E+03  0.7818608E-02  0.1013221E+00
         21   -1    0    0  501  502  0.00000000000E+00  0.00000000000E+00  0.47054292325E+03  0.47054292325E+03  0.00000000000E+00 0.  1.
         21   -1    0    0  502  503 -0.00000000000E+00 -0.00000000000E+00 -0.82038591548E+03  0.82038591548E+03  0.00000000000E+00 0.  1.
    9000007    1    1    2  501    0 -0.26161745252E+03  0.15395586555E+03  0.20520010694E+03  0.54245108894E+03  0.40000000000E+03 0.  1.
   -9000007    1    1    2    0  503  0.26161745252E+03 -0.15395586555E+03 -0.55504309917E+03  0.74847774979E+03  0.40000000000E+03 0.  1.
<mgrwt>
<rscale>  2 0.50214151E+03</rscale>
<asrwt>0</asrwt>
<pdfrwt beam="1">  1       21 0.72391220E-01 0.50214151E+03</pdfrwt>
<pdfrwt beam="2">  1       21 0.12621322E+00 0.50214151E+03</pdfrwt>
<totfact> 0.65924917E+02</totfact>
</mgrwt>
</event>
<event>
 4    1  0.4716816E-002  0.5482828E+03  0.7818608E-02  0.1001892E+00
         21   -1    0    0  503  502  0.00000000000E+00  0.00000000000E+00  0.33955334088E+04  0.33955334088E+04  0.00000000000E+00 0.  1.
         21   -1    0    0  501  503 -0.00000000000E+00 -0.00000000000E+00 -0.26689954561E+03  0.26689954561E+03  0.00000000000E+00 0.  1.
    9000007    1    1    2  501    0 -0.13684698675E+03 -0.34912312850E+03  0.67311279795E+02  0.55239918992E+03  0.40000000000E+03 0.  1.
   -9000007    1    1    2    0  502  0.13684698675E+03  0.34912312850E+03  0.30613225834E+04  0.31100337645E+04  0.40000000000E+03 0.  1.
<mgrwt>
<rscale>  2 0.54828283E+03</rscale>
<asrwt>0</asrwt>
<pdfrwt beam="1">  1       21 0.52238973E+00 0.54828283E+03</pdfrwt>
<pdfrwt beam="2">  1       21 0.41061471E-01 0.54828283E+03</pdfrwt>
<totfact> 0.49561760E+00</totfact>
</mgrwt>
</event>
<event>
 4    1  0.4716816E-002  0.5218868E+03  0.7818608E-02  0.1008219E+00
         21   -1    0    0  501  502  0.00000000000E+00  0.00000000000E+00  0.40677639263E+03  0.40677639263E+03  0.00000000000E+00 0. -1.
         21   -1    0    0  502  503 -0.00000000000E+00 -0.00000000000E+00 -0.70799613749E+03  0.70799613749E+03  0.00000000000E+00 0. -1.
    9000007    1    1    2  501    0  0.26115615904E+03  0.21015068760E+03 -0.20758631707E+02  0.52229950382E+03  0.40000000000E+03 0. -1.
   -9000007    1    1    2    0  503 -0.26115615904E+03 -0.21015068760E+03 -0.28046111315E+03  0.59247302630E+03  0.40000000000E+03 0. -1.
<mgrwt>
<rscale>  2 0.52188682E+03</rscale>
<asrwt>0</asrwt>
<pdfrwt beam="1">  1       21 0.62580984E-01 0.52188682E+03</pdfrwt>
<pdfrwt beam="2">  1       21 0.10892248E+00 0.52188682E+03</pdfrwt>
<totfact> 0.13177166E+03</totfact>
</mgrwt>
</event>
<event>
 4    1  0.4716816E-002  0.4005033E+03  0.7818608E-02  0.1043606E+00
         21   -1    0    0  501  502  0.00000000000E+00  0.00000000000E+00  0.14958337472E+04  0.14958337472E+04  0.00000000000E+00 0. -1.
         21   -1    0    0  502  503 -0.00000000000E+00 -0.00000000000E+00 -0.10761274422E+03  0.10761274422E+03  0.00000000000E+00 0. -1.
    9000007    1    1    2  501    0  0.17827897766E+02  0.92241872256E+01  0.64649266788E+03  0.76049700144E+03  0.40000000000E+03 0.  1.
   -9000007    1    1    2    0  503 -0.17827897766E+02 -0.92241872256E+01  0.74172833506E+03  0.84294948994E+03  0.40000000000E+03 0.  1.
<mgrwt>
<rscale>  2 0.40050333E+03</rscale>
<asrwt>0</asrwt>
<pdfrwt beam="1">  1       21 0.23012825E+00 0.40050333E+03</pdfrwt>
<pdfrwt beam="2">  1       21 0.16555808E-01 0.40050333E+03</pdfrwt>
<totfact> 0.24595591E+03</totfact>
</mgrwt>
</event>
<event>
 4    1  0.4716816E-002  0.5214371E+03  0.7818608E-02  0.1008330E+00
         21   -1    0    0  501  502  0.00000000000E+00  0.00000000000E+00  0.35701743926E+03  0.35701743926E+03  0.00000000000E+00 0.  1.
         21   -1    0    0  502  503 -0.00000000000E+00 -0.00000000000E+00 -0.18188398209E+04  0.18188398209E+04  0.00000000000E+00 0. -1.
    9000007    1    1    2  501    0 -0.29248624572E+03  0.16232189188E+03  0.98546940813E+02  0.53066759847E+03  0.40000000000E+03 0.  1.
   -9000007    1    1    2    0  503  0.29248624572E+03 -0.16232189188E+03 -0.15603693225E+04  0.16451896617E+04  0.40000000000E+03 0. -1.
<mgrwt>
<rscale>  2 0.52143705E+03</rscale>
<asrwt>0</asrwt>
<pdfrwt beam="1">  1       21 0.54925761E-01 0.52143705E+03</pdfrwt>
<pdfrwt beam="2">  1       21 0.27982150E+00 0.52143705E+03</pdfrwt>
<totfact> 0.10432052E+02</totfact>
</mgrwt>
</event>
<event>
 4    1  0.4716816E-002  0.4832715E+03  0.7818608E-02  0.1018240E+00
         21   -1    0    0  501  502  0.00000000000E+00  0.00000000000E+00  0.20431675673E+03  0.20431675673E+03  0.00000000000E+00 0.  1.
         21   -1    0    0  502  503 -0.00000000000E+00 -0.00000000000E+00 -0.13913178526E+04  0.13913178526E+04  0.00000000000E+00 0. -1.
    9000007    1    1    2  501    0  0.26124407578E+03  0.72820939770E+02 -0.25650809579E+03  0.54712682223E+03  0.40000000000E+03 0.  1.
   -9000007    1    1    2    0  503 -0.26124407578E+03 -0.72820939770E+02 -0.93049300010E+03  0.10485077871E+04  0.40000000000E+03 0. -1.
<mgrwt>
<rscale>  2 0.48327151E+03</rscale>
<asrwt>0</asrwt>
<pdfrwt beam="1">  1       21 0.31433347E-01 0.48327151E+03</pdfrwt>
<pdfrwt beam="2">  1       21 0.21404890E+00 0.48327151E+03</pdfrwt>
<totfact> 0.86945695E+02</totfact>
</mgrwt>
</event>
<event>
 4    1  0.4716816E-002  0.5551106E+03  0.7818608E-02  0.1000318E+00
         21   -1    0    0  503  502  0.00000000000E+00  0.00000000000E+00  0.38997626342E+03  0.38997626342E+03  0.00000000000E+00 0. -1.
         21   -1    0    0  501  503 -0.00000000000E+00 -0.00000000000E+00 -0.79019673022E+03  0.79019673022E+03  0.00000000000E+00 0.  1.
    9000007    1    1    2  501    0 -0.33134650674E+03  0.19585018631E+03 -0.19672111111E+03  0.58893717709E+03  0.40000000000E+03 0.  1.
   -9000007    1    1    2    0  502  0.33134650674E+03 -0.19585018631E+03 -0.20349935569E+03  0.59123581655E+03  0.40000000000E+03 0. -1.
<mgrwt>
<rscale>  2 0.55511062E+03</rscale>
<asrwt>0</asrwt>
<pdfrwt beam="1">  1       21 0.59996348E-01 0.55511062E+03</pdfrwt>
<pdfrwt beam="2">  1       21 0.12156873E+00 0.55511062E+03</pdfrwt>
<totfact> 0.10844368E+03</totfact>
</mgrwt>
</event>
<event>
 4    1  0.4716816E-002  0.4354631E+03  0.7818608E-02  0.1032148E+00
         21   -1    0    0  503  502  0.00000000000E+00  0.00000000000E+00  0.50816080736E+03  0.50816080736E+03  0.00000000000E+00 0.  1.
         21   -1    0    0  501  503 -0.00000000000E+00 -0.00000000000E+00 -0.37370557916E+03  0.37370557916E+03  0.00000000000E+00 0. -1.
    9000007    1    1    2  501    0  0.89893676607E+02 -0.14678980347E+03  0.50466346832E+02  0.43837765871E+03  0.40000000000E+03 0. -1.
   -9000007    1    1    2    0  502 -0.89893676607E+02  0.14678980347E+03  0.83988881372E+02  0.44348872781E+03  0.40000000000E+03 0.  1.
<mgrwt>
<rscale>  2 0.43546311E+03</rscale>
<asrwt>0</asrwt>
<pdfrwt beam="1">  1       21 0.78178585E-01 0.43546311E+03</pdfrwt>
<pdfrwt beam="2">  1       21 0.57493166E-01 0.43546311E+03</pdfrwt>
<totfact> 0.36129127E+03</totfact>
</mgrwt>
</event>
<event>
 4    1  0.4716816E-002  0.4286806E+03  0.7818608E-02  0.1034278E+00
         21   -1    0    0  501  502  0.00000000000E+00  0.00000000000E+00  0.34418475003E+03  0.34418475003E+03  0.00000000000E+00 0. -1.
         21   -1    0    0  502  503 -0.00000000000E+00 -0.00000000000E+00 -0.56505257934E+03  0.56505257934E+03  0.00000000000E+00 0. -1.
    9000007    1    1    2  501    0  0.12469920352E+03  0.90648785707E+02 -0.21714534739E+03  0.48054052441E+03  0.40000000000E+03 0. -1.
   -9000007    1    1    2    0  503 -0.12469920352E+03 -0.90648785707E+02 -0.37224819252E+01  0.42869680496E+03  0.40000000000E+03 0. -1.
<mgrwt>
<rscale>  2 0.42868064E+03</rscale>
<asrwt>0</asrwt>
<pdfrwt beam="1">  1       21 0.52951500E-01 0.42868064E+03</pdfrwt>
<pdfrwt beam="2">  1       21 0.86931166E-01 0.42868064E+03</pdfrwt>
<totfact> 0.33806621E+03</totfact>
</mgrwt>
</event>
<event>
 4    1  0.4716816E-002  0.5557544E+03  0.7818608E-02  0.1000171E+00
         21   -1    0    0  503  502  0.00000000000E+00  0.00000000000E+00  0.10429789928E+04  0.10429789928E+04  0.00000000000E+00 0.  1.
         21   -1    0    0  501  503 -0.00000000000E+00 -0.00000000000E+00 -0.30356409214E+03  0.30356409214E+03  0.00000000000E+00 0.  1.
    9000007    1    1    2  501    0 -0.28099339893E+03  0.26439674318E+03  0.26438443357E+03  0.61543647662E+03  0.40000000000E+03 0.  1.
   -9000007    1    1    2    0  502  0.28099339893E+03 -0.26439674318E+03  0.47503046706E+03  0.73110660829E+03  0.40000000000E+03 0.  1.
<mgrwt>
<rscale>  2 0.55575438E+03</rscale>
<asrwt>0</asrwt>
<pdfrwt beam="1">  1       21 0.16045830E+00 0.55575438E+03</pdfrwt>
<pdfrwt beam="2">  1       21 0.46702169E-01 0.55575438E+03</pdfrwt>
<totfact> 0.88523173E+02</totfact>
</mgrwt>
</event>
<event>
 4    1  0.4716816E-002  0.5315444E+03  0.7818608E-02  0.1005858E+00
         21   -1    0    0  501  502  0.00000000000E+00  0.00000000000E+00  0.20913838766E+03  0.20913838766E+03  0.00000000000E+00 0. -1.
         21   -1    0    0  502  503 -0.00000000000E+00 -0.00000000000E+00 -0.13586730232E+04  0.13586730232E+04  0.00000000000E+00 0.  1.
    9000007    1    1    2  501    0  0.26979510071E+03  0.22304710236E+03 -0.63379760166E+03  0.82718728599E+03  0.40000000000E+03 0.  1.
   -9000007    1    1    2    0  503 -0.26979510071E+03 -0.22304710236E+03 -0.51573703390E+03  0.74062412489E+03  0.40000000000E+03 0. -1.
<mgrwt>
<rscale>  2 0.53154436E+03</rscale>
<asrwt>0</asrwt>
<pdfrwt beam="1">  1       21 0.32175136E-01 0.53154436E+03</pdfrwt>
<pdfrwt beam="2">  1       21 0.20902662E+00 0.53154436E+03</pdfrwt>
<totfact> 0.87715981E+02</totfact>
</mgrwt>
</event>
<event>
 4    1  0.4716816E-002  0.5169476E+03  0.7818608E-02  0.1009448E+00
         21   -1    0    0  501  502  0.00000000000E+00  0.00000000000E+00  0.11306823664E+03  0.11306823664E+03  0.00000000000E+00 0. -1.
         21   -1    0    0  502  503 -0.00000000000E+00 -0.00000000000E+00 -0.24326709653E+04  0.24326709653E+04  0.00000000000E+00 0.  1.
    9000007    1    1    2  501    0 -0.28294065330E+03  0.16486192329E+03 -0.94513837266E+03  0.10772749930E+04  0.40000000000E+03 0.  1.
   -9000007    1    1    2    0  503  0.28294065330E+03 -0.16486192329E+03 -0.13744643560E+04  0.14684642090E+04  0.40000000000E+03 0. -1.
<mgrwt>
<rscale>  2 0.51694764E+03</rscale>
<asrwt>0</asrwt>
<pdfrwt beam="1">  1       21 0.17395112E-01 0.51694764E+03</pdfrwt>
<pdfrwt beam="2">  1       21 0.37425709E+00 0.51694764E+03</pdfrwt>
<totfact> 0.27798500E+02</totfact>
</mgrwt>
</event>
<event>
 4    1  0.4716816E-002  0.5324181E+03  0.7818608E-02  0.1005647E+00
         21   -1    0    0  503  502  0.00000000000E+00  0.00000000000E+00  0.28093149294E+04  0.28093149294E+04  0.00000000000E+00 0. -1.
         21   -1    0    0  501  503 -0.00000000000E+00 -0.00000000000E+00 -0.11435346438E+03  0.11435346438E+03  0.00000000000E+00 0. -1.
    9000007    1    1    2  501    0 -0.22195744567E+03  0.27240392833E+03  0.84613415989E+03  0.99970596897E+03  0.40000000000E+03 0. -1.
   -9000007    1    1    2    0  502  0.22195744567E+03 -0.27240392833E+03  0.18488273051E+04  0.19239624248E+04  0.40000000000E+03 0. -1.
<mgrwt>
<rscale>  2 0.53241808E+03</rscale>
<asrwt>0</asrwt>
<pdfrwt beam="1">  1       21 0.43220224E+00 0.53241808E+03</pdfrwt>
<pdfrwt beam="2">  1       21 0.17592843E-01 0.53241808E+03</pdfrwt>
<totfact> 0.11378636E+02</totfact>
</mgrwt>
</event>
<event>
 4    1  0.4716816E-002  0.4274202E+03  0.7818608E-02  0.1034678E+00
         21   -1    0    0  503  502  0.00000000000E+00  0.00000000000E+00  0.33257094270E+03  0.33257094270E+03  0.00000000000E+00 0. -1.
         21   -1    0    0  501  503 -0.00000000000E+00 -0.00000000000E+00 -0.61070903872E+03  0.61070903872E+03  0.00000000000E+00 0. -1.
    9000007    1    1    2  501    0 -0.12351256057E+01 -0.15062027686E+03 -0.28860222330E+03  0.51573174871E+03  0.40000000000E+03 0. -1.
   -9000007    1    1    2    0  502  0.12351256057E+01  0.15062027686E+03  0.10464127279E+02  0.42754823271E+03  0.40000000000E+03 0. -1.
<mgrwt>
<rscale>  2 0.42742016E+03</rscale>
<asrwt>0</asrwt>
<pdfrwt beam="1">  1       21 0.51164761E-01 0.42742016E+03</pdfrwt>
<pdfrwt beam="2">  1       21 0.93955235E-01 0.42742016E+03</pdfrwt>
<totfact> 0.30281260E+03</totfact>
</mgrwt>
</event>
<event>
 4    1  0.4716816E-002  0.4453104E+03  0.7818608E-02  0.1029130E+00
         21   -1    0    0  501  502  0.00000000000E+00  0.00000000000E+00  0.69548021793E+03  0.69548021793E+03  0.00000000000E+00 0.  1.
         21   -1    0    0  502  503 -0.00000000000E+00 -0.00000000000E+00 -0.28515080658E+03  0.28515080658E+03  0.00000000000E+00 0.  1.
    9000007    1    1    2  501    0  0.99748150794E+02  0.16837939552E+03  0.20083968152E+03  0.48850577489E+03  0.40000000000E+03 0.  1.
   -9000007    1    1    2    0  503 -0.99748150794E+02 -0.16837939552E+03  0.20948972982E+03  0.49212524963E+03  0.40000000000E+03 0.  1.
<mgrwt>
<rscale>  2 0.44531036E+03</rscale>
<asrwt>0</asrwt>
<pdfrwt beam="1">  1       21 0.10699696E+00 0.44531036E+03</pdfrwt>
<pdfrwt beam="2">  1       21 0.43869355E-01 0.44531036E+03</pdfrwt>
<totfact> 0.30343303E+03</totfact>
</mgrwt>
</event>
<event>
 4    1  0.4716816E-002  0.5690978E+03  0.7818608E-02  0.9971677E-01
         21   -1    0    0  503  502  0.00000000000E+00  0.00000000000E+00  0.79705318135E+03  0.79705318135E+03  0.00000000000E+00 0. -1.
         21   -1    0    0  501  503 -0.00000000000E+00 -0.00000000000E+00 -0.81144210804E+03  0.81144210804E+03  0.00000000000E+00 0.  1.
    9000007    1    1    2  501    0  0.71522499131E+02  0.39844302434E+03 -0.57545148532E+03  0.80933103455E+03  0.40000000000E+03 0.  1.
   -9000007    1    1    2    0  502 -0.71522499131E+02 -0.39844302434E+03  0.56106255862E+03  0.79916425484E+03  0.40000000000E+03 0. -1.
<mgrwt>
<rscale>  2 0.56909780E+03</rscale>
<asrwt>0</asrwt>
<pdfrwt beam="1">  1       21 0.12262357E+00 0.56909780E+03</pdfrwt>
<pdfrwt beam="2">  1       21 0.12483725E+00 0.56909780E+03</pdfrwt>
<totfact> 0.18552805E+02</totfact>
</mgrwt>
</event>
<event>
 4    1  0.4716816E-002  0.4027705E+03  0.7818608E-02  0.1042825E+00
         21   -1    0    0  501  502  0.00000000000E+00  0.00000000000E+00  0.10279303184E+04  0.10279303184E+04  0.00000000000E+00 0. -1.
         21   -1    0    0  502  503 -0.00000000000E+00 -0.00000000000E+00 -0.23225335481E+03  0.23225335481E+03  0.00000000000E+00 0. -1.
    9000007    1    1    2  501    0  0.45934126769E+02 -0.10681573689E+02  0.41126428136E+02  0.40486469729E+03  0.40000000000E+03 0. -1.
   -9000007    1    1    2    0  503 -0.45934126769E+02  0.10681573689E+02  0.75455053549E+03  0.85531897595E+03  0.40000000000E+03 0. -1.
<mgrwt>
<rscale>  2 0.40277046E+03</rscale>
<asrwt>0</asrwt>
<pdfrwt beam="1">  1       21 0.15814312E+00 0.40277046E+03</pdfrwt>
<pdfrwt beam="2">  1       21 0.35731286E-01 0.40277046E+03</pdfrwt>
<totfact> 0.17052064E+03</totfact>
</mgrwt>
</event>
<event>
 4    1  0.4716816E-002  0.4502042E+03  0.7818608E-02  0.1027661E+00
         21   -1    0    0  501  502  0.00000000000E+00  0.00000000000E+00  0.16867753738E+03  0.16867753738E+03  0.00000000000E+00 0. -1.
         21   -1    0    0  502  503 -0.00000000000E+00 -0.00000000000E+00 -0.14238711589E+04  0.14238711589E+04  0.00000000000E+00 0.  1.
    9000007    1    1    2  501    0  0.41437548675E+02  0.20240253878E+03 -0.31299330810E+03  0.54831438889E+03  0.40000000000E+03 0. -1.
   -9000007    1    1    2    0  503 -0.41437548675E+02 -0.20240253878E+03 -0.94220031346E+03  0.10442343074E+04  0.40000000000E+03 0.  1.
<mgrwt>
<rscale>  2 0.45020424E+03</rscale>
<asrwt>0</asrwt>
<pdfrwt beam="1">  1       21 0.25950389E-01 0.45020424E+03</pdfrwt>
<pdfrwt beam="2">  1       21 0.21905711E+00 0.45020424E+03</pdfrwt>
<totfact> 0.11969920E+03</totfact>
</mgrwt>
</event>
<event>
 4    1  0.4716816E-002  0.5760639E+03  0.7818608E-02  0.9956349E-01
         21   -1    0    0  501  502  0.00000000000E+00  0.00000000000E+00  0.22831407508E+03  0.22831407508E+03  0.00000000000E+00 0. -1.
         21   -1    0    0  502  503 -0.00000000000E+00 -0.00000000000E+00 -0.16031501414E+04  0.16031501414E+04  0.00000000000E+00 0.  1.
    9000007    1    1    2  501    0  0.24242271247E+03 -0.33627502526E+03 -0.40761611174E+03  0.70569154641E+03  0.40000000000E+03 0. -1.
   -9000007    1    1    2    0  503 -0.24242271247E+03  0.33627502526E+03 -0.96721995461E+03  0.11257726701E+04  0.40000000000E+03 0.  1.
<mgrwt>
<rscale>  2 0.57606394E+03</rscale>
<asrwt>0</asrwt>
<pdfrwt beam="1">  1       21 0.35125244E-01 0.57606394E+03</pdfrwt>
<pdfrwt beam="2">  1       21 0.24663847E+00 0.57606394E+03</pdfrwt>
<totfact> 0.41512665E+02</totfact>
</mgrwt>
</event>
<event>
 4    1  0.4716816E-002  0.4266657E+03  0.7818608E-02  0.1034918E+00
         21   -1    0    0  501  502  0.00000000000E+00  0.00000000000E+00  0.15292604381E+04  0.15292604381E+04  0.00000000000E+00 0.  1.
         21   -1    0    0  502  503 -0.00000000000E+00 -0.00000000000E+00 -0.16568982118E+03  0.16568982118E+03  0.00000000000E+00 0.  1.
    9000007    1    1    2  501    0 -0.58085615436E+02  0.13663690034E+03  0.11314644722E+04  0.12092375421E+04  0.40000000000E+03 0.  1.
   -9000007    1    1    2    0  503  0.58085615436E+02 -0.13663690034E+03  0.23210614471E+03  0.48571271722E+03  0.40000000000E+03 0.  1.
<mgrwt>
<rscale>  2 0.42666566E+03</rscale>
<asrwt>0</asrwt>
<pdfrwt beam="1">  1       21 0.23527083E+00 0.42666566E+03</pdfrwt>
<pdfrwt beam="2">  1       21 0.25490743E-01 0.42666566E+03</pdfrwt>
<totfact> 0.99046812E+02</totfact>
</mgrwt>
</event>
<event>
 4    1  0.4716816E-002  0.5146856E+03  0.7818608E-02  0.1010015E+00
         21   -1    0    0  501  502  0.00000000000E+00  0.00000000000E+00  0.88484156198E+03  0.88484156198E+03  0.00000000000E+00 0. -1.
         21   -1    0    0  502  503 -0.00000000000E+00 -0.00000000000E+00 -0.74231986694E+03  0.74231986694E+03  0.00000000000E+00 0.  1.
    9000007    1    1    2  501    0 -0.32384194907E+03 -0.52581216262E+01  0.69972272051E+03  0.86862715903E+03  0.40000000000E+03 0. -1.
   -9000007    1    1    2    0  503  0.32384194907E+03  0.52581216262E+01 -0.55720102546E+03  0.75853426989E+03  0.40000000000E+03 0.  1.
<mgrwt>
<rscale>  2 0.51468559E+03</rscale>
<asrwt>0</asrwt>
<pdfrwt beam="1">  1       21 0.13612947E+00 0.51468559E+03</pdfrwt>
<pdfrwt beam="2">  1       21 0.11420306E+00 0.51468559E+03</pdfrwt>
<totfact> 0.18140518E+02</totfact>
</mgrwt>
</event>
<event>
 4    1  0.4716816E-002  0.4554378E+03  0.7818608E-02  0.1026113E+00
         21   -1    0    0  503  502  0.00000000000E+00  0.00000000000E+00  0.10892647373E+04  0.10892647373E+04  0.00000000000E+00 0. -1.
         21   -1    0    0  501  503 -0.00000000000E+00 -0.00000000000E+00 -0.24554894356E+03  0.24554894356E+03  0.00000000000E+00 0. -1.
    9000007    1    1    2  501    0 -0.21393080528E+03  0.40708844609E+02  0.10563708486E+03  0.46752838756E+03  0.40000000000E+03 0.  1.
   -9000007    1    1    2    0  502  0.21393080528E+03 -0.40708844609E+02  0.73807870886E+03  0.86728529329E+03  0.40000000000E+03 0.  1.
<mgrwt>
<rscale>  2 0.45543781E+03</rscale>
<asrwt>0</asrwt>
<pdfrwt beam="1">  1       21 0.16757919E+00 0.45543781E+03</pdfrwt>
<pdfrwt beam="2">  1       21 0.37776761E-01 0.45543781E+03</pdfrwt>
<totfact> 0.12650937E+03</totfact>
</mgrwt>
</event>
<event>
 4    1  0.4716816E-002  0.6148500E+03  0.7818608E-02  0.9875067E-01
         21   -1    0    0  501  502  0.00000000000E+00  0.00000000000E+00  0.40313671042E+03  0.40313671042E+03  0.00000000000E+00 0. -1.
         21   -1    0    0  502  503 -0.00000000000E+00 -0.00000000000E+00 -0.10487285943E+04  0.10487285943E+04  0.00000000000E+00 0.  1.
    9000007    1    1    2  501    0  0.46586115527E+03 -0.31841843002E+02 -0.55894646200E+03  0.83094023030E+03  0.40000000000E+03 0.  1.
   -9000007    1    1    2    0  503 -0.46586115527E+03  0.31841843002E+02 -0.86645421913E+02  0.62092507446E+03  0.40000000000E+03 0. -1.
<mgrwt>
<rscale>  2 0.61485000E+03</rscale>
<asrwt>0</asrwt>
<pdfrwt beam="1">  1       21 0.62021033E-01 0.61485000E+03</pdfrwt>
<pdfrwt beam="2">  1       21 0.16134286E+00 0.61485000E+03</pdfrwt>
<totfact> 0.46212001E+02</totfact>
</mgrwt>
</event>
<event>
 4    1  0.4716816E-002  0.4649282E+03  0.7818608E-02  0.1023362E+00
         21   -1    0    0  501  502  0.00000000000E+00  0.00000000000E+00  0.10081689754E+04  0.10081689754E+04  0.00000000000E+00 0. -1.
         21   -1    0    0  502  503 -0.00000000000E+00 -0.00000000000E+00 -0.23719581003E+03  0.23719581003E+03  0.00000000000E+00 0. -1.
    9000007    1    1    2  501    0  0.12620381195E+03 -0.20057629117E+03  0.19247822201E+03  0.50319590288E+03  0.40000000000E+03 0. -1.
   -9000007    1    1    2    0  503 -0.12620381195E+03  0.20057629117E+03  0.57849494340E+03  0.74216888258E+03  0.40000000000E+03 0. -1.
<mgrwt>
<rscale>  2 0.46492822E+03</rscale>
<asrwt>0</asrwt>
<pdfrwt beam="1">  1       21 0.15510292E+00 0.46492822E+03</pdfrwt>
<pdfrwt beam="2">  1       21 0.36491664E-01 0.46492822E+03</pdfrwt>
<totfact> 0.16790113E+03</totfact>
</mgrwt>
</event>
<event>
 4    1  0.4716816E-002  0.4370199E+03  0.7818608E-02  0.1031665E+00
         21   -1    0    0  503  502  0.00000000000E+00  0.00000000000E+00  0.24012161343E+04  0.24012161343E+04  0.00000000000E+00 0.  1.
         21   -1    0    0  501  503 -0.00000000000E+00 -0.00000000000E+00 -0.85162558306E+02  0.85162558306E+02  0.00000000000E+00 0.  1.
    9000007    1    1    2  501    0 -0.11646749332E+03  0.13199139873E+03  0.83851887389E+03  0.94556877497E+03  0.40000000000E+03 0.  1.
   -9000007    1    1    2    0  502  0.11646749332E+03 -0.13199139873E+03  0.14775347021E+04  0.15408099176E+04  0.40000000000E+03 0.  1.
<mgrwt>
<rscale>  2 0.43701992E+03</rscale>
<asrwt>0</asrwt>
<pdfrwt beam="1">  1       21 0.36941782E+00 0.43701992E+03</pdfrwt>
<pdfrwt beam="2">  1       21 0.13101934E-01 0.43701992E+03</pdfrwt>
<totfact> 0.52922077E+02</totfact>
</mgrwt>
</event>
<event>
 4    1  0.4716816E-002  0.4556521E+03  0.7818608E-02  0.1026050E+00
         21   -1    0    0  503  502  0.00000000000E+00  0.00000000000E+00  0.34590472228E+03  0.34590472228E+03  0.00000000000E+00 0. -1.
         21   -1    0    0  501  503 -0.00000000000E+00 -0.00000000000E+00 -0.60034598434E+03  0.60034598434E+03  0.00000000000E+00 0. -1.
    9000007    1    1    2  501    0  0.13117294580E+03 -0.17439178773E+03 -0.13408193879E+03  0.47497031870E+03  0.40000000000E+03 0. -1.
   -9000007    1    1    2    0  502 -0.13117294580E+03  0.17439178773E+03 -0.12035932327E+03  0.47128038792E+03  0.40000000000E+03 0. -1.
<mgrwt>
<rscale>  2 0.45565210E+03</rscale>
<asrwt>0</asrwt>
<pdfrwt beam="1">  1       21 0.53216112E-01 0.45565210E+03</pdfrwt>
<pdfrwt beam="2">  1       21 0.92360920E-01 0.45565210E+03</pdfrwt>
<totfact> 0.28701550E+03</totfact>
</mgrwt>
</event>
<event>
 4    1  0.4716816E-002  0.5322469E+03  0.7818608E-02  0.1005689E+00
         21   -1    0    0  503  502  0.00000000000E+00  0.00000000000E+00  0.77632641609E+03  0.77632641609E+03  0.00000000000E+00 0. -1.
         21   -1    0    0  501  503 -0.00000000000E+00 -0.00000000000E+00 -0.65561077924E+03  0.65561077924E+03  0.00000000000E+00 0.  1.
    9000007    1    1    2  501    0 -0.32811538710E+02  0.34958574074E+03 -0.41639846020E+03  0.67577693424E+03  0.40000000000E+03 0.  1.
   -9000007    1    1    2    0  502  0.32811538710E+02 -0.34958574074E+03  0.53711409704E+03  0.75616026108E+03  0.40000000000E+03 0. -1.
<mgrwt>
<rscale>  2 0.53224692E+03</rscale>
<asrwt>0</asrwt>
<pdfrwt beam="1">  1       21 0.11943483E+00 0.53224692E+03</pdfrwt>
<pdfrwt beam="2">  1       21 0.10086320E+00 0.53224692E+03</pdfrwt>
<totfact> 0.34414639E+02</totfact>
</mgrwt>
</event>
<event>
 4    1  0.4716816E-002  0.5055739E+03  0.7818608E-02  0.1012334E+00
         21   -1    0    0  503  502  0.00000000000E+00  0.00000000000E+00  0.34434591772E+03  0.34434591772E+03  0.00000000000E+00 0. -1.
         21   -1    0    0  501  503 -0.00000000000E+00 -0.00000000000E+00 -0.11279843456E+04  0.11279843456E+04  0.00000000000E+00 0.  1.
    9000007    1    1    2  501    0 -0.30794282321E+03  0.27859977395E+02 -0.82229094919E+03  0.96528097766E+03  0.40000000000E+03 0.  1.
   -9000007    1    1    2    0  502  0.30794282321E+03 -0.27859977395E+02  0.38652521299E+02  0.50704928568E+03  0.40000000000E+03 0. -1.
<mgrwt>
<rscale>  2 0.50557389E+03</rscale>
<asrwt>0</asrwt>
<pdfrwt beam="1">  1       21 0.52976295E-01 0.50557389E+03</pdfrwt>
<pdfrwt beam="2">  1       21 0.17353605E+00 0.50557389E+03</pdfrwt>
<totfact> 0.55173592E+02</totfact>
</mgrwt>
</event>
<event>
 4    1  0.4716816E-002  0.4093110E+03  0.7818608E-02  0.1040602E+00
         21   -1    0    0  503  502  0.00000000000E+00  0.00000000000E+00  0.19576302252E+03  0.19576302252E+03  0.00000000000E+00 0.  1.
         21   -1    0    0  501  503 -0.00000000000E+00 -0.00000000000E+00 -0.11782269478E+04  0.11782269478E+04  0.00000000000E+00 0.  1.
    9000007    1    1    2  501    0  0.80782765882E+02 -0.31774993763E+02 -0.85060836724E+03  0.94396509464E+03  0.40000000000E+03 0. -1.
   -9000007    1    1    2    0  502 -0.80782765882E+02  0.31774993763E+02 -0.13185555801E+03  0.43002487564E+03  0.40000000000E+03 0. -1.
<mgrwt>
<rscale>  2 0.40931101E+03</rscale>
<asrwt>0</asrwt>
<pdfrwt beam="1">  1       21 0.30117388E-01 0.40931101E+03</pdfrwt>
<pdfrwt beam="2">  1       21 0.18126569E+00 0.40931101E+03</pdfrwt>
<totfact> 0.16256495E+03</totfact>
</mgrwt>
</event>
<event>
 4    1  0.4716816E-002  0.4408882E+03  0.7818608E-02  0.1030475E+00
         21   -1    0    0  503  502  0.00000000000E+00  0.00000000000E+00  0.20342305579E+03  0.20342305579E+03  0.00000000000E+00 0.  1.
         21   -1    0    0  501  503 -0.00000000000E+00 -0.00000000000E+00 -0.14171241318E+04  0.14171241318E+04  0.00000000000E+00 0. -1.
    9000007    1    1    2  501    0 -0.10925112039E+01  0.18542164801E+03 -0.10692795217E+04  0.11566075725E+04  0.40000000000E+03 0. -1.
   -9000007    1    1    2    0  502  0.10925112039E+01 -0.18542164801E+03 -0.14442155428E+03  0.46393961511E+03  0.40000000000E+03 0.  1.
<mgrwt>
<rscale>  2 0.44088817E+03</rscale>
<asrwt>0</asrwt>
<pdfrwt beam="1">  1       21 0.31295855E-01 0.44088817E+03</pdfrwt>
<pdfrwt beam="2">  1       21 0.21801910E+00 0.44088817E+03</pdfrwt>
<totfact> 0.84342753E+02</totfact>
</mgrwt>
</event>
<event>
 4    1  0.4716816E-002  0.5906862E+03  0.7818608E-02  0.9924920E-01
         21   -1    0    0  503  502  0.00000000000E+00  0.00000000000E+00  0.61019193938E+03  0.61019193938E+03  0.00000000000E+00 0.  1.
         21   -1    0    0  501  503 -0.00000000000E+00 -0.00000000000E+00 -0.72613219748E+03  0.72613219748E+03  0.00000000000E+00 0. -1.
    9000007    1    1    2  501    0 -0.34821043055E+03  0.26011476097E+03 -0.36600267776E+03  0.69488715123E+03  0.40000000000E+03 0. -1.
   -9000007    1    1    2    0  502  0.34821043055E+03 -0.26011476097E+03  0.25006241966E+03  0.64143698564E+03  0.40000000000E+03 0.  1.
<mgrwt>
<rscale>  2 0.59068621E+03</rscale>
<asrwt>0</asrwt>
<pdfrwt beam="1">  1       21 0.93875683E-01 0.59068621E+03</pdfrwt>
<pdfrwt beam="2">  1       21 0.11171265E+00 0.59068621E+03</pdfrwt>
<totfact> 0.47450137E+02</totfact>
</mgrwt>
</event>
<event>
 4    1  0.4716816E-002  0.5167269E+03  0.7818608E-02  0.1009503E+00
         21   -1    0    0  501  502  0.00000000000E+00  0.00000000000E+00  0.89315878840E+03  0.89315878840E+03  0.00000000000E+00 0. -1.
         21   -1    0    0  502  503 -0.00000000000E+00 -0.00000000000E+00 -0.40246048020E+03  0.40246048020E+03  0.00000000000E+00 0.  1.
    9000007    1    1    2  501    0 -0.32669806889E+03  0.16585034895E+02  0.57388691357E+03  0.77223887571E+03  0.40000000000E+03 0. -1.
   -9000007    1    1    2    0  503  0.32669806889E+03 -0.16585034895E+02 -0.83188605373E+02  0.52338039289E+03  0.40000000000E+03 0.  1.
<mgrwt>
<rscale>  2 0.51672690E+03</rscale>
<asrwt>0</asrwt>
<pdfrwt beam="1">  1       21 0.13740904E+00 0.51672690E+03</pdfrwt>
<pdfrwt beam="2">  1       21 0.61916997E-01 0.51672690E+03</pdfrwt>
<totfact> 0.74516790E+02</totfact>
</mgrwt>
</event>
<event>
 4    1  0.4716816E-002  0.4252304E+03  0.7818608E-02  0.1035377E+00
         21   -1    0    0  503  502  0.00000000000E+00  0.00000000000E+00  0.51355083329E+03  0.51355083329E+03  0.00000000000E+00 0. -1.
         21   -1    0    0  501  503 -0.00000000000E+00 -0.00000000000E+00 -0.62352600418E+03  0.62352600418E+03  0.00000000000E+00 0.  1.
    9000007    1    1    2  501    0 -0.44992002416E+02 -0.13710065159E+03 -0.43009776483E+03  0.60481811833E+03  0.40000000000E+03 0.  1.
   -9000007    1    1    2    0  502  0.44992002416E+02  0.13710065159E+03  0.32012259395E+03  0.53225871914E+03  0.40000000000E+03 0. -1.
<mgrwt>
<rscale>  2 0.42523037E+03</rscale>
<asrwt>0</asrwt>
<pdfrwt beam="1">  1       21 0.79007820E-01 0.42523037E+03</pdfrwt>
<pdfrwt beam="2">  1       21 0.95927078E-01 0.42523037E+03</pdfrwt>
<totfact> 0.11026722E+03</totfact>
</mgrwt>
</event>
<event>
 4    1  0.4716816E-002  0.4487503E+03  0.7818608E-02  0.1028095E+00
         21   -1    0    0  503  502  0.00000000000E+00  0.00000000000E+00  0.87093193230E+03  0.87093193230E+03  0.00000000000E+00 0.  1.
         21   -1    0    0  501  503 -0.00000000000E+00 -0.00000000000E+00 -0.25088727625E+03  0.25088727625E+03  0.00000000000E+00 0. -1.
    9000007    1    1    2  501    0  0.97549903778E+02 -0.17849614008E+03  0.15297664885E+03  0.47410833239E+03  0.40000000000E+03 0. -1.
   -9000007    1    1    2    0  502 -0.97549903778E+02  0.17849614008E+03  0.46706800721E+03  0.64771087617E+03  0.40000000000E+03 0. -1.
<mgrwt>
<rscale>  2 0.44875033E+03</rscale>
<asrwt>0</asrwt>
<pdfrwt beam="1">  1       21 0.13398953E+00 0.44875033E+03</pdfrwt>
<pdfrwt beam="2">  1       21 0.38598043E-01 0.44875033E+03</pdfrwt>
<totfact> 0.22313642E+03</totfact>
</mgrwt>
</event>
<event>
 4    1  0.4716816E-002  0.4438848E+03  0.7818608E-02  0.1029562E+00
         21   -1    0    0  501  502  0.00000000000E+00  0.00000000000E+00  0.79486186136E+03  0.79486186136E+03  0.00000000000E+00 0.  1.
         21   -1    0    0  502  503 -0.00000000000E+00 -0.00000000000E+00 -0.25994462935E+03  0.25994462935E+03  0.00000000000E+00 0.  1.
    9000007    1    1    2  501    0 -0.74970085538E+02  0.17723759444E+03  0.38106014213E+03  0.58501325671E+03  0.40000000000E+03 0.  1.
   -9000007    1    1    2    0  503  0.74970085538E+02 -0.17723759444E+03  0.15385708988E+03  0.46979323400E+03  0.40000000000E+03 0.  1.
<mgrwt>
<rscale>  2 0.44388476E+03</rscale>
<asrwt>0</asrwt>
<pdfrwt beam="1">  1       21 0.12228644E+00 0.44388476E+03</pdfrwt>
<pdfrwt beam="2">  1       21 0.39991482E-01 0.44388476E+03</pdfrwt>
<totfact> 0.26323066E+03</totfact>
</mgrwt>
</event>
<event>
 4    1  0.4716816E-002  0.4569453E+03  0.7818608E-02  0.1025671E+00
         21   -1    0    0  501  502  0.00000000000E+00  0.00000000000E+00  0.10481673852E+04  0.10481673852E+04  0.00000000000E+00 0. -1.
         21   -1    0    0  502  503 -0.00000000000E+00 -0.00000000000E+00 -0.19920849463E+03  0.19920849463E+03  0.00000000000E+00 0. -1.
    9000007    1    1    2  501    0  0.10953616164E+01  0.22090218566E+03  0.42146693352E+03  0.62163763681E+03  0.40000000000E+03 0. -1.
   -9000007    1    1    2    0  503 -0.10953616164E+01 -0.22090218566E+03  0.42749195703E+03  0.62573824302E+03  0.40000000000E+03 0. -1.
<mgrwt>
<rscale>  2 0.45694527E+03</rscale>
<asrwt>0</asrwt>
<pdfrwt beam="1">  1       21 0.16125652E+00 0.45694527E+03</pdfrwt>
<pdfrwt beam="2">  1       21 0.30647461E-01 0.45694527E+03</pdfrwt>
<totfact> 0.21484329E+03</totfact>
</mgrwt>
</event>
<event>
 4    1  0.4716816E-002  0.5041991E+03  0.7818608E-02  0.1012689E+00
         21   -1    0    0  501  502  0.00000000000E+00  0.00000000000E+00  0.39976737373E+03  0.39976737373E+03  0.00000000000E+00 0. -1.
         21   -1    0    0  502  503 -0.00000000000E+00 -0.00000000000E+00 -0.65551400309E+03  0.65551400309E+03  0.00000000000E+00 0. -1.
    9000007    1    1    2  501    0 -0.30609774099E+03 -0.22824135529E+02 -0.21911648015E+03  0.54975339933E+03  0.40000000000E+03 0. -1.
   -9000007    1    1    2    0  503  0.30609774099E+03  0.22824135529E+02 -0.36630149216E+02  0.50552797750E+03  0.40000000000E+03 0. -1.
<mgrwt>
<rscale>  2 0.50419914E+03</rscale>
<asrwt>0</asrwt>
<pdfrwt beam="1">  1       21 0.61502674E-01 0.50419914E+03</pdfrwt>
<pdfrwt beam="2">  1       21 0.10084831E+00 0.50419914E+03</pdfrwt>
<totfact> 0.16660376E+03</totfact>
</mgrwt>
</event>
<event>
 4    1  0.4716816E-002  0.4064221E+03  0.7818608E-02  0.1041578E+00
         21   -1    0    0  503  502  0.00000000000E+00  0.00000000000E+00  0.10757482754E+04  0.10757482754E+04  0.00000000000E+00 0. -1.
         21   -1    0    0  501  503 -0.00000000000E+00 -0.00000000000E+00 -0.19395936388E+03  0.19395936388E+03  0.00000000000E+00 0. -1.
    9000007    1    1    2  501    0 -0.66653159072E+02 -0.27135135974E+02  0.73067571820E+03  0.83610164716E+03  0.40000000000E+03 0. -1.
   -9000007    1    1    2    0  502  0.66653159072E+02  0.27135135974E+02  0.15111319336E+03  0.43360599215E+03  0.40000000000E+03 0. -1.
<mgrwt>
<rscale>  2 0.40642214E+03</rscale>
<asrwt>0</asrwt>
<pdfrwt beam="1">  1       21 0.16549973E+00 0.40642214E+03</pdfrwt>
<pdfrwt beam="2">  1       21 0.29839903E-01 0.40642214E+03</pdfrwt>
<totfact> 0.21513371E+03</totfact>
</mgrwt>
</event>
<event>
 4    1  0.4716816E-002  0.5131499E+03  0.7818608E-02  0.1010402E+00
         21   -1    0    0  501  502  0.00000000000E+00  0.00000000000E+00  0.24868661382E+04  0.24868661382E+04  0.00000000000E+00 0.  1.
         21   -1    0    0  502  503 -0.00000000000E+00 -0.00000000000E+00 -0.13159372505E+03  0.13159372505E+03  0.00000000000E+00 0. -1.
    9000007    1    1    2  501    0  0.15611396916E+03  0.28098261996E+03  0.17563119340E+04  0.18297416248E+04  0.40000000000E+03 0.  1.
   -9000007    1    1    2    0  503 -0.15611396916E+03 -0.28098261996E+03  0.59896047923E+03  0.78871823852E+03  0.40000000000E+03 0. -1.
<mgrwt>
<rscale>  2 0.51314988E+03</rscale>
<asrwt>0</asrwt>
<pdfrwt beam="1">  1       21 0.38259476E+00 0.51314988E+03</pdfrwt>
<pdfrwt beam="2">  1       21 0.20245190E-01 0.51314988E+03</pdfrwt>
<totfact> 0.18505433E+02</totfact>
</mgrwt>
</event>
<event>
 4    1  0.4716816E-002  0.4241242E+03  0.7818608E-02  0.1035732E+00
         21   -1    0    0  501  502  0.00000000000E+00  0.00000000000E+00  0.36739653285E+03  0.36739653285E+03  0.00000000000E+00 0. -1.
         21   -1    0    0  502  503 -0.00000000000E+00 -0.00000000000E+00 -0.57072127965E+03  0.57072127965E+03  0.00000000000E+00 0.  1.
    9000007    1    1    2  501    0  0.10063836661E+03 -0.98758409828E+02  0.75166785966E+02  0.43073350236E+03  0.40000000000E+03 0. -1.
   -9000007    1    1    2    0  503 -0.10063836661E+03  0.98758409828E+02 -0.27849153276E+03  0.50738431013E+03  0.40000000000E+03 0.  1.
<mgrwt>
<rscale>  2 0.42412416E+03</rscale>
<asrwt>0</asrwt>
<pdfrwt beam="1">  1       21 0.56522544E-01 0.42412416E+03</pdfrwt>
<pdfrwt beam="2">  1       21 0.87803274E-01 0.42412416E+03</pdfrwt>
<totfact> 0.28739977E+03</totfact>
</mgrwt>
</event>
<event>
 4    1  0.4716816E-002  0.5433512E+03  0.7818608E-02  0.1003045E+00
         21   -1    0    0  501  502  0.00000000000E+00  0.00000000000E+00  0.79396765640E+03  0.79396765640E+03  0.00000000000E+00 0. -1.
         21   -1    0    0  502  503 -0.00000000000E+00 -0.00000000000E+00 -0.37185106818E+03  0.37185106818E+03  0.00000000000E+00 0.  1.
    9000007    1    1    2  501    0  0.35698520769E+03 -0.88272628760E+02  0.20817457312E+03  0.58186523215E+03  0.40000000000E+03 0.  1.
   -9000007    1    1    2    0  503 -0.35698520769E+03  0.88272628760E+02  0.21394201511E+03  0.58395349243E+03  0.40000000000E+03 0. -1.
<mgrwt>
<rscale>  2 0.54335117E+03</rscale>
<asrwt>0</asrwt>
<pdfrwt beam="1">  1       21 0.12214887E+00 0.54335117E+03</pdfrwt>
<pdfrwt beam="2">  1       21 0.57207857E-01 0.54335117E+03</pdfrwt>
<totfact> 0.11937263E+03</totfact>
</mgrwt>
</event>
<event>
 4    1  0.4716816E-002  0.4349663E+03  0.7818608E-02  0.1032303E+00
         21   -1    0    0  501  502  0.00000000000E+00  0.00000000000E+00  0.38062484397E+03  0.38062484397E+03  0.00000000000E+00 0.  1.
         21   -1    0    0  502  503 -0.00000000000E+00 -0.00000000000E+00 -0.50238159878E+03  0.50238159878E+03  0.00000000000E+00 0.  1.
    9000007    1    1    2  501    0 -0.14869000472E+03 -0.84184064634E+02 -0.15464088788E+02  0.43524109673E+03  0.40000000000E+03 0.  1.
   -9000007    1    1    2    0  503  0.14869000472E+03  0.84184064634E+02 -0.10629266602E+03  0.44776534601E+03  0.40000000000E+03 0.  1.
<mgrwt>
<rscale>  2 0.43496629E+03</rscale>
<asrwt>0</asrwt>
<pdfrwt beam="1">  1       21 0.58557669E-01 0.43496629E+03</pdfrwt>
<pdfrwt beam="2">  1       21 0.77289476E-01 0.43496629E+03</pdfrwt>
<totfact> 0.35643672E+03</totfact>
</mgrwt>
</event>
<event>
 4    1  0.4716816E-002  0.4562771E+03  0.7818608E-02  0.1025867E+00
         21   -1    0    0  501  502  0.00000000000E+00  0.00000000000E+00  0.65455125940E+03  0.65455125940E+03  0.00000000000E+00 0. -1.
         21   -1    0    0  502  503 -0.00000000000E+00 -0.00000000000E+00 -0.34032543050E+03  0.34032543050E+03  0.00000000000E+00 0.  1.
    9000007    1    1    2  501    0 -0.21183997878E+03  0.57554958761E+02  0.28433871071E+03  0.53762184879E+03  0.40000000000E+03 0. -1.
   -9000007    1    1    2    0  503  0.21183997878E+03 -0.57554958761E+02  0.29887118190E+02  0.45725484111E+03  0.40000000000E+03 0. -1.
<mgrwt>
<rscale>  2 0.45627705E+03</rscale>
<asrwt>0</asrwt>
<pdfrwt beam="1">  1       21 0.10070019E+00 0.45627705E+03</pdfrwt>
<pdfrwt beam="2">  1       21 0.52357759E-01 0.45627705E+03</pdfrwt>
<totfact> 0.24132199E+03</totfact>
</mgrwt>
</event>
<event>
 4    1  0.4716816E-002  0.4172097E+03  0.7818608E-02  0.1037978E+00
         21   -1    0    0  503  502  0.00000000000E+00  0.00000000000E+00  0.11439652964E+04  0.11439652964E+04  0.00000000000E+00 0.  1.
         21   -1    0    0  501  503 -0.00000000000E+00 -0.00000000000E+00 -0.21481680125E+03  0.21481680125E+03  0.00000000000E+00 0.  1.
    9000007    1    1    2  501    0  0.10223902983E+03 -0.60092857057E+02  0.83149749356E+03  0.93029675507E+03  0.40000000000E+03 0.  1.
   -9000007    1    1    2    0  502 -0.10223902983E+03  0.60092857057E+02  0.97651001568E+02  0.42848534257E+03  0.40000000000E+03 0.  1.
<mgrwt>
<rscale>  2 0.41720974E+03</rscale>
<asrwt>0</asrwt>
<pdfrwt beam="1">  1       21 0.17599466E+00 0.41720974E+03</pdfrwt>
<pdfrwt beam="2">  1       21 0.33048739E-01 0.41720974E+03</pdfrwt>
<totfact> 0.14661952E+03</totfact>
</mgrwt>
</event>
<event>
 4    1  0.4716816E-002  0.4339215E+03  0.7818608E-02  0.1032628E+00
         21   -1    0    0  503  502  0.00000000000E+00  0.00000000000E+00  0.84158461901E+03  0.84158461901E+03  0.00000000000E+00 0.  1.
         21   -1    0    0  501  503 -0.00000000000E+00 -0.00000000000E+00 -0.48536084053E+03  0.48536084053E+03  0.00000000000E+00 0.  1.
    9000007    1    1    2  501    0  0.13261707591E+03  0.10344363662E+03 -0.30900706912E+03  0.53270371084E+03  0.40000000000E+03 0.  1.
   -9000007    1    1    2    0  502 -0.13261707591E+03 -0.10344363662E+03  0.66523084760E+03  0.79424174870E+03  0.40000000000E+03 0.  1.
<mgrwt>
<rscale>  2 0.43392151E+03</rscale>
<asrwt>0</asrwt>
<pdfrwt beam="1">  1       21 0.12947456E+00 0.43392151E+03</pdfrwt>
<pdfrwt beam="2">  1       21 0.74670899E-01 0.43392151E+03</pdfrwt>
<totfact> 0.59213963E+02</totfact>
</mgrwt>
</event>
<event>
 4    1  0.4716816E-002  0.4192178E+03  0.7818608E-02  0.1037321E+00
         21   -1    0    0  501  502  0.00000000000E+00  0.00000000000E+00  0.89958754365E+03  0.89958754365E+03  0.00000000000E+00 0. -1.
         21   -1    0    0  502  503 -0.00000000000E+00 -0.00000000000E+00 -0.42256207035E+03  0.42256207035E+03  0.00000000000E+00 0. -1.
    9000007    1    1    2  501    0 -0.12546819422E+03  0.11292754444E+01  0.72325553458E+03  0.83596776931E+03  0.40000000000E+03 0. -1.
   -9000007    1    1    2    0  503  0.12546819422E+03 -0.11292754444E+01 -0.24623006128E+03  0.48618184468E+03  0.40000000000E+03 0. -1.
<mgrwt>
<rscale>  2 0.41921778E+03</rscale>
<asrwt>0</asrwt>
<pdfrwt beam="1">  1       21 0.13839808E+00 0.41921778E+03</pdfrwt>
<pdfrwt beam="2">  1       21 0.65009550E-01 0.41921778E+03</pdfrwt>
<totfact> 0.68400384E+02</totfact>
</mgrwt>
</event>
<event>
 4    1  0.4716816E-002  0.5355626E+03  0.7818608E-02  0.1004892E+00
         21   -1    0    0  503  502  0.00000000000E+00  0.00000000000E+00  0.36155374512E+03  0.36155374512E+03  0.00000000000E+00 0. -1.
         21   -1    0    0  501  503 -0.00000000000E+00 -0.00000000000E+00 -0.81783480893E+03  0.81783480893E+03  0.00000000000E+00 0.  1.
    9000007    1    1    2  501    0 -0.32268682315E+03  0.15066681231E+03 -0.33023957555E+03  0.62919428750E+03  0.40000000000E+03 0.  1.
   -9000007    1    1    2    0  502  0.32268682315E+03 -0.15066681231E+03 -0.12604148826E+03  0.55019426654E+03  0.40000000000E+03 0. -1.
<mgrwt>
<rscale>  2 0.53556258E+03</rscale>
<asrwt>0</asrwt>
<pdfrwt beam="1">  1       21 0.55623654E-01 0.53556258E+03</pdfrwt>
<pdfrwt beam="2">  1       21 0.12582074E+00 0.53556258E+03</pdfrwt>
<totfact> 0.11786545E+03</totfact>
</mgrwt>
</event>
<event>
 4    1  0.4716816E-002  0.4281537E+03  0.7818608E-02  0.1034445E+00
         21   -1    0    0  501  502  0.00000000000E+00  0.00000000000E+00  0.16225794750E+03  0.16225794750E+03  0.00000000000E+00 0.  1.
         21   -1    0    0  502  503 -0.00000000000E+00 -0.00000000000E+00 -0.11405683400E+04  0.11405683400E+04  0.00000000000E+00 0.  1.
    9000007    1    1    2  501    0 -0.14776581214E+03 -0.38481691624E+02 -0.42579755711E+03  0.60383701068E+03  0.40000000000E+03 0.  1.
   -9000007    1    1    2    0  503  0.14776581214E+03  0.38481691624E+02 -0.55251283534E+03  0.69898927677E+03  0.40000000000E+03 0.  1.
<mgrwt>
<rscale>  2 0.42815368E+03</rscale>
<asrwt>0</asrwt>
<pdfrwt beam="1">  1       21 0.24962761E-01 0.42815368E+03</pdfrwt>
<pdfrwt beam="2">  1       21 0.17547205E+00 0.42815368E+03</pdfrwt>
<totfact> 0.25612573E+03</totfact>
</mgrwt>
</event>
<event>
 4    1  0.4716816E-002  0.6277181E+03  0.7818608E-02  0.9849512E-01
         21   -1    0    0  503  502  0.00000000000E+00  0.00000000000E+00  0.26793843036E+03  0.26793843036E+03  0.00000000000E+00 0.  1.
         21   -1    0    0  501  503 -0.00000000000E+00 -0.00000000000E+00 -0.14921653856E+04  0.14921653856E+04  0.00000000000E+00 0. -1.
    9000007    1    1    2  501    0 -0.45439503356E+03  0.16599734821E+03 -0.50631259195E+03  0.80646289865E+03  0.40000000000E+03 0.  1.
   -9000007    1    1    2    0  502  0.45439503356E+03 -0.16599734821E+03 -0.71791436325E+03  0.95364091728E+03  0.40000000000E+03 0. -1.
<mgrwt>
<rscale>  2 0.62771806E+03</rscale>
<asrwt>0</asrwt>
<pdfrwt beam="1">  1       21 0.41221297E-01 0.62771806E+03</pdfrwt>
<pdfrwt beam="2">  1       21 0.22956391E+00 0.62771806E+03</pdfrwt>
<totfact> 0.37510117E+02</totfact>
</mgrwt>
</event>
<event>
 4    1  0.4716816E-002  0.4177664E+03  0.7818608E-02  0.1037796E+00
         21   -1    0    0  501  502  0.00000000000E+00  0.00000000000E+00  0.30794459483E+03  0.30794459483E+03  0.00000000000E+00 0. -1.
         21   -1    0    0  502  503 -0.00000000000E+00 -0.00000000000E+00 -0.66623203133E+03  0.66623203133E+03  0.00000000000E+00 0. -1.
    9000007    1    1    2  501    0 -0.10795734990E+03  0.53609234834E+02 -0.36736086875E+03  0.55631173576E+03  0.40000000000E+03 0. -1.
   -9000007    1    1    2    0  503  0.10795734990E+03 -0.53609234834E+02  0.90734322496E+01  0.41786489040E+03  0.40000000000E+03 0. -1.
<mgrwt>
<rscale>  2 0.41776637E+03</rscale>
<asrwt>0</asrwt>
<pdfrwt beam="1">  1       21 0.47376091E-01 0.41776637E+03</pdfrwt>
<pdfrwt beam="2">  1       21 0.10249724E+00 0.41776637E+03</pdfrwt>
<totfact> 0.28997265E+03</totfact>
</mgrwt>
</event>
<event>
 4    1  0.4716816E-002  0.4433766E+03  0.7818608E-02  0.1029716E+00
         21   -1    0    0  501  502  0.00000000000E+00  0.00000000000E+00  0.58596040380E+03  0.58596040380E+03  0.00000000000E+00 0.  1.
         21   -1    0    0  502  503 -0.00000000000E+00 -0.00000000000E+00 -0.38442036539E+03  0.38442036539E+03  0.00000000000E+00 0.  1.
    9000007    1    1    2  501    0  0.19118055819E+03 -0.57253813274E+01  0.27387370912E+03  0.52114258545E+03  0.40000000000E+03 0.  1.
   -9000007    1    1    2    0  503 -0.19118055819E+03  0.57253813274E+01 -0.72333670708E+02  0.44923818375E+03  0.40000000000E+03 0.  1.
<mgrwt>
<rscale>  2 0.44337657E+03</rscale>
<asrwt>0</asrwt>
<pdfrwt beam="1">  1       21 0.90147755E-01 0.44337657E+03</pdfrwt>
<pdfrwt beam="2">  1       21 0.59141595E-01 0.44337657E+03</pdfrwt>
<totfact> 0.24296129E+03</totfact>
</mgrwt>
</event>
<event>
 4    1  0.4716816E-002  0.4661561E+03  0.7818608E-02  0.1023011E+00
         21   -1    0    0  503  502  0.00000000000E+00  0.00000000000E+00  0.41832100135E+03  0.41832100135E+03  0.00000000000E+00 0. -1.
         21   -1    0    0  501  503 -0.00000000000E+00 -0.00000000000E+00 -0.55704297011E+03  0.55704297011E+03  0.00000000000E+00 0. -1.
    9000007    1    1    2  501    0  0.16402816043E+03 -0.17434516963E+03 -0.19603330393E+03  0.50569806390E+03  0.40000000000E+03 0. -1.
   -9000007    1    1    2    0  502 -0.16402816043E+03  0.17434516963E+03  0.57311335168E+02  0.46966590756E+03  0.40000000000E+03 0. -1.
<mgrwt>
<rscale>  2 0.46615606E+03</rscale>
<asrwt>0</asrwt>
<pdfrwt beam="1">  1       21 0.64357077E-01 0.46615606E+03</pdfrwt>
<pdfrwt beam="2">  1       21 0.85698918E-01 0.46615606E+03</pdfrwt>
<totfact> 0.22536836E+03</totfact>
</mgrwt>
</event>
<event>
 4    1  0.4716816E-002  0.5809484E+03  0.7818608E-02  0.9945740E-01
         21   -1    0    0  503  502  0.00000000000E+00  0.00000000000E+00  0.13632524033E+04  0.13632524033E+04  0.00000000000E+00 0.  1.
         21   -1    0    0  501  503 -0.00000000000E+00 -0.00000000000E+00 -0.24763212055E+03  0.24763212055E+03  0.00000000000E+00 0.  1.
    9000007    1    1    2  501    0  0.20639627399E+03  0.36728949439E+03  0.57052208650E+03  0.81424593692E+03  0.40000000000E+03 0.  1.
   -9000007    1    1    2    0  502 -0.20639627399E+03 -0.36728949439E+03  0.54509819620E+03  0.79663858688E+03  0.40000000000E+03 0.  1.
<mgrwt>
<rscale>  2 0.58094836E+03</rscale>
<asrwt>0</asrwt>
<pdfrwt beam="1">  1       21 0.20973113E+00 0.58094836E+03</pdfrwt>
<pdfrwt beam="2">  1       21 0.38097250E-01 0.58094836E+03</pdfrwt>
<totfact> 0.60402414E+02</totfact>
</mgrwt>
</event>
<event>
 4    1  0.4716816E-002  0.4026560E+03  0.7818608E-02  0.1042864E+00
         21   -1    0    0  501  502  0.00000000000E+00  0.00000000000E+00  0.30904191272E+03  0.30904191272E+03  0.00000000000E+00 0.  1.
         21   -1    0    0  502  503 -0.00000000000E+00 -0.00000000000E+00 -0.85067299539E+03  0.85067299539E+03  0.00000000000E+00 0.  1.
    9000007    1    1    2  501    0  0.23841498390E+01  0.46110730133E+02  0.88171712410E+02  0.41219671817E+03  0.40000000000E+03 0.  1.
   -9000007    1    1    2    0  503 -0.23841498390E+01 -0.46110730133E+02 -0.62980279507E+03  0.74751818994E+03  0.40000000000E+03 0.  1.
<mgrwt>
<rscale>  2 0.40265604E+03</rscale>
<asrwt>0</asrwt>
<pdfrwt beam="1">  1       21 0.47544910E-01 0.40265604E+03</pdfrwt>
<pdfrwt beam="2">  1       21 0.13087277E+00 0.40265604E+03</pdfrwt>
<totfact> 0.15679343E+03</totfact>
</mgrwt>
</event>
<event>
 4    1  0.4716816E-002  0.5023350E+03  0.7818608E-02  0.1013171E+00
         21   -1    0    0  501  502  0.00000000000E+00  0.00000000000E+00  0.28701457951E+04  0.28701457951E+04  0.00000000000E+00 0.  1.
         21   -1    0    0  502  503 -0.00000000000E+00 -0.00000000000E+00 -0.11976515539E+03  0.11976515539E+03  0.00000000000E+00 0. -1.
    9000007    1    1    2  501    0 -0.30205005054E+03  0.33259975575E+02  0.21460782724E+04  0.22040853909E+04  0.40000000000E+03 0.  1.
   -9000007    1    1    2    0  503  0.30205005054E+03 -0.33259975575E+02  0.60430236731E+03  0.78582555962E+03  0.40000000000E+03 0. -1.
<mgrwt>
<rscale>  2 0.50233501E+03</rscale>
<asrwt>0</asrwt>
<pdfrwt beam="1">  1       21 0.44156084E+00 0.50233501E+03</pdfrwt>
<pdfrwt beam="2">  1       21 0.18425411E-01 0.50233501E+03</pdfrwt>
<totfact> 0.91888575E+01</totfact>
</mgrwt>
</event>
<event>
 4    1  0.4716816E-002  0.5175249E+03  0.7818608E-02  0.1009303E+00
         21   -1    0    0  503  502  0.00000000000E+00  0.00000000000E+00  0.26379290355E+03  0.26379290355E+03  0.00000000000E+00 0.  1.
         21   -1    0    0  501  503 -0.00000000000E+00 -0.00000000000E+00 -0.10340438027E+04  0.10340438027E+04  0.00000000000E+00 0. -1.
    9000007    1    1    2  501    0 -0.33513672886E+02  0.32666327148E+03 -0.47246524915E+03  0.70075350221E+03  0.40000000000E+03 0. -1.
   -9000007    1    1    2    0  502  0.33513672886E+02 -0.32666327148E+03 -0.29778565000E+03  0.59708320405E+03  0.40000000000E+03 0.  1.
<mgrwt>
<rscale>  2 0.51752494E+03</rscale>
<asrwt>0</asrwt>
<pdfrwt beam="1">  1       21 0.40583523E-01 0.51752494E+03</pdfrwt>
<pdfrwt beam="2">  1       21 0.15908367E+00 0.51752494E+03</pdfrwt>
<totfact> 0.12333613E+03</totfact>
</mgrwt>
</event>
<event>
 4    1  0.4716816E-002  0.6463836E+03  0.7818608E-02  0.9813589E-01
         21   -1    0    0  501  502  0.00000000000E+00  0.00000000000E+00  0.14562929050E+04  0.14562929050E+04  0.00000000000E+00 0. -1.
         21   -1    0    0  502  503 -0.00000000000E+00 -0.00000000000E+00 -0.30082556319E+03  0.30082556319E+03  0.00000000000E+00 0. -1.
    9000007    1    1    2  501    0 -0.30138973557E+03 -0.40862695653E+03  0.76675283753E+03  0.10028567576E+04  0.40000000000E+03 0. -1.
   -9000007    1    1    2    0  503  0.30138973557E+03  0.40862695653E+03  0.38871450428E+03  0.75426171064E+03  0.40000000000E+03 0. -1.
<mgrwt>
<rscale>  2 0.64638360E+03</rscale>
<asrwt>0</asrwt>
<pdfrwt beam="1">  1       21 0.22404506E+00 0.64638360E+03</pdfrwt>
<pdfrwt beam="2">  1       21 0.46280857E-01 0.64638360E+03</pdfrwt>
<totfact> 0.31695085E+02</totfact>
</mgrwt>
</event>
<event>
 4    1  0.4716816E-002  0.4647839E+03  0.7818608E-02  0.1023403E+00
         21   -1    0    0  501  502  0.00000000000E+00  0.00000000000E+00  0.46864855342E+03  0.46864855342E+03  0.00000000000E+00 0.  1.
         21   -1    0    0  502  503 -0.00000000000E+00 -0.00000000000E+00 -0.51273692455E+03  0.51273692455E+03  0.00000000000E+00 0.  1.
    9000007    1    1    2  501    0 -0.55853769592E+02 -0.23000957487E+03  0.13389955393E+03  0.48368702552E+03  0.40000000000E+03 0.  1.
   -9000007    1    1    2    0  503  0.55853769592E+02  0.23000957487E+03 -0.17798792506E+03  0.49769845246E+03  0.40000000000E+03 0.  1.
<mgrwt>
<rscale>  2 0.46478387E+03</rscale>
<asrwt>0</asrwt>
<pdfrwt beam="1">  1       21 0.72099777E-01 0.46478387E+03</pdfrwt>
<pdfrwt beam="2">  1       21 0.78882604E-01 0.46478387E+03</pdfrwt>
<totfact> 0.21191265E+03</totfact>
</mgrwt>
</event>
<event>
 4    1  0.4716816E-002  0.4023723E+03  0.7818608E-02  0.1042961E+00
         21   -1    0    0  501  502  0.00000000000E+00  0.00000000000E+00  0.45146337548E+03  0.45146337548E+03  0.00000000000E+00 0.  1.
         21   -1    0    0  502  503 -0.00000000000E+00 -0.00000000000E+00 -0.36064011199E+03  0.36064011199E+03  0.00000000000E+00 0.  1.
    9000007    1    1    2  501    0 -0.29495522138E+02 -0.32148350718E+02  0.15016646103E+02  0.40265245801E+03  0.40000000000E+03 0. -1.
   -9000007    1    1    2    0  503  0.29495522138E+02  0.32148350718E+02  0.75806617387E+02  0.40945102945E+03  0.40000000000E+03 0. -1.
<mgrwt>
<rscale>  2 0.40237234E+03</rscale>
<asrwt>0</asrwt>
<pdfrwt beam="1">  1       21 0.69455904E-01 0.40237234E+03</pdfrwt>
<pdfrwt beam="2">  1       21 0.55483094E-01 0.40237234E+03</pdfrwt>
<totfact> 0.51656844E+03</totfact>
</mgrwt>
</event>
<event>
 4    1  0.4716816E-002  0.5193982E+03  0.7818608E-02  0.1008836E+00
         21   -1    0    0  501  502  0.00000000000E+00  0.00000000000E+00  0.51853796236E+03  0.51853796236E+03  0.00000000000E+00 0. -1.
         21   -1    0    0  502  503 -0.00000000000E+00 -0.00000000000E+00 -0.54641040463E+03  0.54641040463E+03  0.00000000000E+00 0.  1.
    9000007    1    1    2  501    0 -0.38268292068E+01 -0.33130028701E+03  0.10255115185E+03  0.52942540885E+03  0.40000000000E+03 0. -1.
   -9000007    1    1    2    0  503  0.38268292068E+01  0.33130028701E+03 -0.13042359412E+03  0.53552295814E+03  0.40000000000E+03 0. -1.
<mgrwt>
<rscale>  2 0.51939823E+03</rscale>
<asrwt>0</asrwt>
<pdfrwt beam="1">  1       21 0.79775071E-01 0.51939823E+03</pdfrwt>
<pdfrwt beam="2">  1       21 0.84063139E-01 0.51939823E+03</pdfrwt>
<totfact> 0.14225724E+03</totfact>
</mgrwt>
</event>
<event>
 4    1  0.4716816E-002  0.1018953E+04  0.7818608E-02  0.9287998E-01
         21   -1    0    0  501  502  0.00000000000E+00  0.00000000000E+00  0.65755790632E+03  0.65755790632E+03  0.00000000000E+00 0.  1.
         21   -1    0    0  502  503 -0.00000000000E+00 -0.00000000000E+00 -0.18633940265E+04  0.18633940265E+04  0.00000000000E+00 0. -1.
    9000007    1    1    2  501    0  0.78762245555E+03  0.50785440469E+03 -0.11046575571E+03  0.10249233689E+04  0.40000000000E+03 0. -1.
   -9000007    1    1    2    0  503 -0.78762245555E+03 -0.50785440469E+03 -0.10953703645E+04  0.14960285640E+04  0.40000000000E+03 0.  1.
<mgrwt>
<rscale>  2 0.10189530E+04</rscale>
<asrwt>0</asrwt>
<pdfrwt beam="1">  1       21 0.10116276E+00 0.10189530E+04</pdfrwt>
<pdfrwt beam="2">  1       21 0.28667600E+00 0.10189530E+04</pdfrwt>
<totfact> 0.19060213E+01</totfact>
</mgrwt>
</event>
<event>
 4    1  0.4716816E-002  0.5372114E+03  0.7818608E-02  0.1004498E+00
         21   -1    0    0  503  502  0.00000000000E+00  0.00000000000E+00  0.72807346104E+03  0.72807346104E+03  0.00000000000E+00 0.  1.
         21   -1    0    0  501  503 -0.00000000000E+00 -0.00000000000E+00 -0.40147194463E+03  0.40147194463E+03  0.00000000000E+00 0. -1.
    9000007    1    1    2  501    0 -0.35801194012E+03 -0.20580126614E+02  0.99716255996E+02  0.54638761204E+03  0.40000000000E+03 0.  1.
   -9000007    1    1    2    0  502  0.35801194012E+03  0.20580126614E+02  0.22688526041E+03  0.58315779363E+03  0.40000000000E+03 0.  1.
<mgrwt>
<rscale>  2 0.53721140E+03</rscale>
<asrwt>0</asrwt>
<pdfrwt beam="1">  1       21 0.11201130E+00 0.53721140E+03</pdfrwt>
<pdfrwt beam="2">  1       21 0.61764915E-01 0.53721140E+03</pdfrwt>
<totfact> 0.12586732E+03</totfact>
</mgrwt>
</event>
<event>
 4    1  0.4716816E-002  0.4578752E+03  0.7818608E-02  0.1025399E+00
         21   -1    0    0  501  502  0.00000000000E+00  0.00000000000E+00  0.77707825538E+03  0.77707825538E+03  0.00000000000E+00 0.  1.
         21   -1    0    0  502  503 -0.00000000000E+00 -0.00000000000E+00 -0.33770225679E+03  0.33770225679E+03  0.00000000000E+00 0.  1.
    9000007    1    1    2  501    0  0.20829965329E+03 -0.79126445030E+02  0.46964141539E+03  0.65590609001E+03  0.40000000000E+03 0.  1.
   -9000007    1    1    2    0  503 -0.20829965329E+03  0.79126445030E+02 -0.30265416802E+02  0.45887442216E+03  0.40000000000E+03 0.  1.
<mgrwt>
<rscale>  2 0.45787524E+03</rscale>
<asrwt>0</asrwt>
<pdfrwt beam="1">  1       21 0.11955050E+00 0.45787524E+03</pdfrwt>
<pdfrwt beam="2">  1       21 0.51954193E-01 0.45787524E+03</pdfrwt>
<totfact> 0.16014410E+03</totfact>
</mgrwt>
</event>
<event>
 4    1  0.4716816E-002  0.4214092E+03  0.7818608E-02  0.1036609E+00
         21   -1    0    0  503  502  0.00000000000E+00  0.00000000000E+00  0.75060116800E+03  0.75060116800E+03  0.00000000000E+00 0. -1.
         21   -1    0    0  501  503 -0.00000000000E+00 -0.00000000000E+00 -0.40313915858E+03  0.40313915858E+03  0.00000000000E+00 0.  1.
    9000007    1    1    2  501    0 -0.51871984421E+02 -0.12204500832E+03 -0.19705227756E+03  0.46520456459E+03  0.40000000000E+03 0.  1.
   -9000007    1    1    2    0  502  0.51871984421E+02  0.12204500832E+03  0.54451428697E+03  0.68853576199E+03  0.40000000000E+03 0. -1.
<mgrwt>
<rscale>  2 0.42140917E+03</rscale>
<asrwt>0</asrwt>
<pdfrwt beam="1">  1       21 0.11547710E+00 0.42140917E+03</pdfrwt>
<pdfrwt beam="2">  1       21 0.62021409E-01 0.42140917E+03</pdfrwt>
<totfact> 0.12077480E+03</totfact>
</mgrwt>
</event>
<event>
 4    1  0.4716816E-002  0.4311787E+03  0.7818608E-02  0.1033488E+00
         21   -1    0    0  503  502  0.00000000000E+00  0.00000000000E+00  0.14370799923E+03  0.14370799923E+03  0.00000000000E+00 0. -1.
         21   -1    0    0  501  503 -0.00000000000E+00 -0.00000000000E+00 -0.14286623765E+04  0.14286623765E+04  0.00000000000E+00 0. -1.
    9000007    1    1    2  501    0 -0.14585829257E+03  0.68120672674E+02 -0.88411566437E+03  0.98365419511E+03  0.40000000000E+03 0. -1.
   -9000007    1    1    2    0  502  0.14585829257E+03 -0.68120672674E+02 -0.40083871285E+03  0.58871618058E+03  0.40000000000E+03 0. -1.
<mgrwt>
<rscale>  2 0.43117870E+03</rscale>
<asrwt>0</asrwt>
<pdfrwt beam="1">  1       21 0.22108922E-01 0.43117870E+03</pdfrwt>
<pdfrwt beam="2">  1       21 0.21979422E+00 0.43117870E+03</pdfrwt>
<totfact> 0.16292005E+03</totfact>
</mgrwt>
</event>
<event>
 4    1  0.4716816E-002  0.6093987E+03  0.7818608E-02  0.9886096E-01
         21   -1    0    0  503  502  0.00000000000E+00  0.00000000000E+00  0.69038805606E+03  0.69038805606E+03  0.00000000000E+00 0.  1.
         21   -1    0    0  501  503 -0.00000000000E+00 -0.00000000000E+00 -0.58072923959E+03  0.58072923959E+03  0.00000000000E+00 0.  1.
    9000007    1    1    2  501    0 -0.35692443708E+03 -0.28977884457E+03 -0.11774915186E+03  0.62067035962E+03  0.40000000000E+03 0.  1.
   -9000007    1    1    2    0  502  0.35692443708E+03  0.28977884457E+03  0.22740796833E+03  0.65044693604E+03  0.40000000000E+03 0.  1.
<mgrwt>
<rscale>  2 0.60939875E+03</rscale>
<asrwt>0</asrwt>
<pdfrwt beam="1">  1       21 0.10621355E+00 0.60939875E+03</pdfrwt>
<pdfrwt beam="2">  1       21 0.89342960E-01 0.60939875E+03</pdfrwt>
<totfact> 0.60227225E+02</totfact>
</mgrwt>
</event>
<event>
 4    1  0.4716816E-002  0.4277708E+03  0.7818608E-02  0.1034566E+00
         21   -1    0    0  503  502  0.00000000000E+00  0.00000000000E+00  0.61107344618E+03  0.61107344618E+03  0.00000000000E+00 0.  1.
         21   -1    0    0  501  503 -0.00000000000E+00 -0.00000000000E+00 -0.29945339753E+03  0.29945339753E+03  0.00000000000E+00 0. -1.
    9000007    1    1    2  501    0 -0.10253166381E+03  0.11169200303E+03  0.15536611574E+03  0.45511149793E+03  0.40000000000E+03 0.  1.
   -9000007    1    1    2    0  502  0.10253166381E+03 -0.11169200303E+03  0.15625393291E+03  0.45541534578E+03  0.40000000000E+03 0. -1.
<mgrwt>
<rscale>  2 0.42777079E+03</rscale>
<asrwt>0</asrwt>
<pdfrwt beam="1">  1       21 0.94011299E-01 0.42777079E+03</pdfrwt>
<pdfrwt beam="2">  1       21 0.46069753E-01 0.42777079E+03</pdfrwt>
<totfact> 0.37746758E+03</totfact>
</mgrwt>
</event>
<event>
 4    1  0.4716816E-002  0.4410840E+03  0.7818608E-02  0.1030415E+00
         21   -1    0    0  501  502  0.00000000000E+00  0.00000000000E+00  0.85448505362E+02  0.85448505362E+02  0.00000000000E+00 0. -1.
         21   -1    0    0  502  503 -0.00000000000E+00 -0.00000000000E+00 -0.26057638499E+04  0.26057638499E+04  0.00000000000E+00 0.  1.
    9000007    1    1    2  501    0 -0.13832280370E+03  0.12418503379E+03 -0.78210201888E+03  0.89790795106E+03  0.40000000000E+03 0. -1.
   -9000007    1    1    2    0  503  0.13832280370E+03 -0.12418503379E+03 -0.17382133257E+04  0.17933044043E+04  0.40000000000E+03 0.  1.
<mgrwt>
<rscale>  2 0.44108403E+03</rscale>
<asrwt>0</asrwt>
<pdfrwt beam="1">  1       21 0.13145922E-01 0.44108403E+03</pdfrwt>
<pdfrwt beam="2">  1       21 0.40088679E+00 0.44108403E+03</pdfrwt>
<totfact> 0.33189877E+02</totfact>
</mgrwt>
</event>
<event>
 4    1  0.4716816E-002  0.4130892E+03  0.7818608E-02  0.1039339E+00
         21   -1    0    0  503  502  0.00000000000E+00  0.00000000000E+00  0.22211419698E+03  0.22211419698E+03  0.00000000000E+00 0. -1.
         21   -1    0    0  501  503 -0.00000000000E+00 -0.00000000000E+00 -0.11264122757E+04  0.11264122757E+04  0.00000000000E+00 0. -1.
    9000007    1    1    2  501    0 -0.10104766136E+03 -0.20786256033E+02 -0.83234828559E+03  0.92921814814E+03  0.40000000000E+03 0.  1.
   -9000007    1    1    2    0  502  0.10104766136E+03  0.20786256033E+02 -0.71949793155E+02  0.41930832456E+03  0.40000000000E+03 0.  1.
<mgrwt>
<rscale>  2 0.41308921E+03</rscale>
<asrwt>0</asrwt>
<pdfrwt beam="1">  1       21 0.34171416E-01 0.41308921E+03</pdfrwt>
<pdfrwt beam="2">  1       21 0.17329419E+00 0.41308921E+03</pdfrwt>
<totfact> 0.14360466E+03</totfact>
</mgrwt>
</event>
<event>
 4    1  0.4716816E-002  0.4364221E+03  0.7818608E-02  0.1031850E+00
         21   -1    0    0  501  502  0.00000000000E+00  0.00000000000E+00  0.97617962085E+03  0.97617962085E+03  0.00000000000E+00 0.  1.
         21   -1    0    0  502  503 -0.00000000000E+00 -0.00000000000E+00 -0.20045406779E+03  0.20045406779E+03  0.00000000000E+00 0.  1.
    9000007    1    1    2  501    0  0.60305012440E+02 -0.16379117440E+03  0.48390524772E+03  0.65163527537E+03  0.40000000000E+03 0.  1.
   -9000007    1    1    2    0  503 -0.60305012440E+02  0.16379117440E+03  0.29182030534E+03  0.52499841328E+03  0.40000000000E+03 0.  1.
<mgrwt>
<rscale>  2 0.43642209E+03</rscale>
<asrwt>0</asrwt>
<pdfrwt beam="1">  1       21 0.15018148E+00 0.43642209E+03</pdfrwt>
<pdfrwt beam="2">  1       21 0.30839088E-01 0.43642209E+03</pdfrwt>
<totfact> 0.26022084E+03</totfact>
</mgrwt>
</event>
<event>
 4    1  0.4716816E-002  0.5136285E+03  0.7818608E-02  0.1010282E+00
         21   -1    0    0  503  502  0.00000000000E+00  0.00000000000E+00  0.22343703286E+04  0.22343703286E+04  0.00000000000E+00 0.  1.
         21   -1    0    0  501  503 -0.00000000000E+00 -0.00000000000E+00 -0.24785268840E+03  0.24785268840E+03  0.00000000000E+00 0.  1.
    9000007    1    1    2  501    0  0.13515021070E+03  0.29248708535E+03  0.18913506467E+04  0.19598524290E+04  0.40000000000E+03 0.  1.
   -9000007    1    1    2    0  502 -0.13515021070E+03 -0.29248708535E+03  0.95166993441E+02  0.52237058798E+03  0.40000000000E+03 0.  1.
<mgrwt>
<rscale>  2 0.51362854E+03</rscale>
<asrwt>0</asrwt>
<pdfrwt beam="1">  1       21 0.34374927E+00 0.51362854E+03</pdfrwt>
<pdfrwt beam="2">  1       21 0.38131184E-01 0.51362854E+03</pdfrwt>
<totfact> 0.92429623E+01</totfact>
</mgrwt>
</event>
<event>
 4    1  0.4716816E-002  0.4210624E+03  0.7818608E-02  0.1036721E+00
         21   -1    0    0  503  502  0.00000000000E+00  0.00000000000E+00  0.78855805859E+03  0.78855805859E+03  0.00000000000E+00 0. -1.
         21   -1    0    0  501  503 -0.00000000000E+00 -0.00000000000E+00 -0.29916065024E+03  0.29916065024E+03  0.00000000000E+00 0. -1.
    9000007    1    1    2  501    0  0.12889176723E+03  0.26085387559E+02 -0.26389628087E+02  0.42188854876E+03  0.40000000000E+03 0. -1.
   -9000007    1    1    2    0  502 -0.12889176723E+03 -0.26085387559E+02  0.51578703644E+03  0.66583016007E+03  0.40000000000E+03 0. -1.
<mgrwt>
<rscale>  2 0.42106239E+03</rscale>
<asrwt>0</asrwt>
<pdfrwt beam="1">  1       21 0.12131662E+00 0.42106239E+03</pdfrwt>
<pdfrwt beam="2">  1       21 0.46024716E-01 0.42106239E+03</pdfrwt>
<totfact> 0.20238273E+03</totfact>
</mgrwt>
</event>
<event>
 4    1  0.4716816E-002  0.4437107E+03  0.7818608E-02  0.1029614E+00
         21   -1    0    0  501  502  0.00000000000E+00  0.00000000000E+00  0.64787197178E+03  0.64787197178E+03  0.00000000000E+00 0.  1.
         21   -1    0    0  502  503 -0.00000000000E+00 -0.00000000000E+00 -0.46391230566E+03  0.46391230566E+03  0.00000000000E+00 0.  1.
    9000007    1    1    2  501    0  0.13188353308E+03  0.13959204426E+03  0.41846865069E+03  0.60991410602E+03  0.40000000000E+03 0.  1.
   -9000007    1    1    2    0  503 -0.13188353308E+03 -0.13959204426E+03 -0.23450898456E+03  0.50187017142E+03  0.40000000000E+03 0.  1.
<mgrwt>
<rscale>  2 0.44371072E+03</rscale>
<asrwt>0</asrwt>
<pdfrwt beam="1">  1       21 0.99672612E-01 0.44371072E+03</pdfrwt>
<pdfrwt beam="2">  1       21 0.71371124E-01 0.44371072E+03</pdfrwt>
<totfact> 0.12579115E+03</totfact>
</mgrwt>
</event>
<event>
 4    1  0.4716816E-002  0.4233100E+03  0.7818608E-02  0.1035994E+00
         21   -1    0    0  503  502  0.00000000000E+00  0.00000000000E+00  0.11678671538E+04  0.11678671538E+04  0.00000000000E+00 0. -1.
         21   -1    0    0  501  503 -0.00000000000E+00 -0.00000000000E+00 -0.38270193175E+03  0.38270193175E+03  0.00000000000E+00 0. -1.
    9000007    1    1    2  501    0 -0.10392969688E+03 -0.91596670138E+02 -0.20748723472E+03  0.47142579951E+03  0.40000000000E+03 0. -1.
   -9000007    1    1    2    0  502  0.10392969688E+03  0.91596670138E+02  0.99265245678E+03  0.10791432860E+04  0.40000000000E+03 0. -1.
<mgrwt>
<rscale>  2 0.42330997E+03</rscale>
<asrwt>0</asrwt>
<pdfrwt beam="1">  1       21 0.17967187E+00 0.42330997E+03</pdfrwt>
<pdfrwt beam="2">  1       21 0.58877221E-01 0.42330997E+03</pdfrwt>
<totfact> 0.41230145E+02</totfact>
</mgrwt>
</event>
<event>
 4    1  0.4716816E-002  0.4477459E+03  0.7818608E-02  0.1028396E+00
         21   -1    0    0  501  502  0.00000000000E+00  0.00000000000E+00  0.58904437761E+03  0.58904437761E+03  0.00000000000E+00 0. -1.
         21   -1    0    0  502  503 -0.00000000000E+00 -0.00000000000E+00 -0.35572023119E+03  0.35572023119E+03  0.00000000000E+00 0. -1.
    9000007    1    1    2  501    0 -0.19638913130E+03 -0.43676756566E+02  0.18442707878E+02  0.44812552196E+03  0.40000000000E+03 0. -1.
   -9000007    1    1    2    0  503  0.19638913130E+03  0.43676756566E+02  0.21488143854E+03  0.49663908685E+03  0.40000000000E+03 0. -1.
<mgrwt>
<rscale>  2 0.44774585E+03</rscale>
<asrwt>0</asrwt>
<pdfrwt beam="1">  1       21 0.90622212E-01 0.44774585E+03</pdfrwt>
<pdfrwt beam="2">  1       21 0.54726190E-01 0.44774585E+03</pdfrwt>
<totfact> 0.28352798E+03</totfact>
</mgrwt>
</event>
<event>
 4    1  0.4716816E-002  0.4849453E+03  0.7818608E-02  0.1017785E+00
         21   -1    0    0  501  502  0.00000000000E+00  0.00000000000E+00  0.26908282010E+03  0.26908282010E+03  0.00000000000E+00 0.  1.
         21   -1    0    0  502  503 -0.00000000000E+00 -0.00000000000E+00 -0.88668888784E+03  0.88668888784E+03  0.00000000000E+00 0.  1.
    9000007    1    1    2  501    0 -0.18169931897E+03  0.20532254092E+03 -0.23960804693E+03  0.54091034791E+03  0.40000000000E+03 0.  1.
   -9000007    1    1    2    0  503  0.18169931897E+03 -0.20532254092E+03 -0.37799802081E+03  0.61486136003E+03  0.40000000000E+03 0.  1.
<mgrwt>
<rscale>  2 0.48494535E+03</rscale>
<asrwt>0</asrwt>
<pdfrwt beam="1">  1       21 0.41397357E-01 0.48494535E+03</pdfrwt>
<pdfrwt beam="2">  1       21 0.13641367E+00 0.48494535E+03</pdfrwt>
<totfact> 0.18178120E+03</totfact>
</mgrwt>
</event>
<event>
 4    1  0.4716816E-002  0.4278603E+03  0.7818608E-02  0.1034538E+00
         21   -1    0    0  501  502  0.00000000000E+00  0.00000000000E+00  0.74011668094E+03  0.74011668094E+03  0.00000000000E+00 0. -1.
         21   -1    0    0  502  503 -0.00000000000E+00 -0.00000000000E+00 -0.25194969475E+03  0.25194969475E+03  0.00000000000E+00 0. -1.
    9000007    1    1    2  501    0 -0.14387796639E+03 -0.48616275714E+02  0.31113958581E+03  0.52902953919E+03  0.40000000000E+03 0. -1.
   -9000007    1    1    2    0  503  0.14387796639E+03  0.48616275714E+02  0.17702740038E+03  0.46303683650E+03  0.40000000000E+03 0. -1.
<mgrwt>
<rscale>  2 0.42786027E+03</rscale>
<asrwt>0</asrwt>
<pdfrwt beam="1">  1       21 0.11386410E+00 0.42786027E+03</pdfrwt>
<pdfrwt beam="2">  1       21 0.38761492E-01 0.42786027E+03</pdfrwt>
<totfact> 0.33806668E+03</totfact>
</mgrwt>
</event>
<event>
 4    1  0.4716816E-002  0.5489095E+03  0.7818608E-02  0.1001747E+00
         21   -1    0    0  501  502  0.00000000000E+00  0.00000000000E+00  0.10903081330E+04  0.10903081330E+04  0.00000000000E+00 0.  1.
         21   -1    0    0  502  503 -0.00000000000E+00 -0.00000000000E+00 -0.29540498813E+03  0.29540498813E+03  0.00000000000E+00 0.  1.
    9000007    1    1    2  501    0  0.69931046604E+01  0.37583601067E+03  0.57344297649E+03  0.79381260869E+03  0.40000000000E+03 0.  1.
   -9000007    1    1    2    0  503 -0.69931046604E+01 -0.37583601067E+03  0.22146016836E+03  0.59190051242E+03  0.40000000000E+03 0.  1.
<mgrwt>
<rscale>  2 0.54890947E+03</rscale>
<asrwt>0</asrwt>
<pdfrwt beam="1">  1       21 0.16773971E+00 0.54890947E+03</pdfrwt>
<pdfrwt beam="2">  1       21 0.45446922E-01 0.54890947E+03</pdfrwt>
<totfact> 0.82893715E+02</totfact>
</mgrwt>
</event>
<event>
 4    1  0.4716816E-002  0.8075587E+03  0.7818608E-02  0.9549140E-01
         21   -1    0    0  501  502  0.00000000000E+00  0.00000000000E+00  0.64145432859E+03  0.64145432859E+03  0.00000000000E+00 0.  1.
         21   -1    0    0  502  503 -0.00000000000E+00 -0.00000000000E+00 -0.10334101455E+04  0.10334101455E+04  0.00000000000E+00 0. -1.
    9000007    1    1    2  501    0 -0.41618612547E+03 -0.56474782232E+03 -0.89411659422E+02  0.81249334686E+03  0.40000000000E+03 0. -1.
   -9000007    1    1    2    0  503  0.41618612547E+03  0.56474782232E+03 -0.30254415747E+03  0.86237112722E+03  0.40000000000E+03 0.  1.
<mgrwt>
<rscale>  2 0.80755866E+03</rscale>
<asrwt>0</asrwt>
<pdfrwt beam="1">  1       21 0.98685281E-01 0.80755866E+03</pdfrwt>
<pdfrwt beam="2">  1       21 0.15898618E+00 0.80755866E+03</pdfrwt>
<totfact> 0.15406313E+02</totfact>
</mgrwt>
</event>
<event>
 4    1  0.4716816E-002  0.4757384E+03  0.7818608E-02  0.1020313E+00
         21   -1    0    0  501  502  0.00000000000E+00  0.00000000000E+00  0.87496818320E+03  0.87496818320E+03  0.00000000000E+00 0.  1.
         21   -1    0    0  502  503 -0.00000000000E+00 -0.00000000000E+00 -0.26137572248E+03  0.26137572248E+03  0.00000000000E+00 0.  1.
    9000007    1    1    2  501    0 -0.15556300701E+03  0.20524898778E+03  0.36461684193E+03  0.59939339131E+03  0.40000000000E+03 0.  1.
   -9000007    1    1    2    0  503  0.15556300701E+03 -0.20524898778E+03  0.24897561879E+03  0.53695051437E+03  0.40000000000E+03 0.  1.
<mgrwt>
<rscale>  2 0.47573837E+03</rscale>
<asrwt>0</asrwt>
<pdfrwt beam="1">  1       21 0.13461049E+00 0.47573837E+03</pdfrwt>
<pdfrwt beam="2">  1       21 0.40211650E-01 0.47573837E+03</pdfrwt>
<totfact> 0.20059229E+03</totfact>
</mgrwt>
</event>
<event>
 4    1  0.4716816E-002  0.4199048E+03  0.7818608E-02  0.1037097E+00
         21   -1    0    0  501  502  0.00000000000E+00  0.00000000000E+00  0.14643434386E+04  0.14643434386E+04  0.00000000000E+00 0. -1.
         21   -1    0    0  502  503 -0.00000000000E+00 -0.00000000000E+00 -0.12272308202E+04  0.12272308202E+04  0.00000000000E+00 0. -1.
    9000007    1    1    2  501    0 -0.57338855460E+02  0.11415909929E+03  0.13966188654E+04  0.14583772830E+04  0.40000000000E+03 0. -1.
   -9000007    1    1    2    0  503  0.57338855460E+02 -0.11415909929E+03 -0.11595062471E+04  0.12331969759E+04  0.40000000000E+03 0. -1.
<mgrwt>
<rscale>  2 0.41990480E+03</rscale>
<asrwt>0</asrwt>
<pdfrwt beam="1">  1       21 0.22528361E+00 0.41990480E+03</pdfrwt>
<pdfrwt beam="2">  1       21 0.18880474E+00 0.41990480E+03</pdfrwt>
<totfact> 0.11293902E+01</totfact>
</mgrwt>
</event>
<event>
 4    1  0.4716816E-002  0.4619826E+03  0.7818608E-02  0.1024208E+00
         21   -1    0    0  503  502  0.00000000000E+00  0.00000000000E+00  0.35017629360E+03  0.35017629360E+03  0.00000000000E+00 0.  1.
         21   -1    0    0  501  503 -0.00000000000E+00 -0.00000000000E+00 -0.65227631204E+03  0.65227631204E+03  0.00000000000E+00 0. -1.
    9000007    1    1    2  501    0 -0.94382755446E+02 -0.21099717440E+03 -0.27942650198E+03  0.53991395809E+03  0.40000000000E+03 0. -1.
   -9000007    1    1    2    0  502  0.94382755446E+02  0.21099717440E+03 -0.22673516461E+02  0.46253864755E+03  0.40000000000E+03 0.  1.
<mgrwt>
<rscale>  2 0.46198259E+03</rscale>
<asrwt>0</asrwt>
<pdfrwt beam="1">  1       21 0.53873276E-01 0.46198259E+03</pdfrwt>
<pdfrwt beam="2">  1       21 0.10035020E+00 0.46198259E+03</pdfrwt>
<totfact> 0.22843936E+03</totfact>
</mgrwt>
</event>
<event>
 4    1  0.4716816E-002  0.4253625E+03  0.7818608E-02  0.1035335E+00
         21   -1    0    0  501  502  0.00000000000E+00  0.00000000000E+00  0.52398671694E+03  0.52398671694E+03  0.00000000000E+00 0.  1.
         21   -1    0    0  502  503 -0.00000000000E+00 -0.00000000000E+00 -0.57894068592E+03  0.57894068592E+03  0.00000000000E+00 0.  1.
    9000007    1    1    2  501    0 -0.11028688016E+03 -0.93648431499E+02  0.32284956199E+03  0.53400848713E+03  0.40000000000E+03 0.  1.
   -9000007    1    1    2    0  503  0.11028688016E+03  0.93648431499E+02 -0.37780353097E+03  0.56891891573E+03  0.40000000000E+03 0.  1.
<mgrwt>
<rscale>  2 0.42536246E+03</rscale>
<asrwt>0</asrwt>
<pdfrwt beam="1">  1       21 0.80613341E-01 0.42536246E+03</pdfrwt>
<pdfrwt beam="2">  1       21 0.89067798E-01 0.42536246E+03</pdfrwt>
<totfact> 0.12558216E+03</totfact>
</mgrwt>
</event>
<event>
 4    1  0.4716816E-002  0.4395290E+03  0.7818608E-02  0.1030891E+00
         21   -1    0    0  501  502  0.00000000000E+00  0.00000000000E+00  0.15585695829E+03  0.15585695829E+03  0.00000000000E+00 0.  1.
         21   -1    0    0  502  503 -0.00000000000E+00 -0.00000000000E+00 -0.12765051242E+04  0.12765051242E+04  0.00000000000E+00 0.  1.
    9000007    1    1    2  501    0 -0.16078333186E+03 -0.85641303467E+02 -0.68225233120E+03  0.81157498489E+03  0.40000000000E+03 0.  1.
   -9000007    1    1    2    0  503  0.16078333186E+03  0.85641303467E+02 -0.43839583470E+03  0.62078709760E+03  0.40000000000E+03 0.  1.
<mgrwt>
<rscale>  2 0.43952897E+03</rscale>
<asrwt>0</asrwt>
<pdfrwt beam="1">  1       21 0.23977994E-01 0.43952897E+03</pdfrwt>
<pdfrwt beam="2">  1       21 0.19638540E+00 0.43952897E+03</pdfrwt>
<totfact> 0.19749307E+03</totfact>
</mgrwt>
</event>
<event>
 4    1  0.4716816E-002  0.4479625E+03  0.7818608E-02  0.1028331E+00
         21   -1    0    0  503  502  0.00000000000E+00  0.00000000000E+00  0.30264227226E+03  0.30264227226E+03  0.00000000000E+00 0. -1.
         21   -1    0    0  501  503 -0.00000000000E+00 -0.00000000000E+00 -0.66921232289E+03  0.66921232289E+03  0.00000000000E+00 0.  1.
    9000007    1    1    2  501    0  0.91203164130E+02  0.17986766356E+03 -0.13669840052E+03  0.46835546996E+03  0.40000000000E+03 0. -1.
   -9000007    1    1    2    0  502 -0.91203164130E+02 -0.17986766356E+03 -0.22987165011E+03  0.50349912519E+03  0.40000000000E+03 0.  1.
<mgrwt>
<rscale>  2 0.44796249E+03</rscale>
<asrwt>0</asrwt>
<pdfrwt beam="1">  1       21 0.46560350E-01 0.44796249E+03</pdfrwt>
<pdfrwt beam="2">  1       21 0.10295574E+00 0.44796249E+03</pdfrwt>
<totfact> 0.29416989E+03</totfact>
</mgrwt>
</event>
<event>
 4    1  0.4716816E-002  0.5073103E+03  0.7818608E-02  0.1011888E+00
         21   -1    0    0  503  502  0.00000000000E+00  0.00000000000E+00  0.32291784009E+03  0.32291784009E+03  0.00000000000E+00 0.  1.
         21   -1    0    0  501  503 -0.00000000000E+00 -0.00000000000E+00 -0.17732124388E+04  0.17732124388E+04  0.00000000000E+00 0.  1.
    9000007    1    1    2  501    0  0.30748105419E+03  0.53095202078E+02 -0.15027921724E+04  0.15861109710E+04  0.40000000000E+03 0.  1.
   -9000007    1    1    2    0  502 -0.30748105419E+03 -0.53095202078E+02  0.52497573610E+02  0.51001930787E+03  0.40000000000E+03 0.  1.
<mgrwt>
<rscale>  2 0.50731026E+03</rscale>
<asrwt>0</asrwt>
<pdfrwt beam="1">  1       21 0.49679666E-01 0.50731026E+03</pdfrwt>
<pdfrwt beam="2">  1       21 0.27280192E+00 0.50731026E+03</pdfrwt>
<totfact> 0.14383066E+02</totfact>
</mgrwt>
</event>
<event>
 4    1  0.4716816E-002  0.4227422E+03  0.7818608E-02  0.1036177E+00
         21   -1    0    0  501  502  0.00000000000E+00  0.00000000000E+00  0.73224451663E+03  0.73224451663E+03  0.00000000000E+00 0.  1.
         21   -1    0    0  502  503 -0.00000000000E+00 -0.00000000000E+00 -0.25322050209E+03  0.25322050209E+03  0.00000000000E+00 0.  1.
    9000007    1    1    2  501    0 -0.70258203074E+02 -0.11736598318E+03  0.14579010544E+03  0.44717529443E+03  0.40000000000E+03 0.  1.
   -9000007    1    1    2    0  503  0.70258203074E+02  0.11736598318E+03  0.33323390910E+03  0.53828972429E+03  0.40000000000E+03 0.  1.
<mgrwt>
<rscale>  2 0.42274223E+03</rscale>
<asrwt>0</asrwt>
<pdfrwt beam="1">  1       21 0.11265300E+00 0.42274223E+03</pdfrwt>
<pdfrwt beam="2">  1       21 0.38957001E-01 0.42274223E+03</pdfrwt>
<totfact> 0.34428976E+03</totfact>
</mgrwt>
</event>
<event>
 4    1  0.4716816E-002  0.5061547E+03  0.7818608E-02  0.1012185E+00
         21   -1    0    0  501  502  0.00000000000E+00  0.00000000000E+00  0.14960720965E+04  0.14960720965E+04  0.00000000000E+00 0.  1.
         21   -1    0    0  502  503 -0.00000000000E+00 -0.00000000000E+00 -0.17692161098E+03  0.17692161098E+03  0.00000000000E+00 0. -1.
    9000007    1    1    2  501    0 -0.20729523317E+03  0.23069730148E+03  0.80943237909E+03  0.95465875313E+03  0.40000000000E+03 0.  1.
   -9000007    1    1    2    0  503  0.20729523317E+03 -0.23069730148E+03  0.50971810641E+03  0.71833495433E+03  0.40000000000E+03 0. -1.
<mgrwt>
<rscale>  2 0.50615468E+03</rscale>
<asrwt>0</asrwt>
<pdfrwt beam="1">  1       21 0.23016493E+00 0.50615468E+03</pdfrwt>
<pdfrwt beam="2">  1       21 0.27218710E-01 0.50615468E+03</pdfrwt>
<totfact> 0.90346228E+02</totfact>
</mgrwt>
</event>
<event>
 4    1  0.4716816E-002  0.4871350E+03  0.7818608E-02  0.1017192E+00
         21   -1    0    0  501  502  0.00000000000E+00  0.00000000000E+00  0.67948505332E+03  0.67948505332E+03  0.00000000000E+00 0.  1.
         21   -1    0    0  502  503 -0.00000000000E+00 -0.00000000000E+00 -0.92777173920E+03  0.92777173920E+03  0.00000000000E+00 0.  1.
    9000007    1    1    2  501    0 -0.16065190493E+03  0.22691735512E+03  0.51045636512E+03  0.70559635863E+03  0.40000000000E+03 0.  1.
   -9000007    1    1    2    0  503  0.16065190493E+03 -0.22691735512E+03 -0.75874305100E+03  0.90166043390E+03  0.40000000000E+03 0.  1.
<mgrwt>
<rscale>  2 0.48713501E+03</rscale>
<asrwt>0</asrwt>
<pdfrwt beam="1">  1       21 0.10453616E+00 0.48713501E+03</pdfrwt>
<pdfrwt beam="2">  1       21 0.14273411E+00 0.48713501E+03</pdfrwt>
<totfact> 0.20169860E+02</totfact>
</mgrwt>
</event>
<event>
 4    1  0.4716816E-002  0.4042078E+03  0.7818608E-02  0.1042332E+00
         21   -1    0    0  503  502  0.00000000000E+00  0.00000000000E+00  0.21602235420E+03  0.21602235420E+03  0.00000000000E+00 0. -1.
         21   -1    0    0  501  503 -0.00000000000E+00 -0.00000000000E+00 -0.75920421462E+03  0.75920421462E+03  0.00000000000E+00 0. -1.
    9000007    1    1    2  501    0 -0.91343171111E+01 -0.57450332374E+02 -0.30159840863E+03  0.50432685486E+03  0.40000000000E+03 0. -1.
   -9000007    1    1    2    0  502  0.91343171111E+01  0.57450332374E+02 -0.24158345178E+03  0.47089971396E+03  0.40000000000E+03 0. -1.
<mgrwt>
<rscale>  2 0.40420784E+03</rscale>
<asrwt>0</asrwt>
<pdfrwt beam="1">  1       21 0.33234208E-01 0.40420784E+03</pdfrwt>
<pdfrwt beam="2">  1       21 0.11680065E+00 0.40420784E+03</pdfrwt>
<totfact> 0.43723981E+03</totfact>
</mgrwt>
</event>
<event>
 4    1  0.4716816E-002  0.4040894E+03  0.7818608E-02  0.1042373E+00
         21   -1    0    0  503  502  0.00000000000E+00  0.00000000000E+00  0.67971844324E+03  0.67971844324E+03  0.00000000000E+00 0. -1.
         21   -1    0    0  501  503 -0.00000000000E+00 -0.00000000000E+00 -0.43769362180E+03  0.43769362180E+03  0.00000000000E+00 0. -1.
    9000007    1    1    2  501    0 -0.43698864458E+02 -0.37129818443E+02 -0.25425658629E+03  0.47742499499E+03  0.40000000000E+03 0. -1.
   -9000007    1    1    2    0  502  0.43698864458E+02  0.37129818443E+02  0.49628140773E+03  0.63998707005E+03  0.40000000000E+03 0. -1.
<mgrwt>
<rscale>  2 0.40408936E+03</rscale>
<asrwt>0</asrwt>
<pdfrwt beam="1">  1       21 0.10457207E+00 0.40408936E+03</pdfrwt>
<pdfrwt beam="2">  1       21 0.67337480E-01 0.40408936E+03</pdfrwt>
<totfact> 0.12965674E+03</totfact>
</mgrwt>
</event>
<event>
 4    1  0.4716816E-002  0.4889068E+03  0.7818608E-02  0.1016716E+00
         21   -1    0    0  501  502  0.00000000000E+00  0.00000000000E+00  0.19197999970E+03  0.19197999970E+03  0.00000000000E+00 0.  1.
         21   -1    0    0  502  503 -0.00000000000E+00 -0.00000000000E+00 -0.14221790563E+04  0.14221790563E+04  0.00000000000E+00 0. -1.
    9000007    1    1    2  501    0  0.22937301894E+03  0.16253577786E+03 -0.33029222008E+03  0.59001933150E+03  0.40000000000E+03 0.  1.
   -9000007    1    1    2    0  503 -0.22937301894E+03 -0.16253577786E+03 -0.89990683655E+03  0.10241397245E+04  0.40000000000E+03 0. -1.
<mgrwt>
<rscale>  2 0.48890680E+03</rscale>
<asrwt>0</asrwt>
<pdfrwt beam="1">  1       21 0.29535385E-01 0.48890680E+03</pdfrwt>
<pdfrwt beam="2">  1       21 0.21879677E+00 0.48890680E+03</pdfrwt>
<totfact> 0.91495721E+02</totfact>
</mgrwt>
</event>
<event>
 4    1  0.4716816E-002  0.5015778E+03  0.7818608E-02  0.1013368E+00
         21   -1    0    0  501  502  0.00000000000E+00  0.00000000000E+00  0.14447343056E+03  0.14447343056E+03  0.00000000000E+00 0. -1.
         21   -1    0    0  502  503 -0.00000000000E+00 -0.00000000000E+00 -0.17690711281E+04  0.17690711281E+04  0.00000000000E+00 0. -1.
    9000007    1    1    2  501    0 -0.27052788100E+03 -0.13562789680E+03 -0.93204529120E+03  0.10584369068E+04  0.40000000000E+03 0. -1.
   -9000007    1    1    2    0  503  0.27052788100E+03  0.13562789680E+03 -0.69255240637E+03  0.85510765191E+03  0.40000000000E+03 0. -1.
<mgrwt>
<rscale>  2 0.50157777E+03</rscale>
<asrwt>0</asrwt>
<pdfrwt beam="1">  1       21 0.22226681E-01 0.50157777E+03</pdfrwt>
<pdfrwt beam="2">  1       21 0.27216480E+00 0.50157777E+03</pdfrwt>
<totfact> 0.73896049E+02</totfact>
</mgrwt>
</event>
<event>
 4    1  0.4716816E-002  0.4283172E+03  0.7818608E-02  0.1034393E+00
         21   -1    0    0  501  502  0.00000000000E+00  0.00000000000E+00  0.20941847597E+03  0.20941847597E+03  0.00000000000E+00 0. -1.
         21   -1    0    0  502  503 -0.00000000000E+00 -0.00000000000E+00 -0.90355093711E+03  0.90355093711E+03  0.00000000000E+00 0. -1.
    9000007    1    1    2  501    0 -0.47342709830E+02 -0.14565125226E+03 -0.44419671159E+03  0.61706266946E+03  0.40000000000E+03 0. -1.
   -9000007    1    1    2    0  503  0.47342709830E+02  0.14565125226E+03 -0.24993574956E+03  0.49590674362E+03  0.40000000000E+03 0. -1.
<mgrwt>
<rscale>  2 0.42831719E+03</rscale>
<asrwt>0</asrwt>
<pdfrwt beam="1">  1       21 0.32218227E-01 0.42831719E+03</pdfrwt>
<pdfrwt beam="2">  1       21 0.13900784E+00 0.42831719E+03</pdfrwt>
<totfact> 0.29434812E+03</totfact>
</mgrwt>
</event>
<event>
 4    1  0.4716816E-002  0.4406485E+03  0.7818608E-02  0.1030548E+00
         21   -1    0    0  501  502  0.00000000000E+00  0.00000000000E+00  0.12073655705E+04  0.12073655705E+04  0.00000000000E+00 0.  1.
         21   -1    0    0  502  503 -0.00000000000E+00 -0.00000000000E+00 -0.41781694049E+03  0.41781694049E+03  0.00000000000E+00 0.  1.
    9000007    1    1    2  501    0 -0.15553891861E+03 -0.99893457398E+02  0.10320705170E+04  0.11222034620E+04  0.40000000000E+03 0.  1.
   -9000007    1    1    2    0  503  0.15553891861E+03  0.99893457398E+02 -0.24252188702E+03  0.50297904898E+03  0.40000000000E+03 0.  1.
<mgrwt>
<rscale>  2 0.44064845E+03</rscale>
<asrwt>0</asrwt>
<pdfrwt beam="1">  1       21 0.18574855E+00 0.44064845E+03</pdfrwt>
<pdfrwt beam="2">  1       21 0.64279530E-01 0.44064845E+03</pdfrwt>
<totfact> 0.30553845E+02</totfact>
</mgrwt>
</event>
<event>
 4    1  0.4716816E-002  0.4848324E+03  0.7818608E-02  0.1017815E+00
         21   -1    0    0  501  502  0.00000000000E+00  0.00000000000E+00  0.11824361610E+04  0.11824361610E+04  0.00000000000E+00 0. -1.
         21   -1    0    0  502  503 -0.00000000000E+00 -0.00000000000E+00 -0.19992565408E+03  0.19992565408E+03  0.00000000000E+00 0. -1.
    9000007    1    1    2  501    0 -0.28118691005E+02 -0.27252860559E+03  0.43927896204E+03  0.65423887697E+03  0.40000000000E+03 0. -1.
   -9000007    1    1    2    0  503  0.28118691005E+02  0.27252860559E+03  0.54323154489E+03  0.72812293812E+03  0.40000000000E+03 0. -1.
<mgrwt>
<rscale>  2 0.48483245E+03</rscale>
<asrwt>0</asrwt>
<pdfrwt beam="1">  1       21 0.18191325E+00 0.48483245E+03</pdfrwt>
<pdfrwt beam="2">  1       21 0.30757794E-01 0.48483245E+03</pdfrwt>
<totfact> 0.14934708E+03</totfact>
</mgrwt>
</event>
<event>
 4    1  0.4716816E-002  0.4458178E+03  0.7818608E-02  0.1028977E+00
         21   -1    0    0  501  502  0.00000000000E+00  0.00000000000E+00  0.75771446460E+03  0.75771446460E+03  0.00000000000E+00 0.  1.
         21   -1    0    0  502  503 -0.00000000000E+00 -0.00000000000E+00 -0.38297182240E+03  0.38297182240E+03  0.00000000000E+00 0.  1.
    9000007    1    1    2  501    0 -0.32210103851E+02 -0.19420607427E+03  0.50751424604E+03  0.67551772738E+03  0.40000000000E+03 0.  1.
   -9000007    1    1    2    0  503  0.32210103851E+02  0.19420607427E+03 -0.13277160384E+03  0.46516855962E+03  0.40000000000E+03 0.  1.
<mgrwt>
<rscale>  2 0.44581778E+03</rscale>
<asrwt>0</asrwt>
<pdfrwt beam="1">  1       21 0.11657146E+00 0.44581778E+03</pdfrwt>
<pdfrwt beam="2">  1       21 0.58918742E-01 0.44581778E+03</pdfrwt>
<totfact> 0.13066325E+03</totfact>
</mgrwt>
</event>
<event>
 4    1  0.4716816E-002  0.4009539E+03  0.7818608E-02  0.1043450E+00
         21   -1    0    0  503  502  0.00000000000E+00  0.00000000000E+00  0.28150677384E+03  0.28150677384E+03  0.00000000000E+00 0. -1.
         21   -1    0    0  501  503 -0.00000000000E+00 -0.00000000000E+00 -0.73909011534E+03  0.73909011534E+03  0.00000000000E+00 0. -1.
    9000007    1    1    2  501    0  0.13383503384E+02 -0.24184840450E+02 -0.47208939443E+03  0.61938067536E+03  0.40000000000E+03 0. -1.
   -9000007    1    1    2    0  502 -0.13383503384E+02  0.24184840450E+02  0.14506052933E+02  0.40121621383E+03  0.40000000000E+03 0. -1.
<mgrwt>
<rscale>  2 0.40095389E+03</rscale>
<asrwt>0</asrwt>
<pdfrwt beam="1">  1       21 0.43308735E-01 0.40095389E+03</pdfrwt>
<pdfrwt beam="2">  1       21 0.11370617E+00 0.40095389E+03</pdfrwt>
<totfact> 0.27270384E+03</totfact>
</mgrwt>
</event>
<event>
 4    1  0.4716816E-002  0.5195353E+03  0.7818608E-02  0.1008802E+00
         21   -1    0    0  503  502  0.00000000000E+00  0.00000000000E+00  0.13597519148E+03  0.13597519148E+03  0.00000000000E+00 0. -1.
         21   -1    0    0  501  503 -0.00000000000E+00 -0.00000000000E+00 -0.19966509068E+04  0.19966509068E+04  0.00000000000E+00 0. -1.
    9000007    1    1    2  501    0  0.19549282579E+03 -0.26776752686E+03 -0.10116341095E+04  0.11372424829E+04  0.40000000000E+03 0. -1.
   -9000007    1    1    2    0  502 -0.19549282579E+03  0.26776752686E+03 -0.84904160585E+03  0.99538361541E+03  0.40000000000E+03 0. -1.
<mgrwt>
<rscale>  2 0.51953527E+03</rscale>
<asrwt>0</asrwt>
<pdfrwt beam="1">  1       21 0.20919261E-01 0.51953527E+03</pdfrwt>
<pdfrwt beam="2">  1       21 0.30717704E+00 0.51953527E+03</pdfrwt>
<totfact> 0.50527902E+02</totfact>
</mgrwt>
</event>
<event>
 4    1  0.4716816E-002  0.4666715E+03  0.7818608E-02  0.1022864E+00
         21   -1    0    0  503  502  0.00000000000E+00  0.00000000000E+00  0.22474157768E+04  0.22474157768E+04  0.00000000000E+00 0.  1.
         21   -1    0    0  501  503 -0.00000000000E+00 -0.00000000000E+00 -0.13613140005E+03  0.13613140005E+03  0.00000000000E+00 0. -1.
    9000007    1    1    2  501    0  0.99038737235E+02 -0.21902880291E+03  0.41588887805E+03  0.62509667001E+03  0.40000000000E+03 0. -1.
   -9000007    1    1    2    0  502 -0.99038737235E+02  0.21902880291E+03  0.16953954987E+04  0.17584505068E+04  0.40000000000E+03 0.  1.
<mgrwt>
<rscale>  2 0.46667150E+03</rscale>
<asrwt>0</asrwt>
<pdfrwt beam="1">  1       21 0.34575625E+00 0.46667150E+03</pdfrwt>
<pdfrwt beam="2">  1       21 0.20943294E-01 0.46667150E+03</pdfrwt>
<totfact> 0.30231296E+02</totfact>
</mgrwt>
</event>
<event>
 4    1  0.4716816E-002  0.4646056E+03  0.7818608E-02  0.1023454E+00
         21   -1    0    0  501  502  0.00000000000E+00  0.00000000000E+00  0.53087964615E+03  0.53087964615E+03  0.00000000000E+00 0.  1.
         21   -1    0    0  502  503 -0.00000000000E+00 -0.00000000000E+00 -0.50814444005E+03  0.50814444005E+03  0.00000000000E+00 0.  1.
    9000007    1    1    2  501    0  0.12614927353E+03 -0.19986165063E+03  0.24359818599E+03  0.52459355202E+03  0.40000000000E+03 0.  1.
   -9000007    1    1    2    0  503 -0.12614927353E+03  0.19986165063E+03 -0.22086297989E+03  0.51443053417E+03  0.40000000000E+03 0.  1.
<mgrwt>
<rscale>  2 0.46460555E+03</rscale>
<asrwt>0</asrwt>
<pdfrwt beam="1">  1       21 0.81673792E-01 0.46460555E+03</pdfrwt>
<pdfrwt beam="2">  1       21 0.78176067E-01 0.46460555E+03</pdfrwt>
<totfact> 0.16255765E+03</totfact>
</mgrwt>
</event>
<event>
 4    1  0.4716816E-002  0.4783157E+03  0.7818608E-02  0.1019599E+00
         21   -1    0    0  503  502  0.00000000000E+00  0.00000000000E+00  0.31294777546E+03  0.31294777546E+03  0.00000000000E+00 0.  1.
         21   -1    0    0  501  503 -0.00000000000E+00 -0.00000000000E+00 -0.86584845896E+03  0.86584845896E+03  0.00000000000E+00 0.  1.
    9000007    1    1    2  501    0 -0.25627518230E+03 -0.55758206838E+02 -0.50899270243E+03  0.69846941079E+03  0.40000000000E+03 0.  1.
   -9000007    1    1    2    0  502  0.25627518230E+03  0.55758206838E+02 -0.43907981074E+02  0.48032682363E+03  0.40000000000E+03 0.  1.
<mgrwt>
<rscale>  2 0.47831574E+03</rscale>
<asrwt>0</asrwt>
<pdfrwt beam="1">  1       21 0.48145813E-01 0.47831574E+03</pdfrwt>
<pdfrwt beam="2">  1       21 0.13320745E+00 0.47831574E+03</pdfrwt>
<totfact> 0.14134177E+03</totfact>
</mgrwt>
</event>
<event>
 4    1  0.4716816E-002  0.4165031E+03  0.7818608E-02  0.1038210E+00
         21   -1    0    0  503  502  0.00000000000E+00  0.00000000000E+00  0.47652328038E+03  0.47652328038E+03  0.00000000000E+00 0. -1.
         21   -1    0    0  501  503 -0.00000000000E+00 -0.00000000000E+00 -0.53401684337E+03  0.53401684337E+03  0.00000000000E+00 0.  1.
    9000007    1    1    2  501    0 -0.43038320921E+02  0.10780769517E+03 -0.31380763905E+03  0.52148828417E+03  0.40000000000E+03 0.  1.
   -9000007    1    1    2    0  502  0.43038320921E+02 -0.10780769517E+03  0.25631407606E+03  0.48905183957E+03  0.40000000000E+03 0. -1.
<mgrwt>
<rscale>  2 0.41650306E+03</rscale>
<asrwt>0</asrwt>
<pdfrwt beam="1">  1       21 0.73311274E-01 0.41650306E+03</pdfrwt>
<pdfrwt beam="2">  1       21 0.82156437E-01 0.41650306E+03</pdfrwt>
<totfact> 0.18921272E+03</totfact>
</mgrwt>
</event>
<event>
 4    1  0.4716816E-002  0.5721224E+03  0.7818608E-02  0.9964993E-01
         21   -1    0    0  503  502  0.00000000000E+00  0.00000000000E+00  0.13855765025E+04  0.13855765025E+04  0.00000000000E+00 0.  1.
         21   -1    0    0  501  503 -0.00000000000E+00 -0.00000000000E+00 -0.23696877436E+03  0.23696877436E+03  0.00000000000E+00 0.  1.
    9000007    1    1    2  501    0 -0.37957920889E+03  0.15245856257E+03  0.61939649675E+03  0.84319393339E+03  0.40000000000E+03 0.  1.
   -9000007    1    1    2    0  502  0.37957920889E+03 -0.15245856257E+03  0.52921123140E+03  0.77935134347E+03  0.40000000000E+03 0.  1.
<mgrwt>
<rscale>  2 0.57212236E+03</rscale>
<asrwt>0</asrwt>
<pdfrwt beam="1">  1       21 0.21316561E+00 0.57212236E+03</pdfrwt>
<pdfrwt beam="2">  1       21 0.36456735E-01 0.57212236E+03</pdfrwt>
<totfact> 0.62968293E+02</totfact>
</mgrwt>
</event>
<event>
 4    1  0.4716816E-002  0.4756111E+03  0.7818608E-02  0.1020348E+00
         21   -1    0    0  501  502  0.00000000000E+00  0.00000000000E+00  0.97310207592E+03  0.97310207592E+03  0.00000000000E+00 0.  1.
         21   -1    0    0  502  503 -0.00000000000E+00 -0.00000000000E+00 -0.27668613931E+03  0.27668613931E+03  0.00000000000E+00 0.  1.
    9000007    1    1    2  501    0 -0.16556396371E+03  0.19696329585E+03  0.59804626861E+03  0.76411079392E+03  0.40000000000E+03 0.  1.
   -9000007    1    1    2    0  503  0.16556396371E+03 -0.19696329585E+03  0.98369668004E+02  0.48567742131E+03  0.40000000000E+03 0.  1.
<mgrwt>
<rscale>  2 0.47561115E+03</rscale>
<asrwt>0</asrwt>
<pdfrwt beam="1">  1       21 0.14970801E+00 0.47561115E+03</pdfrwt>
<pdfrwt beam="2">  1       21 0.42567099E-01 0.47561115E+03</pdfrwt>
<totfact> 0.13415053E+03</totfact>
</mgrwt>
</event>
<event>
 4    1  0.4716816E-002  0.4870011E+03  0.7818608E-02  0.1017229E+00
         21   -1    0    0  501  502  0.00000000000E+00  0.00000000000E+00  0.40938781390E+03  0.40938781390E+03  0.00000000000E+00 0. -1.
         21   -1    0    0  502  503 -0.00000000000E+00 -0.00000000000E+00 -0.65753789687E+03  0.65753789687E+03  0.00000000000E+00 0.  1.
    9000007    1    1    2  501    0 -0.19882285774E+03 -0.19400908602E+03  0.59906004077E+02  0.49067176762E+03  0.40000000000E+03 0. -1.
   -9000007    1    1    2    0  503  0.19882285774E+03  0.19400908602E+03 -0.30805608705E+03  0.57625394314E+03  0.40000000000E+03 0.  1.
<mgrwt>
<rscale>  2 0.48700108E+03</rscale>
<asrwt>0</asrwt>
<pdfrwt beam="1">  1       21 0.62982742E-01 0.48700108E+03</pdfrwt>
<pdfrwt beam="2">  1       21 0.10115967E+00 0.48700108E+03</pdfrwt>
<totfact> 0.15782920E+03</totfact>
</mgrwt>
</event>
<event>
 4    1  0.4716816E-002  0.4928599E+03  0.7818608E-02  0.1015660E+00
         21   -1    0    0  503  502  0.00000000000E+00  0.00000000000E+00  0.53704672422E+03  0.53704672422E+03  0.00000000000E+00 0.  1.
         21   -1    0    0  501  503 -0.00000000000E+00 -0.00000000000E+00 -0.67982016408E+03  0.67982016408E+03  0.00000000000E+00 0.  1.
    9000007    1    1    2  501    0 -0.13274949448E+03 -0.25551600486E+03 -0.42336655726E+03  0.64973078951E+03  0.40000000000E+03 0.  1.
   -9000007    1    1    2    0  502  0.13274949448E+03  0.25551600486E+03  0.28059311740E+03  0.56713609879E+03  0.40000000000E+03 0.  1.
<mgrwt>
<rscale>  2 0.49285988E+03</rscale>
<asrwt>0</asrwt>
<pdfrwt beam="1">  1       21 0.82622573E-01 0.49285988E+03</pdfrwt>
<pdfrwt beam="2">  1       21 0.10458772E+00 0.49285988E+03</pdfrwt>
<totfact> 0.78356748E+02</totfact>
</mgrwt>
</event>
<event>
 4    1  0.4716816E-002  0.4517960E+03  0.7818608E-02  0.1027188E+00
         21   -1    0    0  501  502  0.00000000000E+00  0.00000000000E+00  0.68640390694E+03  0.68640390694E+03  0.00000000000E+00 0.  1.
         21   -1    0    0  502  503 -0.00000000000E+00 -0.00000000000E+00 -0.30072698097E+03  0.30072698097E+03  0.00000000000E+00 0.  1.
    9000007    1    1    2  501    0  0.57169660241E+02  0.20211686998E+03  0.14073256098E+03  0.47320741002E+03  0.40000000000E+03 0.  1.
   -9000007    1    1    2    0  503 -0.57169660241E+02 -0.20211686998E+03  0.24494436499E+03  0.51392347789E+03  0.40000000000E+03 0.  1.
<mgrwt>
<rscale>  2 0.45179597E+03</rscale>
<asrwt>0</asrwt>
<pdfrwt beam="1">  1       21 0.10560060E+00 0.45179597E+03</pdfrwt>
<pdfrwt beam="2">  1       21 0.46265690E-01 0.45179597E+03</pdfrwt>
<totfact> 0.27971995E+03</totfact>
</mgrwt>
</event>
<event>
 4    1  0.4716816E-002  0.4780643E+03  0.7818608E-02  0.1019669E+00
         21   -1    0    0  503  502  0.00000000000E+00  0.00000000000E+00  0.62623103746E+03  0.62623103746E+03  0.00000000000E+00 0. -1.
         21   -1    0    0  501  503 -0.00000000000E+00 -0.00000000000E+00 -0.50280909875E+03  0.50280909875E+03  0.00000000000E+00 0. -1.
    9000007    1    1    2  501    0 -0.14558011556E+03  0.21760491643E+03 -0.23387878036E+03  0.53220743475E+03  0.40000000000E+03 0. -1.
   -9000007    1    1    2    0  502  0.14558011556E+03 -0.21760491643E+03  0.35730071906E+03  0.59683270147E+03  0.40000000000E+03 0. -1.
<mgrwt>
<rscale>  2 0.47806429E+03</rscale>
<asrwt>0</asrwt>
<pdfrwt beam="1">  1       21 0.96343236E-01 0.47806429E+03</pdfrwt>
<pdfrwt beam="2">  1       21 0.77355246E-01 0.47806429E+03</pdfrwt>
<totfact> 0.11212917E+03</totfact>
</mgrwt>
</event>
<event>
 4    1  0.4716816E-002  0.4327834E+03  0.7818608E-02  0.1032984E+00
         21   -1    0    0  503  502  0.00000000000E+00  0.00000000000E+00  0.86602190897E+02  0.86602190897E+02  0.00000000000E+00 0. -1.
         21   -1    0    0  501  503 -0.00000000000E+00 -0.00000000000E+00 -0.31018745617E+04  0.31018745617E+04  0.00000000000E+00 0. -1.
    9000007    1    1    2  501    0 -0.16059017130E+03  0.38888097119E+02 -0.23848304921E+04  0.24237817483E+04  0.40000000000E+03 0.  1.
   -9000007    1    1    2    0  502  0.16059017130E+03 -0.38888097119E+02 -0.63044187870E+03  0.76469500432E+03  0.40000000000E+03 0.  1.
<mgrwt>
<rscale>  2 0.43278342E+03</rscale>
<asrwt>0</asrwt>
<pdfrwt beam="1">  1       21 0.13323418E-01 0.43278342E+03</pdfrwt>
<pdfrwt beam="2">  1       21 0.47721133E+00 0.43278342E+03</pdfrwt>
<totfact> 0.10057806E+02</totfact>
</mgrwt>
</event>
<event>
 4    1  0.4716816E-002  0.5102094E+03  0.7818608E-02  0.1011148E+00
         21   -1    0    0  501  502  0.00000000000E+00  0.00000000000E+00  0.93941091813E+03  0.93941091813E+03  0.00000000000E+00 0.  1.
         21   -1    0    0  502  503 -0.00000000000E+00 -0.00000000000E+00 -0.33405330055E+03  0.33405330055E+03  0.00000000000E+00 0. -1.
    9000007    1    1    2  501    0  0.31662485206E+03  0.78926391084E+01  0.56558260017E+03  0.76170681257E+03  0.40000000000E+03 0.  1.
   -9000007    1    1    2    0  503 -0.31662485206E+03 -0.78926391084E+01  0.39775017414E+02  0.51175740611E+03  0.40000000000E+03 0. -1.
<mgrwt>
<rscale>  2 0.51020936E+03</rscale>
<asrwt>0</asrwt>
<pdfrwt beam="1">  1       21 0.14452476E+00 0.51020936E+03</pdfrwt>
<pdfrwt beam="2">  1       21 0.51392816E-01 0.51020936E+03</pdfrwt>
<totfact> 0.97848961E+02</totfact>
</mgrwt>
</event>
<event>
 4    1  0.4716816E-002  0.4414891E+03  0.7818608E-02  0.1030291E+00
         21   -1    0    0  503  502  0.00000000000E+00  0.00000000000E+00  0.36096470719E+03  0.36096470719E+03  0.00000000000E+00 0.  1.
         21   -1    0    0  501  503 -0.00000000000E+00 -0.00000000000E+00 -0.61576959245E+03  0.61576959245E+03  0.00000000000E+00 0.  1.
    9000007    1    1    2  501    0  0.78196222840E+02  0.16969967158E+03  0.43934415677E+02  0.44366976534E+03  0.40000000000E+03 0.  1.
   -9000007    1    1    2    0  502 -0.78196222840E+02 -0.16969967158E+03 -0.29873930094E+03  0.53306453430E+03  0.40000000000E+03 0.  1.
<mgrwt>
<rscale>  2 0.44148910E+03</rscale>
<asrwt>0</asrwt>
<pdfrwt beam="1">  1       21 0.55533033E-01 0.44148910E+03</pdfrwt>
<pdfrwt beam="2">  1       21 0.94733782E-01 0.44148910E+03</pdfrwt>
<totfact> 0.24771413E+03</totfact>
</mgrwt>
</event>
<event>
 4    1  0.4716816E-002  0.4022371E+03  0.7818608E-02  0.1043008E+00
         21   -1    0    0  501  502  0.00000000000E+00  0.00000000000E+00  0.30606173900E+03  0.30606173900E+03  0.00000000000E+00 0. -1.
         21   -1    0    0  502  503 -0.00000000000E+00 -0.00000000000E+00 -0.52863424444E+03  0.52863424444E+03  0.00000000000E+00 0. -1.
    9000007    1    1    2  501    0  0.27629711426E+02 -0.32114054029E+02 -0.11123203684E+03  0.41733353500E+03  0.40000000000E+03 0.  1.
   -9000007    1    1    2    0  503 -0.27629711426E+02  0.32114054029E+02 -0.11134046860E+03  0.41736244844E+03  0.40000000000E+03 0.  1.
<mgrwt>
<rscale>  2 0.40223714E+03</rscale>
<asrwt>0</asrwt>
<pdfrwt beam="1">  1       21 0.47086422E-01 0.40223714E+03</pdfrwt>
<pdfrwt beam="2">  1       21 0.81328344E-01 0.40223714E+03</pdfrwt>
<totfact> 0.51154537E+03</totfact>
</mgrwt>
</event>
<event>
 4    1  0.4716816E-002  0.5362675E+03  0.7818608E-02  0.1004723E+00
         21   -1    0    0  503  502  0.00000000000E+00  0.00000000000E+00  0.56002007359E+03  0.56002007359E+03  0.00000000000E+00 0. -1.
         21   -1    0    0  501  503 -0.00000000000E+00 -0.00000000000E+00 -0.53203870288E+03  0.53203870288E+03  0.00000000000E+00 0. -1.
    9000007    1    1    2  501    0  0.19927024919E+03  0.29643590209E+03  0.11585475896E+03  0.54863940930E+03  0.40000000000E+03 0. -1.
   -9000007    1    1    2    0  502 -0.19927024919E+03 -0.29643590209E+03 -0.87873388258E+02  0.54341936718E+03  0.40000000000E+03 0. -1.
<mgrwt>
<rscale>  2 0.53626754E+03</rscale>
<asrwt>0</asrwt>
<pdfrwt beam="1">  1       21 0.86156934E-01 0.53626754E+03</pdfrwt>
<pdfrwt beam="2">  1       21 0.81852108E-01 0.53626754E+03</pdfrwt>
<totfact> 0.12577662E+03</totfact>
</mgrwt>
</event>
<event>
 4    1  0.4716816E-002  0.4140252E+03  0.7818608E-02  0.1039029E+00
         21   -1    0    0  503  502  0.00000000000E+00  0.00000000000E+00  0.28821337612E+03  0.28821337612E+03  0.00000000000E+00 0.  1.
         21   -1    0    0  501  503 -0.00000000000E+00 -0.00000000000E+00 -0.21721106094E+04  0.21721106094E+04  0.00000000000E+00 0.  1.
    9000007    1    1    2  501    0  0.88233369520E+02 -0.60263622111E+02 -0.19902494041E+04  0.20328574771E+04  0.40000000000E+03 0.  1.
   -9000007    1    1    2    0  502 -0.88233369520E+02  0.60263622111E+02  0.10635217076E+03  0.42746650848E+03  0.40000000000E+03 0.  1.
<mgrwt>
<rscale>  2 0.41402516E+03</rscale>
<asrwt>0</asrwt>
<pdfrwt beam="1">  1       21 0.44340522E-01 0.41402516E+03</pdfrwt>
<pdfrwt beam="2">  1       21 0.33417085E+00 0.41402516E+03</pdfrwt>
<totfact> 0.82622319E+01</totfact>
</mgrwt>
</event>
<event>
 4    1  0.4716816E-002  0.4773025E+03  0.7818608E-02  0.1019879E+00
         21   -1    0    0  503  502  0.00000000000E+00  0.00000000000E+00  0.10775696596E+04  0.10775696596E+04  0.00000000000E+00 0. -1.
         21   -1    0    0  501  503 -0.00000000000E+00 -0.00000000000E+00 -0.27822477978E+03  0.27822477978E+03  0.00000000000E+00 0. -1.
    9000007    1    1    2  501    0 -0.25553678994E+03 -0.50185542498E+02  0.67490386207E+02  0.48205040392E+03  0.40000000000E+03 0. -1.
   -9000007    1    1    2    0  502  0.25553678994E+03  0.50185542498E+02  0.73185449362E+03  0.87374403547E+03  0.40000000000E+03 0. -1.
<mgrwt>
<rscale>  2 0.47730246E+03</rscale>
<asrwt>0</asrwt>
<pdfrwt beam="1">  1       21 0.16577995E+00 0.47730246E+03</pdfrwt>
<pdfrwt beam="2">  1       21 0.42803813E-01 0.47730246E+03</pdfrwt>
<totfact> 0.99875254E+02</totfact>
</mgrwt>
</event>
<event>
 4    1  0.4716816E-002  0.4057879E+03  0.7818608E-02  0.1041794E+00
         21   -1    0    0  503  502  0.00000000000E+00  0.00000000000E+00  0.45128946939E+03  0.45128946939E+03  0.00000000000E+00 0. -1.
         21   -1    0    0  501  503 -0.00000000000E+00 -0.00000000000E+00 -0.45713276538E+03  0.45713276538E+03  0.00000000000E+00 0. -1.
    9000007    1    1    2  501    0 -0.62838008349E+02  0.26743966387E+02  0.20112998969E+03  0.45289858444E+03  0.40000000000E+03 0. -1.
   -9000007    1    1    2    0  502  0.62838008349E+02 -0.26743966387E+02 -0.20697328568E+03  0.45552365034E+03  0.40000000000E+03 0. -1.
<mgrwt>
<rscale>  2 0.40578794E+03</rscale>
<asrwt>0</asrwt>
<pdfrwt beam="1">  1       21 0.69429150E-01 0.40578794E+03</pdfrwt>
<pdfrwt beam="2">  1       21 0.70328117E-01 0.40578794E+03</pdfrwt>
<totfact> 0.30634256E+03</totfact>
</mgrwt>
</event>
<event>
 4    1  0.4716816E-002  0.5276084E+03  0.7818608E-02  0.1006814E+00
         21   -1    0    0  501  502  0.00000000000E+00  0.00000000000E+00  0.42718142066E+03  0.42718142066E+03  0.00000000000E+00 0.  1.
         21   -1    0    0  502  503 -0.00000000000E+00 -0.00000000000E+00 -0.68641688733E+03  0.68641688733E+03  0.00000000000E+00 0. -1.
    9000007    1    1    2  501    0  0.29040236574E+03  0.18449135196E+03 -0.42980293217E+01  0.52762587696E+03  0.40000000000E+03 0. -1.
   -9000007    1    1    2    0  503 -0.29040236574E+03 -0.18449135196E+03 -0.25493743734E+03  0.58597243104E+03  0.40000000000E+03 0.  1.
<mgrwt>
<rscale>  2 0.52760837E+03</rscale>
<asrwt>0</asrwt>
<pdfrwt beam="1">  1       21 0.65720219E-01 0.52760837E+03</pdfrwt>
<pdfrwt beam="2">  1       21 0.10560260E+00 0.52760837E+03</pdfrwt>
<totfact> 0.12736296E+03</totfact>
</mgrwt>
</event>
<event>
 4    1  0.4716816E-002  0.4766685E+03  0.7818608E-02  0.1020055E+00
         21   -1    0    0  503  502  0.00000000000E+00  0.00000000000E+00  0.52447416965E+03  0.52447416965E+03  0.00000000000E+00 0. -1.
         21   -1    0    0  501  503 -0.00000000000E+00 -0.00000000000E+00 -0.47965192594E+03  0.47965192594E+03  0.00000000000E+00 0.  1.
    9000007    1    1    2  501    0 -0.25165418613E+03 -0.62313900343E+02 -0.13379647722E+03  0.49509024318E+03  0.40000000000E+03 0.  1.
   -9000007    1    1    2    0  502  0.25165418613E+03  0.62313900343E+02  0.17861872093E+03  0.50903585241E+03  0.40000000000E+03 0. -1.
<mgrwt>
<rscale>  2 0.47666849E+03</rscale>
<asrwt>0</asrwt>
<pdfrwt beam="1">  1       21 0.80688333E-01 0.47666849E+03</pdfrwt>
<pdfrwt beam="2">  1       21 0.73792604E-01 0.47666849E+03</pdfrwt>
<totfact> 0.18997113E+03</totfact>
</mgrwt>
</event>
<event>
 4    1  0.4716816E-002  0.4493413E+03  0.7818608E-02  0.1027919E+00
         21   -1    0    0  503  502  0.00000000000E+00  0.00000000000E+00  0.44308000399E+03  0.44308000399E+03  0.00000000000E+00 0. -1.
         21   -1    0    0  501  503 -0.00000000000E+00 -0.00000000000E+00 -0.76890417339E+03  0.76890417339E+03  0.00000000000E+00 0.  1.
    9000007    1    1    2  501    0  0.16119400743E+03  0.12619062741E+03 -0.54968035288E+03  0.70996906470E+03  0.40000000000E+03 0.  1.
   -9000007    1    1    2    0  502 -0.16119400743E+03 -0.12619062741E+03  0.22385618348E+03  0.50201511268E+03  0.40000000000E+03 0. -1.
<mgrwt>
<rscale>  2 0.44934128E+03</rscale>
<asrwt>0</asrwt>
<pdfrwt beam="1">  1       21 0.68166156E-01 0.44934128E+03</pdfrwt>
<pdfrwt beam="2">  1       21 0.11829295E+00 0.44934128E+03</pdfrwt>
<totfact> 0.91086857E+02</totfact>
</mgrwt>
</event>
<event>
 4    1  0.4716816E-002  0.4893806E+03  0.7818608E-02  0.1016589E+00
         21   -1    0    0  503  502  0.00000000000E+00  0.00000000000E+00  0.30088554815E+03  0.30088554815E+03  0.00000000000E+00 0. -1.
         21   -1    0    0  501  503 -0.00000000000E+00 -0.00000000000E+00 -0.89672723255E+03  0.89672723255E+03  0.00000000000E+00 0.  1.
    9000007    1    1    2  501    0 -0.27313820119E+03  0.69920338417E+02 -0.49865096397E+03  0.69867454122E+03  0.40000000000E+03 0.  1.
   -9000007    1    1    2    0  502  0.27313820119E+03 -0.69920338417E+02 -0.97190720432E+02  0.49893823948E+03  0.40000000000E+03 0. -1.
<mgrwt>
<rscale>  2 0.48938056E+03</rscale>
<asrwt>0</asrwt>
<pdfrwt beam="1">  1       21 0.46290085E-01 0.48938056E+03</pdfrwt>
<pdfrwt beam="2">  1       21 0.13795803E+00 0.48938056E+03</pdfrwt>
<totfact> 0.13946427E+03</totfact>
</mgrwt>
</event>
<event>
 4    1  0.4716816E-002  0.6257903E+03  0.7818608E-02  0.9853298E-01
         21   -1    0    0  503  502  0.00000000000E+00  0.00000000000E+00  0.41891931547E+03  0.41891931547E+03  0.00000000000E+00 0.  1.
         21   -1    0    0  501  503 -0.00000000000E+00 -0.00000000000E+00 -0.93631088875E+03  0.93631088875E+03  0.00000000000E+00 0. -1.
    9000007    1    1    2  501    0 -0.17562819107E+03 -0.44807168592E+03 -0.28574932369E+03  0.68794343751E+03  0.40000000000E+03 0. -1.
   -9000007    1    1    2    0  502  0.17562819107E+03  0.44807168592E+03 -0.23164224959E+03  0.66728676671E+03  0.40000000000E+03 0. -1.
<mgrwt>
<rscale>  2 0.62579030E+03</rscale>
<asrwt>0</asrwt>
<pdfrwt beam="1">  1       21 0.64449125E-01 0.62579030E+03</pdfrwt>
<pdfrwt beam="2">  1       21 0.14404783E+00 0.62579030E+03</pdfrwt>
<totfact> 0.57834957E+02</totfact>
</mgrwt>
</event>
<event>
 4    1  0.4716816E-002  0.5107391E+03  0.7818608E-02  0.1011013E+00
         21   -1    0    0  503  502  0.00000000000E+00  0.00000000000E+00  0.85025464720E+03  0.85025464720E+03  0.00000000000E+00 0. -1.
         21   -1    0    0  501  503 -0.00000000000E+00 -0.00000000000E+00 -0.31235105393E+03  0.31235105393E+03  0.00000000000E+00 0. -1.
    9000007    1    1    2  501    0 -0.21159223089E+03 -0.23681874788E+03  0.19142703784E+03  0.54543441617E+03  0.40000000000E+03 0. -1.
   -9000007    1    1    2    0  502  0.21159223089E+03  0.23681874788E+03  0.34647655542E+03  0.61717128496E+03  0.40000000000E+03 0. -1.
<mgrwt>
<rscale>  2 0.51073906E+03</rscale>
<asrwt>0</asrwt>
<pdfrwt beam="1">  1       21 0.13080841E+00 0.51073906E+03</pdfrwt>
<pdfrwt beam="2">  1       21 0.48054009E-01 0.51073906E+03</pdfrwt>
<totfact> 0.14706213E+03</totfact>
</mgrwt>
</event>
<event>
 4    1  0.4716816E-002  0.4426257E+03  0.7818608E-02  0.1029944E+00
         21   -1    0    0  503  502  0.00000000000E+00  0.00000000000E+00  0.13125986304E+04  0.13125986304E+04  0.00000000000E+00 0.  1.
         21   -1    0    0  501  503 -0.00000000000E+00 -0.00000000000E+00 -0.14938431152E+03  0.14938431152E+03  0.00000000000E+00 0. -1.
    9000007    1    1    2  501    0 -0.48553511641E+02  0.18319401001E+03  0.60275760177E+03  0.74781964088E+03  0.40000000000E+03 0. -1.
   -9000007    1    1    2    0  502  0.48553511641E+02 -0.18319401001E+03  0.56045671714E+03  0.71416330106E+03  0.40000000000E+03 0.  1.
<mgrwt>
<rscale>  2 0.44262568E+03</rscale>
<asrwt>0</asrwt>
<pdfrwt beam="1">  1       21 0.20193824E+00 0.44262568E+03</pdfrwt>
<pdfrwt beam="2">  1       21 0.22982203E-01 0.44262568E+03</pdfrwt>
<totfact> 0.19654996E+03</totfact>
</mgrwt>
</event>
<event>
 4    1  0.4716816E-002  0.4152623E+03  0.7818608E-02  0.1038619E+00
         21   -1    0    0  503  502  0.00000000000E+00  0.00000000000E+00  0.10064845417E+04  0.10064845417E+04  0.00000000000E+00 0.  1.
         21   -1    0    0  501  503 -0.00000000000E+00 -0.00000000000E+00 -0.18720561521E+03  0.18720561521E+03  0.00000000000E+00 0.  1.
    9000007    1    1    2  501    0  0.11015727472E+03  0.17554346883E+02  0.23584208479E+03  0.47756074925E+03  0.40000000000E+03 0.  1.
   -9000007    1    1    2    0  502 -0.11015727472E+03 -0.17554346883E+02  0.58343684175E+03  0.71612940771E+03  0.40000000000E+03 0.  1.
<mgrwt>
<rscale>  2 0.41526230E+03</rscale>
<asrwt>0</asrwt>
<pdfrwt beam="1">  1       21 0.15484377E+00 0.41526230E+03</pdfrwt>
<pdfrwt beam="2">  1       21 0.28800864E-01 0.41526230E+03</pdfrwt>
<totfact> 0.27655884E+03</totfact>
</mgrwt>
</event>
<event>
 4    1  0.4716816E-002  0.6107757E+03  0.7818608E-02  0.9883299E-01
         21   -1    0    0  503  502  0.00000000000E+00  0.00000000000E+00  0.19158975113E+04  0.19158975113E+04  0.00000000000E+00 0.  1.
         21   -1    0    0  501  503 -0.00000000000E+00 -0.00000000000E+00 -0.24668626271E+03  0.24668626271E+03  0.00000000000E+00 0. -1.
    9000007    1    1    2  501    0  0.20076074568E+03  0.41562247743E+03  0.33827908409E+03  0.69819743589E+03  0.40000000000E+03 0. -1.
   -9000007    1    1    2    0  502 -0.20076074568E+03 -0.41562247743E+03  0.13309321645E+04  0.14643863381E+04  0.40000000000E+03 0.  1.
<mgrwt>
<rscale>  2 0.61077567E+03</rscale>
<asrwt>0</asrwt>
<pdfrwt beam="1">  1       21 0.29475345E+00 0.61077567E+03</pdfrwt>
<pdfrwt beam="2">  1       21 0.37951734E-01 0.61077567E+03</pdfrwt>
<totfact> 0.17684458E+02</totfact>
</mgrwt>
</event>
<event>
 4    1  0.4716816E-002  0.6708103E+03  0.7818608E-02  0.9768495E-01
         21   -1    0    0  503  502  0.00000000000E+00  0.00000000000E+00  0.91799392922E+03  0.91799392922E+03  0.00000000000E+00 0. -1.
         21   -1    0    0  501  503 -0.00000000000E+00 -0.00000000000E+00 -0.54497181566E+03  0.54497181566E+03  0.00000000000E+00 0.  1.
    9000007    1    1    2  501    0 -0.38211445906E+03 -0.37944043019E+03 -0.45418821272E+02  0.67234616769E+03  0.40000000000E+03 0.  1.
   -9000007    1    1    2    0  502  0.38211445906E+03  0.37944043019E+03  0.41844093483E+03  0.79061957719E+03  0.40000000000E+03 0. -1.
<mgrwt>
<rscale>  2 0.67081033E+03</rscale>
<asrwt>0</asrwt>
<pdfrwt beam="1">  1       21 0.14122983E+00 0.67081033E+03</pdfrwt>
<pdfrwt beam="2">  1       21 0.83841818E-01 0.67081033E+03</pdfrwt>
<totfact> 0.32914265E+02</totfact>
</mgrwt>
</event>
<event>
 4    1  0.4716816E-002  0.4165158E+03  0.7818608E-02  0.1038206E+00
         21   -1    0    0  501  502  0.00000000000E+00  0.00000000000E+00  0.29472603986E+03  0.29472603986E+03  0.00000000000E+00 0.  1.
         21   -1    0    0  502  503 -0.00000000000E+00 -0.00000000000E+00 -0.10422958854E+04  0.10422958854E+04  0.00000000000E+00 0.  1.
    9000007    1    1    2  501    0  0.31211357036E+01 -0.11608478954E+03  0.67256858495E+02  0.42191101534E+03  0.40000000000E+03 0.  1.
   -9000007    1    1    2    0  503 -0.31211357036E+01  0.11608478954E+03 -0.81482670399E+03  0.91511090988E+03  0.40000000000E+03 0.  1.
<mgrwt>
<rscale>  2 0.41651581E+03</rscale>
<asrwt>0</asrwt>
<pdfrwt beam="1">  1       21 0.45342467E-01 0.41651581E+03</pdfrwt>
<pdfrwt beam="2">  1       21 0.16035322E+00 0.41651581E+03</pdfrwt>
<totfact> 0.99851066E+02</totfact>
</mgrwt>
</event>
<event>
 4    1  0.4716816E-002  0.4144684E+03  0.7818608E-02  0.1038882E+00
         21   -1    0    0  501  502  0.00000000000E+00  0.00000000000E+00  0.34163566797E+03  0.34163566797E+03  0.00000000000E+00 0.  1.
         21   -1    0    0  502  503 -0.00000000000E+00 -0.00000000000E+00 -0.10133306751E+04  0.10133306751E+04  0.00000000000E+00 0. -1.
    9000007    1    1    2  501    0  0.36664429081E+02  0.10217504308E+03  0.14501606853E+03  0.43910554531E+03  0.40000000000E+03 0.  1.
   -9000007    1    1    2    0  503 -0.36664429081E+02 -0.10217504308E+03 -0.81671107566E+03  0.91586079777E+03  0.40000000000E+03 0. -1.
<mgrwt>
<rscale>  2 0.41446836E+03</rscale>
<asrwt>0</asrwt>
<pdfrwt beam="1">  1       21 0.52559334E-01 0.41446836E+03</pdfrwt>
<pdfrwt beam="2">  1       21 0.15589703E+00 0.41446836E+03</pdfrwt>
<totfact> 0.79050718E+02</totfact>
</mgrwt>
</event>
<event>
 4    1  0.4716816E-002  0.4375466E+03  0.7818608E-02  0.1031502E+00
         21   -1    0    0  501  502  0.00000000000E+00  0.00000000000E+00  0.33288015011E+03  0.33288015011E+03  0.00000000000E+00 0. -1.
         21   -1    0    0  502  503 -0.00000000000E+00 -0.00000000000E+00 -0.75307649101E+03  0.75307649101E+03  0.00000000000E+00 0.  1.
    9000007    1    1    2  501    0 -0.17204146613E+03  0.42996749621E+02 -0.47404494681E+03  0.64510898160E+03  0.40000000000E+03 0. -1.
   -9000007    1    1    2    0  503  0.17204146613E+03 -0.42996749621E+02  0.53848605901E+02  0.44084765952E+03  0.40000000000E+03 0. -1.
<mgrwt>
<rscale>  2 0.43754655E+03</rscale>
<asrwt>0</asrwt>
<pdfrwt beam="1">  1       21 0.51212331E-01 0.43754655E+03</pdfrwt>
<pdfrwt beam="2">  1       21 0.11585792E+00 0.43754655E+03</pdfrwt>
<totfact> 0.18015887E+03</totfact>
</mgrwt>
</event>
<event>
 4    1  0.4716816E-002  0.4107184E+03  0.7818608E-02  0.1040130E+00
         21   -1    0    0  503  502  0.00000000000E+00  0.00000000000E+00  0.96903430806E+03  0.96903430806E+03  0.00000000000E+00 0.  1.
         21   -1    0    0  501  503 -0.00000000000E+00 -0.00000000000E+00 -0.24399571910E+03  0.24399571910E+03  0.00000000000E+00 0.  1.
    9000007    1    1    2  501    0 -0.63303222879E+02  0.68427282217E+02  0.37852741014E+02  0.41245899309E+03  0.40000000000E+03 0.  1.
   -9000007    1    1    2    0  502  0.63303222879E+02 -0.68427282217E+02  0.68718584794E+03  0.80057103407E+03  0.40000000000E+03 0.  1.
<mgrwt>
<rscale>  2 0.41071838E+03</rscale>
<asrwt>0</asrwt>
<pdfrwt beam="1">  1       21 0.14908220E+00 0.41071838E+03</pdfrwt>
<pdfrwt beam="2">  1       21 0.37537803E-01 0.41071838E+03</pdfrwt>
<totfact> 0.18057224E+03</totfact>
</mgrwt>
</event>
<event>
 4    1  0.4716816E-002  0.5067649E+03  0.7818608E-02  0.1012028E+00
         21   -1    0    0  503  502  0.00000000000E+00  0.00000000000E+00  0.20609316038E+03  0.20609316038E+03  0.00000000000E+00 0.  1.
         21   -1    0    0  501  503 -0.00000000000E+00 -0.00000000000E+00 -0.12677625946E+04  0.12677625946E+04  0.00000000000E+00 0.  1.
    9000007    1    1    2  501    0 -0.18598208427E+03  0.24944210098E+03 -0.43448332103E+03  0.66752262408E+03  0.40000000000E+03 0.  1.
   -9000007    1    1    2    0  502  0.18598208427E+03 -0.24944210098E+03 -0.62718611320E+03  0.80633313091E+03  0.40000000000E+03 0.  1.
<mgrwt>
<rscale>  2 0.50676493E+03</rscale>
<asrwt>0</asrwt>
<pdfrwt beam="1">  1       21 0.31706640E-01 0.50676493E+03</pdfrwt>
<pdfrwt beam="2">  1       21 0.19504040E+00 0.50676493E+03</pdfrwt>
<totfact> 0.11310197E+03</totfact>
</mgrwt>
</event>
<event>
 4    1  0.4716816E-002  0.4776712E+03  0.7818608E-02  0.1019777E+00
         21   -1    0    0  503  502  0.00000000000E+00  0.00000000000E+00  0.11156151961E+03  0.11156151961E+03  0.00000000000E+00 0.  1.
         21   -1    0    0  501  503 -0.00000000000E+00 -0.00000000000E+00 -0.20564744395E+04  0.20564744395E+04  0.00000000000E+00 0. -1.
    9000007    1    1    2  501    0 -0.21195904795E+03  0.15245706171E+03 -0.10525874568E+04  0.11559023089E+04  0.40000000000E+03 0. -1.
   -9000007    1    1    2    0  502  0.21195904795E+03 -0.15245706171E+03 -0.89232546318E+03  0.10121336502E+04  0.40000000000E+03 0.  1.
<mgrwt>
<rscale>  2 0.47767122E+03</rscale>
<asrwt>0</asrwt>
<pdfrwt beam="1">  1       21 0.17163312E-01 0.47767122E+03</pdfrwt>
<pdfrwt beam="2">  1       21 0.31638066E+00 0.47767122E+03</pdfrwt>
<totfact> 0.66098870E+02</totfact>
</mgrwt>
</event>
<event>
 4    1  0.4716816E-002  0.4043813E+03  0.7818608E-02  0.1042273E+00
         21   -1    0    0  503  502  0.00000000000E+00  0.00000000000E+00  0.32201814977E+03  0.32201814977E+03  0.00000000000E+00 0. -1.
         21   -1    0    0  501  503 -0.00000000000E+00 -0.00000000000E+00 -0.68964070314E+03  0.68964070314E+03  0.00000000000E+00 0. -1.
    9000007    1    1    2  501    0  0.54882042700E+02  0.22632664789E+02  0.75920668818E+02  0.41144650209E+03  0.40000000000E+03 0. -1.
   -9000007    1    1    2    0  502 -0.54882042700E+02 -0.22632664789E+02 -0.44354322219E+03  0.60021235082E+03  0.40000000000E+03 0. -1.
<mgrwt>
<rscale>  2 0.40438135E+03</rscale>
<asrwt>0</asrwt>
<pdfrwt beam="1">  1       21 0.49541254E-01 0.40438135E+03</pdfrwt>
<pdfrwt beam="2">  1       21 0.10609857E+00 0.40438135E+03</pdfrwt>
<totfact> 0.24373078E+03</totfact>
</mgrwt>
</event>
<event>
 4    1  0.4716816E-002  0.4054284E+03  0.7818608E-02  0.1041916E+00
         21   -1    0    0  501  502  0.00000000000E+00  0.00000000000E+00  0.96587621159E+02  0.96587621159E+02  0.00000000000E+00 0. -1.
         21   -1    0    0  502  503 -0.00000000000E+00 -0.00000000000E+00 -0.19059296392E+04  0.19059296392E+04  0.00000000000E+00 0. -1.
    9000007    1    1    2  501    0 -0.59502314101E+02  0.28838920155E+02 -0.12323529727E+04  0.12973303581E+04  0.40000000000E+03 0.  1.
   -9000007    1    1    2    0  503  0.59502314101E+02 -0.28838920155E+02 -0.57698904538E+03  0.70518690231E+03  0.40000000000E+03 0.  1.
<mgrwt>
<rscale>  2 0.40542843E+03</rscale>
<asrwt>0</asrwt>
<pdfrwt beam="1">  1       21 0.14859636E-01 0.40542843E+03</pdfrwt>
<pdfrwt beam="2">  1       21 0.29321991E+00 0.40542843E+03</pdfrwt>
<totfact> 0.12404634E+03</totfact>
</mgrwt>
</event>
<event>
 4    1  0.4716816E-002  0.4122163E+03  0.7818608E-02  0.1039630E+00
         21   -1    0    0  501  502  0.00000000000E+00  0.00000000000E+00  0.10137985633E+04  0.10137985633E+04  0.00000000000E+00 0. -1.
         21   -1    0    0  502  503 -0.00000000000E+00 -0.00000000000E+00 -0.18871569102E+03  0.18871569102E+03  0.00000000000E+00 0. -1.
    9000007    1    1    2  501    0  0.93360463717E+02 -0.34729259344E+02  0.61361773671E+03  0.73922190474E+03  0.40000000000E+03 0.  1.
   -9000007    1    1    2    0  503 -0.93360463717E+02  0.34729259344E+02  0.21146513560E+03  0.46329234962E+03  0.40000000000E+03 0.  1.
<mgrwt>
<rscale>  2 0.41221632E+03</rscale>
<asrwt>0</asrwt>
<pdfrwt beam="1">  1       21 0.15596901E+00 0.41221632E+03</pdfrwt>
<pdfrwt beam="2">  1       21 0.29033184E-01 0.41221632E+03</pdfrwt>
<totfact> 0.26718115E+03</totfact>
</mgrwt>
</event>
<event>
 4    1  0.4716816E-002  0.4167830E+03  0.7818608E-02  0.1038118E+00
         21   -1    0    0  501  502  0.00000000000E+00  0.00000000000E+00  0.12467918373E+04  0.12467918373E+04  0.00000000000E+00 0. -1.
         21   -1    0    0  502  503 -0.00000000000E+00 -0.00000000000E+00 -0.14191072426E+03  0.14191072426E+03  0.00000000000E+00 0. -1.
    9000007    1    1    2  501    0 -0.56151940710E+02  0.10273772501E+03  0.45869665554E+03  0.61976665157E+03  0.40000000000E+03 0. -1.
   -9000007    1    1    2    0  503  0.56151940710E+02 -0.10273772501E+03  0.64618445751E+03  0.76893591002E+03  0.40000000000E+03 0. -1.
<mgrwt>
<rscale>  2 0.41678301E+03</rscale>
<asrwt>0</asrwt>
<pdfrwt beam="1">  1       21 0.19181412E+00 0.41678301E+03</pdfrwt>
<pdfrwt beam="2">  1       21 0.21832420E-01 0.41678301E+03</pdfrwt>
<totfact> 0.25657071E+03</totfact>
</mgrwt>
</event>
<event>
 4    1  0.4716816E-002  0.4085916E+03  0.7818608E-02  0.1040845E+00
         21   -1    0    0  503  502  0.00000000000E+00  0.00000000000E+00  0.55519295341E+03  0.55519295341E+03  0.00000000000E+00 0. -1.
         21   -1    0    0  501  503 -0.00000000000E+00 -0.00000000000E+00 -0.87106287424E+03  0.87106287424E+03  0.00000000000E+00 0. -1.
    9000007    1    1    2  501    0 -0.31844285273E+02  0.77026006732E+02 -0.73499092759E+03  0.84092730236E+03  0.40000000000E+03 0. -1.
   -9000007    1    1    2    0  502  0.31844285273E+02 -0.77026006732E+02  0.41912100676E+03  0.58532852530E+03  0.40000000000E+03 0. -1.
<mgrwt>
<rscale>  2 0.40859156E+03</rscale>
<asrwt>0</asrwt>
<pdfrwt beam="1">  1       21 0.85414300E-01 0.40859156E+03</pdfrwt>
<pdfrwt beam="2">  1       21 0.13400967E+00 0.40859156E+03</pdfrwt>
<totfact> 0.40209554E+02</totfact>
</mgrwt>
</event>
<event>
 4    1  0.4716816E-002  0.4448957E+03  0.7818608E-02  0.1029255E+00
         21   -1    0    0  501  502  0.00000000000E+00  0.00000000000E+00  0.16501815486E+04  0.16501815486E+04  0.00000000000E+00 0. -1.
         21   -1    0    0  502  503 -0.00000000000E+00 -0.00000000000E+00 -0.33134962755E+03  0.33134962755E+03  0.00000000000E+00 0. -1.
    9000007    1    1    2  501    0  0.16542818809E+03 -0.10278975536E+03  0.14507943244E+04  0.15174769820E+04  0.40000000000E+03 0. -1.
   -9000007    1    1    2    0  503 -0.16542818809E+03  0.10278975536E+03 -0.13196240333E+03  0.46405419415E+03  0.40000000000E+03 0. -1.
<mgrwt>
<rscale>  2 0.44489574E+03</rscale>
<asrwt>0</asrwt>
<pdfrwt beam="1">  1       21 0.25387408E+00 0.44489574E+03</pdfrwt>
<pdfrwt beam="2">  1       21 0.50976867E-01 0.44489574E+03</pdfrwt>
<totfact> 0.18388874E+02</totfact>
</mgrwt>
</event>
<event>
 4    1  0.4716816E-002  0.4113119E+03  0.7818608E-02  0.1039932E+00
         21   -1    0    0  503  502  0.00000000000E+00  0.00000000000E+00  0.12332193611E+04  0.12332193611E+04  0.00000000000E+00 0.  1.
         21   -1    0    0  501  503 -0.00000000000E+00 -0.00000000000E+00 -0.14478849257E+03  0.14478849257E+03  0.00000000000E+00 0.  1.
    9000007    1    1    2  501    0  0.94891287804E+02 -0.13157755696E+02  0.38630859174E+03  0.56427990491E+03  0.40000000000E+03 0.  1.
   -9000007    1    1    2    0  502 -0.94891287804E+02  0.13157755696E+02  0.70212227678E+03  0.81372794876E+03  0.40000000000E+03 0.  1.
<mgrwt>
<rscale>  2 0.41131190E+03</rscale>
<asrwt>0</asrwt>
<pdfrwt beam="1">  1       21 0.18972605E+00 0.41131190E+03</pdfrwt>
<pdfrwt beam="2">  1       21 0.22275153E-01 0.41131190E+03</pdfrwt>
<totfact> 0.25569601E+03</totfact>
</mgrwt>
</event>
<event>
 4    1  0.4716816E-002  0.5323018E+03  0.7818608E-02  0.1005675E+00
         21   -1    0    0  501  502  0.00000000000E+00  0.00000000000E+00  0.19723117046E+03  0.19723117046E+03  0.00000000000E+00 0.  1.
         21   -1    0    0  502  503 -0.00000000000E+00 -0.00000000000E+00 -0.17835350958E+04  0.17835350958E+04  0.00000000000E+00 0. -1.
    9000007    1    1    2  501    0 -0.25456897575E+03  0.24195011095E+03 -0.35635736721E+03  0.64057458018E+03  0.40000000000E+03 0.  1.
   -9000007    1    1    2    0  503  0.25456897575E+03 -0.24195011095E+03 -0.12299465581E+04  0.13401916861E+04  0.40000000000E+03 0. -1.
<mgrwt>
<rscale>  2 0.53230181E+03</rscale>
<asrwt>0</asrwt>
<pdfrwt beam="1">  1       21 0.30343258E-01 0.53230181E+03</pdfrwt>
<pdfrwt beam="2">  1       21 0.27439000E+00 0.53230181E+03</pdfrwt>
<totfact> 0.38361806E+02</totfact>
</mgrwt>
</event>
<event>
 4    1  0.4716816E-002  0.4720806E+03  0.7818608E-02  0.1021335E+00
         21   -1    0    0  501  502  0.00000000000E+00  0.00000000000E+00  0.99890989748E+03  0.99890989748E+03  0.00000000000E+00 0. -1.
         21   -1    0    0  502  503 -0.00000000000E+00 -0.00000000000E+00 -0.22567797121E+03  0.22567797121E+03  0.00000000000E+00 0.  1.
    9000007    1    1    2  501    0 -0.31276678033E+02 -0.24876069753E+03  0.45201547601E+03  0.65358863651E+03  0.40000000000E+03 0. -1.
   -9000007    1    1    2    0  503  0.31276678033E+02  0.24876069753E+03  0.32121645026E+03  0.57099923218E+03  0.40000000000E+03 0.  1.
<mgrwt>
<rscale>  2 0.47208062E+03</rscale>
<asrwt>0</asrwt>
<pdfrwt beam="1">  1       21 0.15367844E+00 0.47208062E+03</pdfrwt>
<pdfrwt beam="2">  1       21 0.34719688E-01 0.47208062E+03</pdfrwt>
<totfact> 0.18998190E+03</totfact>
</mgrwt>
</event>
<event>
 4    1  0.4716816E-002  0.4521387E+03  0.7818608E-02  0.1027086E+00
         21   -1    0    0  503  502  0.00000000000E+00  0.00000000000E+00  0.44085634946E+03  0.44085634946E+03  0.00000000000E+00 0. -1.
         21   -1    0    0  501  503 -0.00000000000E+00 -0.00000000000E+00 -0.50938324357E+03  0.50938324357E+03  0.00000000000E+00 0. -1.
    9000007    1    1    2  501    0 -0.94202836582E+02  0.18856104796E+03 -0.17653311408E+03  0.48537962833E+03  0.40000000000E+03 0. -1.
   -9000007    1    1    2    0  502  0.94202836582E+02 -0.18856104796E+03  0.10800621997E+03  0.46485996470E+03  0.40000000000E+03 0. -1.
<mgrwt>
<rscale>  2 0.45213874E+03</rscale>
<asrwt>0</asrwt>
<pdfrwt beam="1">  1       21 0.67824054E-01 0.45213874E+03</pdfrwt>
<pdfrwt beam="2">  1       21 0.78366652E-01 0.45213874E+03</pdfrwt>
<totfact> 0.24803384E+03</totfact>
</mgrwt>
</event>
<event>
 4    1  0.4716816E-002  0.4938518E+03  0.7818608E-02  0.1015396E+00
         21   -1    0    0  501  502  0.00000000000E+00  0.00000000000E+00  0.16529829154E+04  0.16529829154E+04  0.00000000000E+00 0.  1.
         21   -1    0    0  502  503 -0.00000000000E+00 -0.00000000000E+00 -0.21673099091E+03  0.21673099091E+03  0.00000000000E+00 0.  1.
    9000007    1    1    2  501    0 -0.26927292193E+03 -0.10668486460E+03  0.12463198270E+04  0.13405978808E+04  0.40000000000E+03 0.  1.
   -9000007    1    1    2    0  503  0.26927292193E+03  0.10668486460E+03  0.18993209751E+03  0.52911602554E+03  0.40000000000E+03 0.  1.
<mgrwt>
<rscale>  2 0.49385177E+03</rscale>
<asrwt>0</asrwt>
<pdfrwt beam="1">  1       21 0.25430506E+00 0.49385177E+03</pdfrwt>
<pdfrwt beam="2">  1       21 0.33343230E-01 0.49385177E+03</pdfrwt>
<totfact> 0.42890584E+02</totfact>
</mgrwt>
</event>
<event>
 4    1  0.4716816E-002  0.4514909E+03  0.7818608E-02  0.1027278E+00
         21   -1    0    0  503  502  0.00000000000E+00  0.00000000000E+00  0.51000905146E+03  0.51000905146E+03  0.00000000000E+00 0.  1.
         21   -1    0    0  501  503 -0.00000000000E+00 -0.00000000000E+00 -0.54473499881E+03  0.54473499881E+03  0.00000000000E+00 0.  1.
    9000007    1    1    2  501    0 -0.60223712028E+02  0.20054219014E+03 -0.28949527311E+03  0.53633159395E+03  0.40000000000E+03 0.  1.
   -9000007    1    1    2    0  502  0.60223712028E+02 -0.20054219014E+03  0.25476932577E+03  0.51841245632E+03  0.40000000000E+03 0.  1.
<mgrwt>
<rscale>  2 0.45149094E+03</rscale>
<asrwt>0</asrwt>
<pdfrwt beam="1">  1       21 0.78462931E-01 0.45149094E+03</pdfrwt>
<pdfrwt beam="2">  1       21 0.83805385E-01 0.45149094E+03</pdfrwt>
<totfact> 0.15257273E+03</totfact>
</mgrwt>
</event>
<event>
 4    1  0.4716816E-002  0.4009097E+03  0.7818608E-02  0.1043465E+00
         21   -1    0    0  503  502  0.00000000000E+00  0.00000000000E+00  0.90645117572E+03  0.90645117572E+03  0.00000000000E+00 0. -1.
         21   -1    0    0  501  503 -0.00000000000E+00 -0.00000000000E+00 -0.20722038678E+03  0.20722038678E+03  0.00000000000E+00 0. -1.
    9000007    1    1    2  501    0  0.19640185007E+02  0.18516957275E+02  0.13808352949E+03  0.42402320183E+03  0.40000000000E+03 0. -1.
   -9000007    1    1    2    0  502 -0.19640185007E+02 -0.18516957275E+02  0.56114725946E+03  0.68964836067E+03  0.40000000000E+03 0. -1.
<mgrwt>
<rscale>  2 0.40090973E+03</rscale>
<asrwt>0</asrwt>
<pdfrwt beam="1">  1       21 0.13945402E+00 0.40090973E+03</pdfrwt>
<pdfrwt beam="2">  1       21 0.31880060E-01 0.40090973E+03</pdfrwt>
<totfact> 0.30141268E+03</totfact>
</mgrwt>
</event>
<event>
 4    1  0.4716816E-002  0.4429239E+03  0.7818608E-02  0.1029853E+00
         21   -1    0    0  503  502  0.00000000000E+00  0.00000000000E+00  0.15862869122E+04  0.15862869122E+04  0.00000000000E+00 0. -1.
         21   -1    0    0  501  503 -0.00000000000E+00 -0.00000000000E+00 -0.27411281724E+03  0.27411281724E+03  0.00000000000E+00 0.  1.
    9000007    1    1    2  501    0 -0.13103677992E+03  0.13788016603E+03 -0.33028973799E+02  0.44415367947E+03  0.40000000000E+03 0.  1.
   -9000007    1    1    2    0  502  0.13103677992E+03 -0.13788016603E+03  0.13452030687E+04  0.14162460499E+04  0.40000000000E+03 0. -1.
<mgrwt>
<rscale>  2 0.44292390E+03</rscale>
<asrwt>0</asrwt>
<pdfrwt beam="1">  1       21 0.24404413E+00 0.44292390E+03</pdfrwt>
<pdfrwt beam="2">  1       21 0.42171204E-01 0.44292390E+03</pdfrwt>
<totfact> 0.31527312E+02</totfact>
</mgrwt>
</event>
<event>
 4    1  0.4716816E-002  0.4196317E+03  0.7818608E-02  0.1037186E+00
         21   -1    0    0  503  502  0.00000000000E+00  0.00000000000E+00  0.40303426532E+03  0.40303426532E+03  0.00000000000E+00 0. -1.
         21   -1    0    0  501  503 -0.00000000000E+00 -0.00000000000E+00 -0.12812008578E+04  0.12812008578E+04  0.00000000000E+00 0. -1.
    9000007    1    1    2  501    0  0.72994277350E+02  0.10374291448E+03 -0.11226949904E+04  0.11985552963E+04  0.40000000000E+03 0. -1.
   -9000007    1    1    2    0  502 -0.72994277350E+02 -0.10374291448E+03  0.24452839789E+03  0.48567982684E+03  0.40000000000E+03 0. -1.
<mgrwt>
<rscale>  2 0.41963169E+03</rscale>
<asrwt>0</asrwt>
<pdfrwt beam="1">  1       21 0.62005272E-01 0.41963169E+03</pdfrwt>
<pdfrwt beam="2">  1       21 0.19710782E+00 0.41963169E+03</pdfrwt>
<totfact> 0.28002490E+02</totfact>
</mgrwt>
</event>
<event>
 4    1  0.4716816E-002  0.4678616E+03  0.7818608E-02  0.1022525E+00
         21   -1    0    0  503  502  0.00000000000E+00  0.00000000000E+00  0.41265837561E+03  0.41265837561E+03  0.00000000000E+00 0. -1.
         21   -1    0    0  501  503 -0.00000000000E+00 -0.00000000000E+00 -0.60643948627E+03  0.60643948627E+03  0.00000000000E+00 0. -1.
    9000007    1    1    2  501    0 -0.18594194362E+03 -0.15594896265E+03 -0.27726290056E+03  0.54384667083E+03  0.40000000000E+03 0. -1.
   -9000007    1    1    2    0  502  0.18594194362E+03  0.15594896265E+03  0.83481789900E+02  0.47525119105E+03  0.40000000000E+03 0. -1.
<mgrwt>
<rscale>  2 0.46786161E+03</rscale>
<asrwt>0</asrwt>
<pdfrwt beam="1">  1       21 0.63485905E-01 0.46786161E+03</pdfrwt>
<pdfrwt beam="2">  1       21 0.93298382E-01 0.46786161E+03</pdfrwt>
<totfact> 0.18984164E+03</totfact>
</mgrwt>
</event>
<event>
 4    1  0.4716816E-002  0.6558392E+03  0.7818608E-02  0.9795884E-01
         21   -1    0    0  503  502  0.00000000000E+00  0.00000000000E+00  0.62141759504E+03  0.62141759504E+03  0.00000000000E+00 0.  1.
         21   -1    0    0  501  503 -0.00000000000E+00 -0.00000000000E+00 -0.69606515479E+03  0.69606515479E+03  0.00000000000E+00 0. -1.
    9000007    1    1    2  501    0 -0.17548752160E+03 -0.48921281710E+03 -0.86617637589E+02  0.66153432700E+03  0.40000000000E+03 0.  1.
   -9000007    1    1    2    0  502  0.17548752160E+03  0.48921281710E+03  0.11970077842E+02  0.65594842283E+03  0.40000000000E+03 0.  1.
<mgrwt>
<rscale>  2 0.65583920E+03</rscale>
<asrwt>0</asrwt>
<pdfrwt beam="1">  1       21 0.95602707E-01 0.65583920E+03</pdfrwt>
<pdfrwt beam="2">  1       21 0.10708695E+00 0.65583920E+03</pdfrwt>
<totfact> 0.49442101E+02</totfact>
</mgrwt>
</event>
<event>
 4    1  0.4716816E-002  0.5243082E+03  0.7818608E-02  0.1007622E+00
         21   -1    0    0  503  502  0.00000000000E+00  0.00000000000E+00  0.16996397116E+04  0.16996397116E+04  0.00000000000E+00 0. -1.
         21   -1    0    0  501  503 -0.00000000000E+00 -0.00000000000E+00 -0.19891142272E+03  0.19891142272E+03  0.00000000000E+00 0.  1.
    9000007    1    1    2  501    0 -0.33813536607E+03 -0.23740372992E+02  0.34000030827E+03  0.62489946449E+03  0.40000000000E+03 0.  1.
   -9000007    1    1    2    0  502  0.33813536607E+03  0.23740372992E+02  0.11607279806E+04  0.12736516698E+04  0.40000000000E+03 0. -1.
<mgrwt>
<rscale>  2 0.52430824E+03</rscale>
<asrwt>0</asrwt>
<pdfrwt beam="1">  1       21 0.26148302E+00 0.52430824E+03</pdfrwt>
<pdfrwt beam="2">  1       21 0.30601758E-01 0.52430824E+03</pdfrwt>
<totfact> 0.45388145E+02</totfact>
</mgrwt>
</event>
<event>
 4    1  0.4716816E-002  0.4764406E+03  0.7818608E-02  0.1020118E+00
         21   -1    0    0  503  502  0.00000000000E+00  0.00000000000E+00  0.76678193486E+03  0.76678193486E+03  0.00000000000E+00 0.  1.
         21   -1    0    0  501  503 -0.00000000000E+00 -0.00000000000E+00 -0.62284899064E+03  0.62284899064E+03  0.00000000000E+00 0.  1.
    9000007    1    1    2  501    0 -0.16433966483E+02 -0.25831293551E+03  0.57526682606E+03  0.74694549270E+03  0.40000000000E+03 0.  1.
   -9000007    1    1    2    0  502  0.16433966483E+02  0.25831293551E+03 -0.43133388184E+03  0.64268543280E+03  0.40000000000E+03 0.  1.
<mgrwt>
<rscale>  2 0.47644060E+03</rscale>
<asrwt>0</asrwt>
<pdfrwt beam="1">  1       21 0.11796645E+00 0.47644060E+03</pdfrwt>
<pdfrwt beam="2">  1       21 0.95822922E-01 0.47644060E+03</pdfrwt>
<totfact> 0.41155318E+02</totfact>
</mgrwt>
</event>
<event>
 4    1  0.4716816E-002  0.4869888E+03  0.7818608E-02  0.1017232E+00
         21   -1    0    0  503  502  0.00000000000E+00  0.00000000000E+00  0.76817024821E+03  0.76817024821E+03  0.00000000000E+00 0.  1.
         21   -1    0    0  501  503 -0.00000000000E+00 -0.00000000000E+00 -0.56108268864E+03  0.56108268864E+03  0.00000000000E+00 0.  1.
    9000007    1    1    2  501    0 -0.27704242375E+03 -0.20139125099E+02 -0.34218140256E+03  0.59518585431E+03  0.40000000000E+03 0.  1.
   -9000007    1    1    2    0  502  0.27704242375E+03  0.20139125099E+02  0.54926896213E+03  0.73406708254E+03  0.40000000000E+03 0.  1.
<mgrwt>
<rscale>  2 0.48698880E+03</rscale>
<asrwt>0</asrwt>
<pdfrwt beam="1">  1       21 0.11818004E+00 0.48698880E+03</pdfrwt>
<pdfrwt beam="2">  1       21 0.86320413E-01 0.48698880E+03</pdfrwt>
<totfact> 0.52280925E+02</totfact>
</mgrwt>
</event>
<event>
 4    1  0.4716816E-002  0.4286999E+03  0.7818608E-02  0.1034271E+00
         21   -1    0    0  503  502  0.00000000000E+00  0.00000000000E+00  0.99028714769E+02  0.99028714769E+02  0.00000000000E+00 0. -1.
         21   -1    0    0  501  503 -0.00000000000E+00 -0.00000000000E+00 -0.23614308013E+04  0.23614308013E+04  0.00000000000E+00 0.  1.
    9000007    1    1    2  501    0 -0.71729060729E+02  0.13652291579E+03 -0.17004326762E+04  0.17536404566E+04  0.40000000000E+03 0.  1.
   -9000007    1    1    2    0  502  0.71729060729E+02 -0.13652291579E+03 -0.56196941029E+03  0.70681905944E+03  0.40000000000E+03 0. -1.
<mgrwt>
<rscale>  2 0.42869985E+03</rscale>
<asrwt>0</asrwt>
<pdfrwt beam="1">  1       21 0.15235189E-01 0.42869985E+03</pdfrwt>
<pdfrwt beam="2">  1       21 0.36329699E+00 0.42869985E+03</pdfrwt>
<totfact> 0.43960450E+02</totfact>
</mgrwt>
</event>
<event>
 4    1  0.4716816E-002  0.4641117E+03  0.7818608E-02  0.1023595E+00
         21   -1    0    0  501  502  0.00000000000E+00  0.00000000000E+00  0.99343031637E+03  0.99343031637E+03  0.00000000000E+00 0.  1.
         21   -1    0    0  502  503 -0.00000000000E+00 -0.00000000000E+00 -0.22040110337E+03  0.22040110337E+03  0.00000000000E+00 0.  1.
    9000007    1    1    2  501    0 -0.18842707978E+03  0.14104934778E+03  0.46383217704E+03  0.65615544756E+03  0.40000000000E+03 0.  1.
   -9000007    1    1    2    0  503  0.18842707978E+03 -0.14104934778E+03  0.30919703596E+03  0.55767597218E+03  0.40000000000E+03 0.  1.
<mgrwt>
<rscale>  2 0.46411171E+03</rscale>
<asrwt>0</asrwt>
<pdfrwt beam="1">  1       21 0.15283543E+00 0.46411171E+03</pdfrwt>
<pdfrwt beam="2">  1       21 0.33907863E-01 0.46411171E+03</pdfrwt>
<totfact> 0.20292864E+03</totfact>
</mgrwt>
</event>
<event>
 4    1  0.4716816E-002  0.4162826E+03  0.7818608E-02  0.1038283E+00
         21   -1    0    0  503  502  0.00000000000E+00  0.00000000000E+00  0.28827145350E+04  0.28827145350E+04  0.00000000000E+00 0.  1.
         21   -1    0    0  501  503 -0.00000000000E+00 -0.00000000000E+00 -0.93004035641E+02  0.93004035641E+02  0.00000000000E+00 0. -1.
    9000007    1    1    2  501    0 -0.78711987320E+02  0.84235633430E+02  0.51005796307E+03  0.65836945902E+03  0.40000000000E+03 0. -1.
   -9000007    1    1    2    0  502  0.78711987320E+02 -0.84235633430E+02  0.22796525362E+04  0.23173491116E+04  0.40000000000E+03 0.  1.
<mgrwt>
<rscale>  2 0.41628262E+03</rscale>
<asrwt>0</asrwt>
<pdfrwt beam="1">  1       21 0.44349448E+00 0.41628262E+03</pdfrwt>
<pdfrwt beam="2">  1       21 0.14308315E-01 0.41628262E+03</pdfrwt>
<totfact> 0.15181515E+02</totfact>
</mgrwt>
</event>
<event>
 4    1  0.4716816E-002  0.4149243E+03  0.7818608E-02  0.1038731E+00
         21   -1    0    0  501  502  0.00000000000E+00  0.00000000000E+00  0.72121660548E+03  0.72121660548E+03  0.00000000000E+00 0. -1.
         21   -1    0    0  502  503 -0.00000000000E+00 -0.00000000000E+00 -0.25458217596E+03  0.25458217596E+03  0.00000000000E+00 0. -1.
    9000007    1    1    2  501    0 -0.41322613229E+01  0.11020468368E+03  0.11149558043E+03  0.42964335482E+03  0.40000000000E+03 0. -1.
   -9000007    1    1    2    0  503  0.41322613229E+01 -0.11020468368E+03  0.35513884909E+03  0.54615542662E+03  0.40000000000E+03 0. -1.
<mgrwt>
<rscale>  2 0.41492427E+03</rscale>
<asrwt>0</asrwt>
<pdfrwt beam="1">  1       21 0.11095640E+00 0.41492427E+03</pdfrwt>
<pdfrwt beam="2">  1       21 0.39166489E-01 0.41492427E+03</pdfrwt>
<totfact> 0.35465344E+03</totfact>
</mgrwt>
</event>
<event>
 4    1  0.4716816E-002  0.4635008E+03  0.7818608E-02  0.1023771E+00
         21   -1    0    0  503  502  0.00000000000E+00  0.00000000000E+00  0.12868169704E+03  0.12868169704E+03  0.00000000000E+00 0. -1.
         21   -1    0    0  501  503 -0.00000000000E+00 -0.00000000000E+00 -0.21643556539E+04  0.21643556539E+04  0.00000000000E+00 0. -1.
    9000007    1    1    2  501    0 -0.21218980513E+03 -0.99037966124E+02 -0.15660630768E+04  0.16332135784E+04  0.40000000000E+03 0. -1.
   -9000007    1    1    2    0  502  0.21218980513E+03  0.99037966124E+02 -0.46961088007E+03  0.65982377254E+03  0.40000000000E+03 0. -1.
<mgrwt>
<rscale>  2 0.46350084E+03</rscale>
<asrwt>0</asrwt>
<pdfrwt beam="1">  1       21 0.19797186E-01 0.46350084E+03</pdfrwt>
<pdfrwt beam="2">  1       21 0.33297776E+00 0.46350084E+03</pdfrwt>
<totfact> 0.40354946E+02</totfact>
</mgrwt>
</event>
<event>
 4    1  0.4716816E-002  0.4824528E+03  0.7818608E-02  0.1018463E+00
         21   -1    0    0  501  502  0.00000000000E+00  0.00000000000E+00  0.50125704962E+03  0.50125704962E+03  0.00000000000E+00 0. -1.
         21   -1    0    0  502  503 -0.00000000000E+00 -0.00000000000E+00 -0.51747244078E+03  0.51747244078E+03  0.00000000000E+00 0. -1.
    9000007    1    1    2  501    0 -0.17271043781E+03 -0.20719992697E+03  0.15508774406E+03  0.50676711951E+03  0.40000000000E+03 0. -1.
   -9000007    1    1    2    0  503  0.17271043781E+03  0.20719992697E+03 -0.17130313522E+03  0.51196237089E+03  0.40000000000E+03 0. -1.
<mgrwt>
<rscale>  2 0.48245280E+03</rscale>
<asrwt>0</asrwt>
<pdfrwt beam="1">  1       21 0.77116470E-01 0.48245280E+03</pdfrwt>
<pdfrwt beam="2">  1       21 0.79611144E-01 0.48245280E+03</pdfrwt>
<totfact> 0.17682170E+03</totfact>
</mgrwt>
</event>
<event>
 4    1  0.4716816E-002  0.4025799E+03  0.7818608E-02  0.1042890E+00
         21   -1    0    0  503  502  0.00000000000E+00  0.00000000000E+00  0.98026258086E+03  0.98026258086E+03  0.00000000000E+00 0.  1.
         21   -1    0    0  501  503 -0.00000000000E+00 -0.00000000000E+00 -0.52731877546E+03  0.52731877546E+03  0.00000000000E+00 0.  1.
    9000007    1    1    2  501    0 -0.26624219794E+02 -0.36901462679E+02 -0.39806686129E+03  0.56615174034E+03  0.40000000000E+03 0.  1.
   -9000007    1    1    2    0  502  0.26624219794E+02  0.36901462679E+02  0.85101066669E+03  0.94142961599E+03  0.40000000000E+03 0.  1.
<mgrwt>
<rscale>  2 0.40257989E+03</rscale>
<asrwt>0</asrwt>
<pdfrwt beam="1">  1       21 0.15080963E+00 0.40257989E+03</pdfrwt>
<pdfrwt beam="2">  1       21 0.81125965E-01 0.40257989E+03</pdfrwt>
<totfact> 0.33204284E+02</totfact>
</mgrwt>
</event>
<event>
 4    1  0.4716816E-002  0.4128081E+03  0.7818608E-02  0.1039433E+00
         21   -1    0    0  501  502  0.00000000000E+00  0.00000000000E+00  0.19989256966E+04  0.19989256966E+04  0.00000000000E+00 0. -1.
         21   -1    0    0  502  503 -0.00000000000E+00 -0.00000000000E+00 -0.86741550718E+02  0.86741550718E+02  0.00000000000E+00 0.  1.
    9000007    1    1    2  501    0 -0.81855358822E+01 -0.10170302160E+03  0.10927919212E+04  0.11681629555E+04  0.40000000000E+03 0. -1.
   -9000007    1    1    2    0  503  0.81855358822E+01  0.10170302160E+03  0.81939222467E+03  0.91750429179E+03  0.40000000000E+03 0.  1.
<mgrwt>
<rscale>  2 0.41280808E+03</rscale>
<asrwt>0</asrwt>
<pdfrwt beam="1">  1       21 0.30752700E+00 0.41280808E+03</pdfrwt>
<pdfrwt beam="2">  1       21 0.13344855E-01 0.41280808E+03</pdfrwt>
<totfact> 0.12361000E+03</totfact>
</mgrwt>
</event>
<event>
 4    1  0.4716816E-002  0.4863297E+03  0.7818608E-02  0.1017410E+00
         21   -1    0    0  503  502  0.00000000000E+00  0.00000000000E+00  0.37021402011E+03  0.37021402011E+03  0.00000000000E+00 0.  1.
         21   -1    0    0  501  503 -0.00000000000E+00 -0.00000000000E+00 -0.18481751895E+04  0.18481751895E+04  0.00000000000E+00 0.  1.
    9000007    1    1    2  501    0  0.22287266417E+03  0.16384247350E+03 -0.16362133676E+04  0.17069595089E+04  0.40000000000E+03 0.  1.
   -9000007    1    1    2    0  502 -0.22287266417E+03 -0.16384247350E+03  0.15825219823E+03  0.51142970074E+03  0.40000000000E+03 0.  1.
<mgrwt>
<rscale>  2 0.48632970E+03</rscale>
<asrwt>0</asrwt>
<pdfrwt beam="1">  1       21 0.56956002E-01 0.48632970E+03</pdfrwt>
<pdfrwt beam="2">  1       21 0.28433465E+00 0.48632970E+03</pdfrwt>
<totfact> 0.92317060E+01</totfact>
</mgrwt>
</event>
<event>
 4    1  0.4716816E-002  0.4155812E+03  0.7818608E-02  0.1038514E+00
         21   -1    0    0  503  502  0.00000000000E+00  0.00000000000E+00  0.20493228638E+03  0.20493228638E+03  0.00000000000E+00 0. -1.
         21   -1    0    0  501  503 -0.00000000000E+00 -0.00000000000E+00 -0.10357125639E+04  0.10357125639E+04  0.00000000000E+00 0.  1.
    9000007    1    1    2  501    0 -0.11265022762E+03 -0.42023011284E+01 -0.68313961543E+03  0.79961707541E+03  0.40000000000E+03 0.  1.
   -9000007    1    1    2    0  502  0.11265022762E+03  0.42023011284E+01 -0.14764066212E+03  0.44102777490E+03  0.40000000000E+03 0. -1.
<mgrwt>
<rscale>  2 0.41558120E+03</rscale>
<asrwt>0</asrwt>
<pdfrwt beam="1">  1       21 0.31528044E-01 0.41558120E+03</pdfrwt>
<pdfrwt beam="2">  1       21 0.15934039E+00 0.41558120E+03</pdfrwt>
<totfact> 0.21351531E+03</totfact>
</mgrwt>
</event>
<event>
 4    1  0.4716816E-002  0.4494631E+03  0.7818608E-02  0.1027882E+00
         21   -1    0    0  501  502  0.00000000000E+00  0.00000000000E+00  0.14482682351E+03  0.14482682351E+03  0.00000000000E+00 0.  1.
         21   -1    0    0  502  503 -0.00000000000E+00 -0.00000000000E+00 -0.14096623878E+04  0.14096623878E+04  0.00000000000E+00 0. -1.
    9000007    1    1    2  501    0  0.20215540206E+03 -0.33915998225E+02 -0.55284496792E+03  0.71249888426E+03  0.40000000000E+03 0. -1.
   -9000007    1    1    2    0  503 -0.20215540206E+03  0.33915998225E+02 -0.71199059637E+03  0.84199032705E+03  0.40000000000E+03 0.  1.
<mgrwt>
<rscale>  2 0.44946313E+03</rscale>
<asrwt>0</asrwt>
<pdfrwt beam="1">  1       21 0.22281049E-01 0.44946313E+03</pdfrwt>
<pdfrwt beam="2">  1       21 0.21687114E+00 0.44946313E+03</pdfrwt>
<totfact> 0.16618623E+03</totfact>
</mgrwt>
</event>
<event>
 4    1  0.4716816E-002  0.5327349E+03  0.7818608E-02  0.1005571E+00
         21   -1    0    0  501  502  0.00000000000E+00  0.00000000000E+00  0.66899845071E+03  0.66899845071E+03  0.00000000000E+00 0. -1.
         21   -1    0    0  502  503 -0.00000000000E+00 -0.00000000000E+00 -0.43061925117E+03  0.43061925117E+03  0.00000000000E+00 0. -1.
    9000007    1    1    2  501    0 -0.32855333777E+03 -0.12593322230E+03  0.18618255940E+03  0.56433183294E+03  0.40000000000E+03 0. -1.
   -9000007    1    1    2    0  503  0.32855333777E+03  0.12593322230E+03  0.52196640135E+02  0.53528586894E+03  0.40000000000E+03 0. -1.
<mgrwt>
<rscale>  2 0.53273490E+03</rscale>
<asrwt>0</asrwt>
<pdfrwt beam="1">  1       21 0.10292284E+00 0.53273490E+03</pdfrwt>
<pdfrwt beam="2">  1       21 0.66249115E-01 0.53273490E+03</pdfrwt>
<totfact> 0.13306733E+03</totfact>
</mgrwt>
</event>
<event>
 4    1  0.4716816E-002  0.4733241E+03  0.7818608E-02  0.1020986E+00
         21   -1    0    0  503  502  0.00000000000E+00  0.00000000000E+00  0.43147630947E+03  0.43147630947E+03  0.00000000000E+00 0.  1.
         21   -1    0    0  501  503 -0.00000000000E+00 -0.00000000000E+00 -0.62625675412E+03  0.62625675412E+03  0.00000000000E+00 0.  1.
    9000007    1    1    2  501    0  0.25247010720E+03  0.17161195115E+02 -0.31602287679E+03  0.56912750795E+03  0.40000000000E+03 0.  1.
   -9000007    1    1    2    0  502 -0.25247010720E+03 -0.17161195115E+02  0.12124243215E+03  0.48860555564E+03  0.40000000000E+03 0.  1.
<mgrwt>
<rscale>  2 0.47332406E+03</rscale>
<asrwt>0</asrwt>
<pdfrwt beam="1">  1       21 0.66380971E-01 0.47332406E+03</pdfrwt>
<pdfrwt beam="2">  1       21 0.96347193E-01 0.47332406E+03</pdfrwt>
<totfact> 0.15883645E+03</totfact>
</mgrwt>
</event>
<event>
 4    1  0.4716816E-002  0.5005298E+03  0.7818608E-02  0.1013641E+00
         21   -1    0    0  503  502  0.00000000000E+00  0.00000000000E+00  0.68908818522E+03  0.68908818522E+03  0.00000000000E+00 0. -1.
         21   -1    0    0  501  503 -0.00000000000E+00 -0.00000000000E+00 -0.37100400979E+03  0.37100400979E+03  0.00000000000E+00 0. -1.
    9000007    1    1    2  501    0 -0.11297094801E+03 -0.27886850637E+03  0.23408479374E+03  0.55256291008E+03  0.40000000000E+03 0. -1.
   -9000007    1    1    2    0  502  0.11297094801E+03  0.27886850637E+03  0.83999381686E+02  0.50752928493E+03  0.40000000000E+03 0. -1.
<mgrwt>
<rscale>  2 0.50052980E+03</rscale>
<asrwt>0</asrwt>
<pdfrwt beam="1">  1       21 0.10601357E+00 0.50052980E+03</pdfrwt>
<pdfrwt beam="2">  1       21 0.57077540E-01 0.50052980E+03</pdfrwt>
<totfact> 0.17375720E+03</totfact>
</mgrwt>
</event>
<event>
 4    1  0.4716816E-002  0.4140170E+03  0.7818608E-02  0.1039031E+00
         21   -1    0    0  501  502  0.00000000000E+00  0.00000000000E+00  0.15513284093E+04  0.15513284093E+04  0.00000000000E+00 0.  1.
         21   -1    0    0  502  503 -0.00000000000E+00 -0.00000000000E+00 -0.14304707848E+03  0.14304707848E+03  0.00000000000E+00 0.  1.
    9000007    1    1    2  501    0  0.32527804237E+02 -0.10174483715E+03  0.11082943745E+04  0.11831003721E+04  0.40000000000E+03 0.  1.
   -9000007    1    1    2    0  503 -0.32527804237E+02  0.10174483715E+03  0.29998695633E+03  0.51127511567E+03  0.40000000000E+03 0.  1.
<mgrwt>
<rscale>  2 0.41401699E+03</rscale>
<asrwt>0</asrwt>
<pdfrwt beam="1">  1       21 0.23866590E+00 0.41401699E+03</pdfrwt>
<pdfrwt beam="2">  1       21 0.22007244E-01 0.41401699E+03</pdfrwt>
<totfact> 0.12614768E+03</totfact>
</mgrwt>
</event>
<event>
 4    1  0.4716816E-002  0.6492573E+03  0.7818608E-02  0.9808174E-01
         21   -1    0    0  503  502  0.00000000000E+00  0.00000000000E+00  0.51437374151E+03  0.51437374151E+03  0.00000000000E+00 0.  1.
         21   -1    0    0  501  503 -0.00000000000E+00 -0.00000000000E+00 -0.97972874065E+03  0.97972874065E+03  0.00000000000E+00 0.  1.
    9000007    1    1    2  501    0  0.80276571763E+02 -0.50506502599E+03 -0.53477879440E+03  0.84114408242E+03  0.40000000000E+03 0.  1.
   -9000007    1    1    2    0  502 -0.80276571763E+02  0.50506502599E+03  0.69423795265E+02  0.65295839974E+03  0.40000000000E+03 0.  1.
<mgrwt>
<rscale>  2 0.64925727E+03</rscale>
<asrwt>0</asrwt>
<pdfrwt beam="1">  1       21 0.79134422E-01 0.64925727E+03</pdfrwt>
<pdfrwt beam="2">  1       21 0.15072750E+00 0.64925727E+03</pdfrwt>
<totfact> 0.31768792E+02</totfact>
</mgrwt>
</event>
<event>
 4    1  0.4716816E-002  0.6258033E+03  0.7818608E-02  0.9853273E-01
         21   -1    0    0  503  502  0.00000000000E+00  0.00000000000E+00  0.25127636218E+03  0.25127636218E+03  0.00000000000E+00 0.  1.
         21   -1    0    0  501  503 -0.00000000000E+00 -0.00000000000E+00 -0.19172850394E+04  0.19172850394E+04  0.00000000000E+00 0. -1.
    9000007    1    1    2  501    0 -0.28590517864E+03 -0.38715371732E+03 -0.13020099769E+04  0.14445967438E+04  0.40000000000E+03 0. -1.
   -9000007    1    1    2    0  502  0.28590517864E+03  0.38715371732E+03 -0.36399870033E+03  0.72396465787E+03  0.40000000000E+03 0.  1.
<mgrwt>
<rscale>  2 0.62580330E+03</rscale>
<asrwt>0</asrwt>
<pdfrwt beam="1">  1       21 0.38657903E-01 0.62580330E+03</pdfrwt>
<pdfrwt beam="2">  1       21 0.29496692E+00 0.62580330E+03</pdfrwt>
<totfact> 0.16866473E+02</totfact>
</mgrwt>
</event>
<event>
 4    1  0.4716816E-002  0.4516757E+03  0.7818608E-02  0.1027224E+00
         21   -1    0    0  503  502  0.00000000000E+00  0.00000000000E+00  0.10803573163E+03  0.10803573163E+03  0.00000000000E+00 0.  1.
         21   -1    0    0  501  503 -0.00000000000E+00 -0.00000000000E+00 -0.18918678612E+04  0.18918678612E+04  0.00000000000E+00 0.  1.
    9000007    1    1    2  501    0  0.11654941769E+03 -0.17443386952E+03 -0.84889134771E+03  0.96157551020E+03  0.40000000000E+03 0.  1.
   -9000007    1    1    2    0  502 -0.11654941769E+03  0.17443386952E+03 -0.93494078190E+03  0.10383280827E+04  0.40000000000E+03 0.  1.
<mgrwt>
<rscale>  2 0.45167570E+03</rscale>
<asrwt>0</asrwt>
<pdfrwt beam="1">  1       21 0.16620882E-01 0.45167570E+03</pdfrwt>
<pdfrwt beam="2">  1       21 0.29105659E+00 0.45167570E+03</pdfrwt>
<totfact> 0.10115383E+03</totfact>
</mgrwt>
</event>
<event>
 4    1  0.4716816E-002  0.4095592E+03  0.7818608E-02  0.1040519E+00
         21   -1    0    0  501  502  0.00000000000E+00  0.00000000000E+00  0.58132005281E+03  0.58132005281E+03  0.00000000000E+00 0.  1.
         21   -1    0    0  502  503 -0.00000000000E+00 -0.00000000000E+00 -0.29283447980E+03  0.29283447980E+03  0.00000000000E+00 0.  1.
    9000007    1    1    2  501    0  0.86801602625E+02  0.14290262804E+02  0.91361956025E+02  0.41962571041E+03  0.40000000000E+03 0.  1.
   -9000007    1    1    2    0  503 -0.86801602625E+02 -0.14290262804E+02  0.19712361698E+03  0.45452882219E+03  0.40000000000E+03 0.  1.
<mgrwt>
<rscale>  2 0.40955919E+03</rscale>
<asrwt>0</asrwt>
<pdfrwt beam="1">  1       21 0.89433855E-01 0.40955919E+03</pdfrwt>
<pdfrwt beam="2">  1       21 0.45051458E-01 0.40955919E+03</pdfrwt>
<totfact> 0.44829325E+03</totfact>
</mgrwt>
</event>
<event>
 4    1  0.4716816E-002  0.7274360E+03  0.7818608E-02  0.9671430E-01
         21   -1    0    0  503  502  0.00000000000E+00  0.00000000000E+00  0.30883264244E+03  0.30883264244E+03  0.00000000000E+00 0.  1.
         21   -1    0    0  501  503 -0.00000000000E+00 -0.00000000000E+00 -0.23004380644E+04  0.23004380644E+04  0.00000000000E+00 0. -1.
    9000007    1    1    2  501    0 -0.37260243269E+02 -0.60644445466E+03 -0.33677177867E+03  0.80160990090E+03  0.40000000000E+03 0.  1.
   -9000007    1    1    2    0  502  0.37260243269E+02  0.60644445466E+03 -0.16548336433E+04  0.18076608059E+04  0.40000000000E+03 0. -1.
<mgrwt>
<rscale>  2 0.72743605E+03</rscale>
<asrwt>0</asrwt>
<pdfrwt beam="1">  1       21 0.47512715E-01 0.72743605E+03</pdfrwt>
<pdfrwt beam="2">  1       21 0.35391354E+00 0.72743605E+03</pdfrwt>
<totfact> 0.45409129E+01</totfact>
</mgrwt>
</event>
<event>
 4    1  0.4716816E-002  0.5216264E+03  0.7818608E-02  0.1008283E+00
         21   -1    0    0  503  502  0.00000000000E+00  0.00000000000E+00  0.70584867999E+03  0.70584867999E+03  0.00000000000E+00 0. -1.
         21   -1    0    0  501  503 -0.00000000000E+00 -0.00000000000E+00 -0.41595888103E+03  0.41595888103E+03  0.00000000000E+00 0.  1.
    9000007    1    1    2  501    0 -0.15305670813E+02  0.33445448257E+03  0.29676427164E+03  0.60013589911E+03  0.40000000000E+03 0. -1.
   -9000007    1    1    2    0  502  0.15305670813E+02 -0.33445448257E+03 -0.68744726817E+01  0.52167166192E+03  0.40000000000E+03 0.  1.
<mgrwt>
<rscale>  2 0.52162636E+03</rscale>
<asrwt>0</asrwt>
<pdfrwt beam="1">  1       21 0.10859210E+00 0.52162636E+03</pdfrwt>
<pdfrwt beam="2">  1       21 0.63993674E-01 0.52162636E+03</pdfrwt>
<totfact> 0.12636474E+03</totfact>
</mgrwt>
</event>
<event>
 4    1  0.4716816E-002  0.4780473E+03  0.7818608E-02  0.1019673E+00
         21   -1    0    0  503  502  0.00000000000E+00  0.00000000000E+00  0.41768393943E+03  0.41768393943E+03  0.00000000000E+00 0. -1.
         21   -1    0    0  501  503 -0.00000000000E+00 -0.00000000000E+00 -0.10626530996E+04  0.10626530996E+04  0.00000000000E+00 0. -1.
    9000007    1    1    2  501    0  0.67624088322E+02  0.25289554727E+03 -0.83801837738E+03  0.96478182818E+03  0.40000000000E+03 0. -1.
   -9000007    1    1    2    0  502 -0.67624088322E+02 -0.25289554727E+03  0.19304921722E+03  0.51555521084E+03  0.40000000000E+03 0. -1.
<mgrwt>
<rscale>  2 0.47804725E+03</rscale>
<asrwt>0</asrwt>
<pdfrwt beam="1">  1       21 0.64259068E-01 0.47804725E+03</pdfrwt>
<pdfrwt beam="2">  1       21 0.16348509E+00 0.47804725E+03</pdfrwt>
<totfact> 0.43390161E+02</totfact>
</mgrwt>
</event>
<event>
 4    1  0.4716816E-002  0.5779199E+03  0.7818608E-02  0.9952305E-01
         21   -1    0    0  501  502  0.00000000000E+00  0.00000000000E+00  0.11460867372E+04  0.11460867372E+04  0.00000000000E+00 0. -1.
         21   -1    0    0  502  503 -0.00000000000E+00 -0.00000000000E+00 -0.30108124336E+03  0.30108124336E+03  0.00000000000E+00 0. -1.
    9000007    1    1    2  501    0 -0.81059676718E+02 -0.40917083232E+03  0.29287849164E+03  0.64789601949E+03  0.40000000000E+03 0. -1.
   -9000007    1    1    2    0  503  0.81059676718E+02  0.40917083232E+03  0.55212700225E+03  0.79927196111E+03  0.40000000000E+03 0. -1.
<mgrwt>
<rscale>  2 0.57791993E+03</rscale>
<asrwt>0</asrwt>
<pdfrwt beam="1">  1       21 0.17632103E+00 0.57791993E+03</pdfrwt>
<pdfrwt beam="2">  1       21 0.46320192E-01 0.57791993E+03</pdfrwt>
<totfact> 0.68235814E+02</totfact>
</mgrwt>
</event>
<event>
 4    1  0.4716816E-002  0.5974706E+03  0.7818608E-02  0.9910668E-01
         21   -1    0    0  503  502  0.00000000000E+00  0.00000000000E+00  0.22163809738E+03  0.22163809738E+03  0.00000000000E+00 0. -1.
         21   -1    0    0  501  503 -0.00000000000E+00 -0.00000000000E+00 -0.16792912134E+04  0.16792912134E+04  0.00000000000E+00 0.  1.
    9000007    1    1    2  501    0  0.15994629277E+03  0.41399066509E+03 -0.53660034604E+03  0.80306352097E+03  0.40000000000E+03 0.  1.
   -9000007    1    1    2    0  502 -0.15994629277E+03 -0.41399066509E+03 -0.92105276999E+03  0.10978657898E+04  0.40000000000E+03 0.  1.
<mgrwt>
<rscale>  2 0.59747057E+03</rscale>
<asrwt>0</asrwt>
<pdfrwt beam="1">  1       21 0.34098169E-01 0.59747057E+03</pdfrwt>
<pdfrwt beam="2">  1       21 0.25835250E+00 0.59747057E+03</pdfrwt>
<totfact> 0.36970622E+02</totfact>
</mgrwt>
</event>
<event>
 4    1  0.4716816E-002  0.4514795E+03  0.7818608E-02  0.1027282E+00
         21   -1    0    0  501  502  0.00000000000E+00  0.00000000000E+00  0.25512377081E+03  0.25512377081E+03  0.00000000000E+00 0. -1.
         21   -1    0    0  502  503 -0.00000000000E+00 -0.00000000000E+00 -0.96365020868E+03  0.96365020868E+03  0.00000000000E+00 0.  1.
    9000007    1    1    2  501    0  0.72595503343E+02 -0.19637625757E+03 -0.10234064767E+03  0.46293341833E+03  0.40000000000E+03 0. -1.
   -9000007    1    1    2    0  503 -0.72595503343E+02  0.19637625757E+03 -0.60618579020E+03  0.75584056115E+03  0.40000000000E+03 0.  1.
<mgrwt>
<rscale>  2 0.45147950E+03</rscale>
<asrwt>0</asrwt>
<pdfrwt beam="1">  1       21 0.39249811E-01 0.45147950E+03</pdfrwt>
<pdfrwt beam="2">  1       21 0.14825388E+00 0.45147950E+03</pdfrwt>
<totfact> 0.16449340E+03</totfact>
</mgrwt>
</event>
<event>
 4    1  0.4716816E-002  0.4562971E+03  0.7818608E-02  0.1025861E+00
         21   -1    0    0  501  502  0.00000000000E+00  0.00000000000E+00  0.37313228266E+03  0.37313228266E+03  0.00000000000E+00 0.  1.
         21   -1    0    0  502  503 -0.00000000000E+00 -0.00000000000E+00 -0.59833794736E+03  0.59833794736E+03  0.00000000000E+00 0.  1.
    9000007    1    1    2  501    0  0.19079299595E+03 -0.10865099130E+03  0.13520311786E+02  0.45649732096E+03  0.40000000000E+03 0.  1.
   -9000007    1    1    2    0  503 -0.19079299595E+03  0.10865099130E+03 -0.23872597648E+03  0.51497290906E+03  0.40000000000E+03 0.  1.
<mgrwt>
<rscale>  2 0.45629706E+03</rscale>
<asrwt>0</asrwt>
<pdfrwt beam="1">  1       21 0.57404966E-01 0.45629706E+03</pdfrwt>
<pdfrwt beam="2">  1       21 0.92051992E-01 0.45629706E+03</pdfrwt>
<totfact> 0.24555871E+03</totfact>
</mgrwt>
</event>
<event>
 4    1  0.4716816E-002  0.4020685E+03  0.7818608E-02  0.1043066E+00
         21   -1    0    0  503  502  0.00000000000E+00  0.00000000000E+00  0.28569257750E+03  0.28569257750E+03  0.00000000000E+00 0.  1.
         21   -1    0    0  501  503 -0.00000000000E+00 -0.00000000000E+00 -0.13386275669E+04  0.13386275669E+04  0.00000000000E+00 0.  1.
    9000007    1    1    2  501    0 -0.37903118621E+01 -0.40555451004E+02 -0.11435440394E+04  0.12121683386E+04  0.40000000000E+03 0.  1.
   -9000007    1    1    2    0  502  0.37903118621E+01  0.40555451004E+02  0.90609050013E+02  0.41215180579E+03  0.40000000000E+03 0.  1.
<mgrwt>
<rscale>  2 0.40206854E+03</rscale>
<asrwt>0</asrwt>
<pdfrwt beam="1">  1       21 0.43952703E-01 0.40206854E+03</pdfrwt>
<pdfrwt beam="2">  1       21 0.20594271E+00 0.40206854E+03</pdfrwt>
<totfact> 0.51591511E+02</totfact>
</mgrwt>
</event>
<event>
 4    1  0.4716816E-002  0.5583533E+03  0.7818608E-02  0.9995788E-01
         21   -1    0    0  503  502  0.00000000000E+00  0.00000000000E+00  0.94575530415E+03  0.94575530415E+03  0.00000000000E+00 0. -1.
         21   -1    0    0  501  503 -0.00000000000E+00 -0.00000000000E+00 -0.35678378972E+03  0.35678378972E+03  0.00000000000E+00 0.  1.
    9000007    1    1    2  501    0 -0.38483410128E+03 -0.60506965555E+02  0.11484832468E+03  0.57004255637E+03  0.40000000000E+03 0.  1.
   -9000007    1    1    2    0  502  0.38483410128E+03  0.60506965555E+02  0.47412318975E+03  0.73249653750E+03  0.40000000000E+03 0. -1.
<mgrwt>
<rscale>  2 0.55835327E+03</rscale>
<asrwt>0</asrwt>
<pdfrwt beam="1">  1       21 0.14550081E+00 0.55835327E+03</pdfrwt>
<pdfrwt beam="2">  1       21 0.54889814E-01 0.55835327E+03</pdfrwt>
<totfact> 0.81952409E+02</totfact>
</mgrwt>
</event>
<event>
 4    1  0.4716816E-002  0.5935105E+03  0.7818608E-02  0.9918962E-01
         21   -1    0    0  501  502  0.00000000000E+00  0.00000000000E+00  0.33208850368E+04  0.33208850368E+04  0.00000000000E+00 0. -1.
         21   -1    0    0  502  503 -0.00000000000E+00 -0.00000000000E+00 -0.12853291200E+03  0.12853291200E+03  0.00000000000E+00 0.  1.
    9000007    1    1    2  501    0 -0.37901016557E+03 -0.22046781890E+03  0.23171456831E+04  0.23919487623E+04  0.40000000000E+03 0. -1.
   -9000007    1    1    2    0  503  0.37901016557E+03  0.22046781890E+03  0.87520644165E+03  0.10574691864E+04  0.40000000000E+03 0.  1.
<mgrwt>
<rscale>  2 0.59351054E+03</rscale>
<asrwt>0</asrwt>
<pdfrwt beam="1">  1       21 0.51090532E+00 0.59351054E+03</pdfrwt>
<pdfrwt beam="2">  1       21 0.19774297E-01 0.59351054E+03</pdfrwt>
<totfact> 0.24954579E+01</totfact>
</mgrwt>
</event>
<event>
 4    1  0.4716816E-002  0.8234864E+03  0.7818608E-02  0.9526630E-01
         21   -1    0    0  503  502  0.00000000000E+00  0.00000000000E+00  0.17669362773E+04  0.17669362773E+04  0.00000000000E+00 0. -1.
         21   -1    0    0  501  503 -0.00000000000E+00 -0.00000000000E+00 -0.39927830316E+03  0.39927830316E+03  0.00000000000E+00 0. -1.
    9000007    1    1    2  501    0  0.53756826193E+03  0.47869630361E+03  0.89716140684E+03  0.12177965254E+04  0.40000000000E+03 0. -1.
   -9000007    1    1    2    0  502 -0.53756826193E+03 -0.47869630361E+03  0.47049656728E+03  0.94841805505E+03  0.40000000000E+03 0. -1.
<mgrwt>
<rscale>  2 0.82348636E+03</rscale>
<asrwt>0</asrwt>
<pdfrwt beam="1">  1       21 0.27183634E+00 0.82348636E+03</pdfrwt>
<pdfrwt beam="2">  1       21 0.61427433E-01 0.82348636E+03</pdfrwt>
<totfact> 0.80663905E+01</totfact>
</mgrwt>
</event>
<event>
 4    1  0.4716816E-002  0.5617368E+03  0.7818608E-02  0.9988132E-01
         21   -1    0    0  501  502  0.00000000000E+00  0.00000000000E+00  0.10954385459E+04  0.10954385459E+04  0.00000000000E+00 0. -1.
         21   -1    0    0  502  503 -0.00000000000E+00 -0.00000000000E+00 -0.32293952291E+03  0.32293952291E+03  0.00000000000E+00 0. -1.
    9000007    1    1    2  501    0 -0.36404841145E+03 -0.15171344623E+03  0.61933130049E+03  0.83613364686E+03  0.40000000000E+03 0. -1.
   -9000007    1    1    2    0  503  0.36404841145E+03  0.15171344623E+03  0.15316772248E+03  0.58224442192E+03  0.40000000000E+03 0. -1.
<mgrwt>
<rscale>  2 0.56173679E+03</rscale>
<asrwt>0</asrwt>
<pdfrwt beam="1">  1       21 0.16852901E+00 0.56173679E+03</pdfrwt>
<pdfrwt beam="2">  1       21 0.49683004E-01 0.56173679E+03</pdfrwt>
<totfact> 0.67390334E+02</totfact>
</mgrwt>
</event>
<event>
 4    1  0.4716816E-002  0.7405490E+03  0.7818608E-02  0.9650295E-01
         21   -1    0    0  501  502  0.00000000000E+00  0.00000000000E+00  0.63151383610E+03  0.63151383610E+03  0.00000000000E+00 0.  1.
         21   -1    0    0  502  503 -0.00000000000E+00 -0.00000000000E+00 -0.16863433064E+04  0.16863433064E+04  0.00000000000E+00 0.  1.
    9000007    1    1    2  501    0  0.54450820973E+03 -0.30318920155E+03  0.27971368535E+03  0.79161393884E+03  0.40000000000E+03 0.  1.
   -9000007    1    1    2    0  503 -0.54450820973E+03  0.30318920155E+03 -0.13345431557E+04  0.15262432037E+04  0.40000000000E+03 0.  1.
<mgrwt>
<rscale>  2 0.74054904E+03</rscale>
<asrwt>0</asrwt>
<pdfrwt beam="1">  1       21 0.97155977E-01 0.74054904E+03</pdfrwt>
<pdfrwt beam="2">  1       21 0.25943743E+00 0.74054904E+03</pdfrwt>
<totfact> 0.34120219E+01</totfact>
</mgrwt>
</event>
<event>
 4    1  0.4716816E-002  0.4981641E+03  0.7818608E-02  0.1014259E+00
         21   -1    0    0  503  502  0.00000000000E+00  0.00000000000E+00  0.10412020622E+04  0.10412020622E+04  0.00000000000E+00 0. -1.
         21   -1    0    0  501  503 -0.00000000000E+00 -0.00000000000E+00 -0.24148058237E+03  0.24148058237E+03  0.00000000000E+00 0.  1.
    9000007    1    1    2  501    0 -0.53510171891E+02  0.29206867488E+03  0.32680327723E+03  0.59579176845E+03  0.40000000000E+03 0.  1.
   -9000007    1    1    2    0  502  0.53510171891E+02 -0.29206867488E+03  0.47291820256E+03  0.68689087609E+03  0.40000000000E+03 0.  1.
<mgrwt>
<rscale>  2 0.49816408E+03</rscale>
<asrwt>0</asrwt>
<pdfrwt beam="1">  1       21 0.16018493E+00 0.49816408E+03</pdfrwt>
<pdfrwt beam="2">  1       21 0.37150859E-01 0.49816408E+03</pdfrwt>
<totfact> 0.14612030E+03</totfact>
</mgrwt>
</event>
<event>
 4    1  0.4716816E-002  0.4179943E+03  0.7818608E-02  0.1037721E+00
         21   -1    0    0  501  502  0.00000000000E+00  0.00000000000E+00  0.10738565746E+04  0.10738565746E+04  0.00000000000E+00 0.  1.
         21   -1    0    0  502  503 -0.00000000000E+00 -0.00000000000E+00 -0.18728129990E+03  0.18728129990E+03  0.00000000000E+00 0.  1.
    9000007    1    1    2  501    0 -0.64889945230E+02 -0.10251102377E+03  0.67172396103E+03  0.79115883033E+03  0.40000000000E+03 0. -1.
   -9000007    1    1    2    0  503  0.64889945230E+02  0.10251102377E+03  0.21485131371E+03  0.46997904420E+03  0.40000000000E+03 0. -1.
<mgrwt>
<rscale>  2 0.41799428E+03</rscale>
<asrwt>0</asrwt>
<pdfrwt beam="1">  1       21 0.16520870E+00 0.41799428E+03</pdfrwt>
<pdfrwt beam="2">  1       21 0.28812508E-01 0.41799428E+03</pdfrwt>
<totfact> 0.23054672E+03</totfact>
</mgrwt>
</event>
<event>
 4    1  0.4716816E-002  0.4532468E+03  0.7818608E-02  0.1026758E+00
         21   -1    0    0  503  502  0.00000000000E+00  0.00000000000E+00  0.36997213701E+03  0.36997213701E+03  0.00000000000E+00 0.  1.
         21   -1    0    0  501  503 -0.00000000000E+00 -0.00000000000E+00 -0.56431482030E+03  0.56431482030E+03  0.00000000000E+00 0.  1.
    9000007    1    1    2  501    0  0.19192096524E+03  0.92730829052E+02 -0.15632805451E+03  0.47944877118E+03  0.40000000000E+03 0.  1.
   -9000007    1    1    2    0  502 -0.19192096524E+03 -0.92730829052E+02 -0.38014628776E+02  0.45483818612E+03  0.40000000000E+03 0.  1.
<mgrwt>
<rscale>  2 0.45324680E+03</rscale>
<asrwt>0</asrwt>
<pdfrwt beam="1">  1       21 0.56918790E-01 0.45324680E+03</pdfrwt>
<pdfrwt beam="2">  1       21 0.86817665E-01 0.45324680E+03</pdfrwt>
<totfact> 0.28761222E+03</totfact>
</mgrwt>
</event>
<event>
 4    1  0.4716816E-002  0.4798726E+03  0.7818608E-02  0.1019170E+00
         21   -1    0    0  501  502  0.00000000000E+00  0.00000000000E+00  0.21596235917E+03  0.21596235917E+03  0.00000000000E+00 0. -1.
         21   -1    0    0  502  503 -0.00000000000E+00 -0.00000000000E+00 -0.10689047274E+04  0.10689047274E+04  0.00000000000E+00 0.  1.
    9000007    1    1    2  501    0 -0.15361256460E+03 -0.21605753754E+03 -0.39467399579E+03  0.62132539179E+03  0.40000000000E+03 0.  1.
   -9000007    1    1    2    0  503  0.15361256460E+03  0.21605753754E+03 -0.45826837244E+03  0.66354169478E+03  0.40000000000E+03 0.  1.
<mgrwt>
<rscale>  2 0.47987257E+03</rscale>
<asrwt>0</asrwt>
<pdfrwt beam="1">  1       21 0.33224979E-01 0.47987257E+03</pdfrwt>
<pdfrwt beam="2">  1       21 0.16444688E+00 0.47987257E+03</pdfrwt>
<totfact> 0.17143171E+03</totfact>
</mgrwt>
</event>
<event>
 4    1  0.4716816E-002  0.4337105E+03  0.7818608E-02  0.1032694E+00
         21   -1    0    0  503  502  0.00000000000E+00  0.00000000000E+00  0.86535645110E+02  0.86535645110E+02  0.00000000000E+00 0.  1.
         21   -1    0    0  501  503 -0.00000000000E+00 -0.00000000000E+00 -0.22042791407E+04  0.22042791407E+04  0.00000000000E+00 0.  1.
    9000007    1    1    2  501    0  0.43656586619E+02  0.16186071867E+03 -0.11937226794E+04  0.12700703229E+04  0.40000000000E+03 0.  1.
   -9000007    1    1    2    0  502 -0.43656586619E+02 -0.16186071867E+03 -0.92402081619E+03  0.10207444629E+04  0.40000000000E+03 0.  1.
<mgrwt>
<rscale>  2 0.43371049E+03</rscale>
<asrwt>0</asrwt>
<pdfrwt beam="1">  1       21 0.13313176E-01 0.43371049E+03</pdfrwt>
<pdfrwt beam="2">  1       21 0.33911986E+00 0.43371049E+03</pdfrwt>
<totfact> 0.79086468E+02</totfact>
</mgrwt>
</event>
<event>
 4    1  0.4716816E-002  0.6067741E+03  0.7818608E-02  0.9891451E-01
         21   -1    0    0  501  502  0.00000000000E+00  0.00000000000E+00  0.83199732639E+03  0.83199732639E+03  0.00000000000E+00 0.  1.
         21   -1    0    0  502  503 -0.00000000000E+00 -0.00000000000E+00 -0.95323546861E+03  0.95323546861E+03  0.00000000000E+00 0.  1.
    9000007    1    1    2  501    0  0.44384321355E+03  0.10572604348E+03  0.59274403675E+03  0.84824541708E+03  0.40000000000E+03 0.  1.
   -9000007    1    1    2    0  503 -0.44384321355E+03 -0.10572604348E+03 -0.71398217897E+03  0.93698737792E+03  0.40000000000E+03 0.  1.
<mgrwt>
<rscale>  2 0.60677409E+03</rscale>
<asrwt>0</asrwt>
<pdfrwt beam="1">  1       21 0.12799959E+00 0.60677409E+03</pdfrwt>
<pdfrwt beam="2">  1       21 0.14665161E+00 0.60677409E+03</pdfrwt>
<totfact> 0.10668533E+02</totfact>
</mgrwt>
</event>
<event>
 4    1  0.4716816E-002  0.4162681E+03  0.7818608E-02  0.1038288E+00
         21   -1    0    0  503  502  0.00000000000E+00  0.00000000000E+00  0.10206372444E+03  0.10206372444E+03  0.00000000000E+00 0.  1.
         21   -1    0    0  501  503 -0.00000000000E+00 -0.00000000000E+00 -0.18514468168E+04  0.18514468168E+04  0.00000000000E+00 0. -1.
    9000007    1    1    2  501    0  0.20861554540E+02 -0.11333109661E+03 -0.11561124141E+04  0.12287697327E+04  0.40000000000E+03 0. -1.
   -9000007    1    1    2    0  502 -0.20861554540E+02  0.11333109661E+03 -0.59327067822E+03  0.72474080853E+03  0.40000000000E+03 0.  1.
<mgrwt>
<rscale>  2 0.41626811E+03</rscale>
<asrwt>0</asrwt>
<pdfrwt beam="1">  1       21 0.15702113E-01 0.41626811E+03</pdfrwt>
<pdfrwt beam="2">  1       21 0.28483795E+00 0.41626811E+03</pdfrwt>
<totfact> 0.12494113E+03</totfact>
</mgrwt>
</event>
<event>
 4    1  0.4716816E-002  0.4237172E+03  0.7818608E-02  0.1035863E+00
         21   -1    0    0  503  502  0.00000000000E+00  0.00000000000E+00  0.96349179058E+03  0.96349179058E+03  0.00000000000E+00 0.  1.
         21   -1    0    0  501  503 -0.00000000000E+00 -0.00000000000E+00 -0.54944149429E+03  0.54944149429E+03  0.00000000000E+00 0.  1.
    9000007    1    1    2  501    0 -0.11579117906E+03  0.78286008683E+02 -0.40793014907E+03  0.58816945077E+03  0.40000000000E+03 0.  1.
   -9000007    1    1    2    0  502  0.11579117906E+03 -0.78286008683E+02  0.82198044536E+03  0.92476383410E+03  0.40000000000E+03 0.  1.
<mgrwt>
<rscale>  2 0.42371724E+03</rscale>
<asrwt>0</asrwt>
<pdfrwt beam="1">  1       21 0.14822951E+00 0.42371724E+03</pdfrwt>
<pdfrwt beam="2">  1       21 0.84529461E-01 0.42371724E+03</pdfrwt>
<totfact> 0.31269869E+02</totfact>
</mgrwt>
</event>
<event>
 4    1  0.4716816E-002  0.4437210E+03  0.7818608E-02  0.1029611E+00
         21   -1    0    0  503  502  0.00000000000E+00  0.00000000000E+00  0.22861758768E+03  0.22861758768E+03  0.00000000000E+00 0. -1.
         21   -1    0    0  501  503 -0.00000000000E+00 -0.00000000000E+00 -0.89772859831E+03  0.89772859831E+03  0.00000000000E+00 0. -1.
    9000007    1    1    2  501    0  0.18222500821E+03  0.60682514063E+02 -0.44813805970E+03  0.63064731957E+03  0.40000000000E+03 0. -1.
   -9000007    1    1    2    0  502 -0.18222500821E+03 -0.60682514063E+02 -0.22097295093E+03  0.49569886642E+03  0.40000000000E+03 0. -1.
<mgrwt>
<rscale>  2 0.44372099E+03</rscale>
<asrwt>0</asrwt>
<pdfrwt beam="1">  1       21 0.35171937E-01 0.44372099E+03</pdfrwt>
<pdfrwt beam="2">  1       21 0.13811209E+00 0.44372099E+03</pdfrwt>
<totfact> 0.24947893E+03</totfact>
</mgrwt>
</event>
<event>
 4    1  0.4716816E-002  0.4858426E+03  0.7818608E-02  0.1017542E+00
         21   -1    0    0  503  502  0.00000000000E+00  0.00000000000E+00  0.32237648020E+03  0.32237648020E+03  0.00000000000E+00 0. -1.
         21   -1    0    0  501  503 -0.00000000000E+00 -0.00000000000E+00 -0.88354680323E+03  0.88354680323E+03  0.00000000000E+00 0.  1.
    9000007    1    1    2  501    0  0.79708031271E+02 -0.26398806677E+03 -0.53013996469E+03  0.71909071181E+03  0.40000000000E+03 0.  1.
   -9000007    1    1    2    0  502 -0.79708031271E+02  0.26398806677E+03 -0.31030358336E+02  0.48683257161E+03  0.40000000000E+03 0. -1.
<mgrwt>
<rscale>  2 0.48584264E+03</rscale>
<asrwt>0</asrwt>
<pdfrwt beam="1">  1       21 0.49596382E-01 0.48584264E+03</pdfrwt>
<pdfrwt beam="2">  1       21 0.13593028E+00 0.48584264E+03</pdfrwt>
<totfact> 0.12549040E+03</totfact>
</mgrwt>
</event>
<event>
 4    1  0.4716816E-002  0.1113237E+04  0.7818608E-02  0.9192386E-01
         21   -1    0    0  501  502  0.00000000000E+00  0.00000000000E+00  0.12130816117E+04  0.12130816117E+04  0.00000000000E+00 0. -1.
         21   -1    0    0  502  503 -0.00000000000E+00 -0.00000000000E+00 -0.11059661615E+04  0.11059661615E+04  0.00000000000E+00 0. -1.
    9000007    1    1    2  501    0 -0.47527799983E+01  0.10388809092E+04 -0.26667635731E+03  0.11447324630E+04  0.40000000000E+03 0. -1.
   -9000007    1    1    2    0  503  0.47527799983E+01 -0.10388809092E+04  0.37379180754E+03  0.11743153102E+04  0.40000000000E+03 0. -1.
<mgrwt>
<rscale>  2 0.11132368E+04</rscale>
<asrwt>0</asrwt>
<pdfrwt beam="1">  1       21 0.18662794E+00 0.11132368E+04</pdfrwt>
<pdfrwt beam="2">  1       21 0.17014864E+00 0.11132368E+04</pdfrwt>
<totfact> 0.20756996E+01</totfact>
</mgrwt>
</event>
<event>
 4    1  0.4716816E-002  0.4098664E+03  0.7818608E-02  0.1040416E+00
         21   -1    0    0  501  502  0.00000000000E+00  0.00000000000E+00  0.15625440314E+04  0.15625440314E+04  0.00000000000E+00 0.  1.
         21   -1    0    0  502  503 -0.00000000000E+00 -0.00000000000E+00 -0.19247571836E+03  0.19247571836E+03  0.00000000000E+00 0.  1.
    9000007    1    1    2  501    0 -0.76243807986E+01  0.89063809759E+02  0.12680544074E+04  0.13326486684E+04  0.40000000000E+03 0.  1.
   -9000007    1    1    2    0  503  0.76243807986E+01 -0.89063809759E+02  0.10201390565E+03  0.42237108132E+03  0.40000000000E+03 0.  1.
<mgrwt>
<rscale>  2 0.40986643E+03</rscale>
<asrwt>0</asrwt>
<pdfrwt beam="1">  1       21 0.24039138E+00 0.40986643E+03</pdfrwt>
<pdfrwt beam="2">  1       21 0.29611650E-01 0.40986643E+03</pdfrwt>
<totfact> 0.69204391E+02</totfact>
</mgrwt>
</event>
<event>
 4    1  0.4716816E-002  0.4150601E+03  0.7818608E-02  0.1038686E+00
         21   -1    0    0  503  502  0.00000000000E+00  0.00000000000E+00  0.20445585894E+03  0.20445585894E+03  0.00000000000E+00 0. -1.
         21   -1    0    0  501  503 -0.00000000000E+00 -0.00000000000E+00 -0.19252814597E+04  0.19252814597E+04  0.00000000000E+00 0. -1.
    9000007    1    1    2  501    0  0.71899149481E+02 -0.84293684247E+02 -0.16589568584E+04  0.17100914511E+04  0.40000000000E+03 0. -1.
   -9000007    1    1    2    0  502 -0.71899149481E+02  0.84293684247E+02 -0.61868742338E+02  0.41964586758E+03  0.40000000000E+03 0. -1.
<mgrwt>
<rscale>  2 0.41506013E+03</rscale>
<asrwt>0</asrwt>
<pdfrwt beam="1">  1       21 0.31454747E-01 0.41506013E+03</pdfrwt>
<pdfrwt beam="2">  1       21 0.29619716E+00 0.41506013E+03</pdfrwt>
<totfact> 0.28119738E+02</totfact>
</mgrwt>
</event>
<event>
 4    1  0.4716816E-002  0.5638554E+03  0.7818608E-02  0.9983369E-01
         21   -1    0    0  501  502  0.00000000000E+00  0.00000000000E+00  0.18269747136E+03  0.18269747136E+03  0.00000000000E+00 0.  1.
         21   -1    0    0  502  503 -0.00000000000E+00 -0.00000000000E+00 -0.19504785651E+04  0.19504785651E+04  0.00000000000E+00 0.  1.
    9000007    1    1    2  501    0 -0.19320995287E+03  0.34727917207E+03 -0.53369714671E+03  0.77637977411E+03  0.40000000000E+03 0.  1.
   -9000007    1    1    2    0  503  0.19320995287E+03 -0.34727917207E+03 -0.12340839470E+04  0.13567962624E+04  0.40000000000E+03 0.  1.
<mgrwt>
<rscale>  2 0.56385540E+03</rscale>
<asrwt>0</asrwt>
<pdfrwt beam="1">  1       21 0.28107301E-01 0.56385540E+03</pdfrwt>
<pdfrwt beam="2">  1       21 0.30007364E+00 0.56385540E+03</pdfrwt>
<totfact> 0.30736030E+02</totfact>
</mgrwt>
</event>
<event>
 4    1  0.4716816E-002  0.5291489E+03  0.7818608E-02  0.1006439E+00
         21   -1    0    0  503  502  0.00000000000E+00  0.00000000000E+00  0.15835709793E+04  0.15835709793E+04  0.00000000000E+00 0. -1.
         21   -1    0    0  501  503 -0.00000000000E+00 -0.00000000000E+00 -0.24578662451E+03  0.24578662451E+03  0.00000000000E+00 0.  1.
    9000007    1    1    2  501    0  0.16598366844E+03 -0.30405261235E+03  0.18435647865E+03  0.56034443023E+03  0.40000000000E+03 0. -1.
   -9000007    1    1    2    0  502 -0.16598366844E+03  0.30405261235E+03  0.11534278761E+04  0.12690131735E+04  0.40000000000E+03 0.  1.
<mgrwt>
<rscale>  2 0.52914891E+03</rscale>
<asrwt>0</asrwt>
<pdfrwt beam="1">  1       21 0.24362630E+00 0.52914891E+03</pdfrwt>
<pdfrwt beam="2">  1       21 0.37813328E-01 0.52914891E+03</pdfrwt>
<totfact> 0.38042676E+02</totfact>
</mgrwt>
</event>
<event>
 4    1  0.4716816E-002  0.4193707E+03  0.7818608E-02  0.1037271E+00
         21   -1    0    0  501  502  0.00000000000E+00  0.00000000000E+00  0.13828016353E+04  0.13828016353E+04  0.00000000000E+00 0. -1.
         21   -1    0    0  502  503 -0.00000000000E+00 -0.00000000000E+00 -0.13033593311E+03  0.13033593311E+03  0.00000000000E+00 0. -1.
    9000007    1    1    2  501    0  0.91238333934E+02 -0.86875328824E+02  0.50859978116E+03  0.65920064755E+03  0.40000000000E+03 0. -1.
   -9000007    1    1    2    0  503 -0.91238333934E+02  0.86875328824E+02  0.74386592108E+03  0.85393692090E+03  0.40000000000E+03 0. -1.
<mgrwt>
<rscale>  2 0.41937067E+03</rscale>
<asrwt>0</asrwt>
<pdfrwt beam="1">  1       21 0.21273870E+00 0.41937067E+03</pdfrwt>
<pdfrwt beam="2">  1       21 0.20051683E-01 0.41937067E+03</pdfrwt>
<totfact> 0.21915250E+03</totfact>
</mgrwt>
</event>
<event>
 4    1  0.4716816E-002  0.4349835E+03  0.7818608E-02  0.1032297E+00
         21   -1    0    0  503  502  0.00000000000E+00  0.00000000000E+00  0.46212816561E+03  0.46212816561E+03  0.00000000000E+00 0. -1.
         21   -1    0    0  501  503 -0.00000000000E+00 -0.00000000000E+00 -0.46101054089E+03  0.46101054089E+03  0.00000000000E+00 0. -1.
    9000007    1    1    2  501    0  0.17079884179E+03 -0.61985860719E+01 -0.15382811615E+03  0.46138244022E+03  0.40000000000E+03 0. -1.
   -9000007    1    1    2    0  502 -0.17079884179E+03  0.61985860719E+01  0.15494574088E+03  0.46175626627E+03  0.40000000000E+03 0. -1.
<mgrwt>
<rscale>  2 0.43498352E+03</rscale>
<asrwt>0</asrwt>
<pdfrwt beam="1">  1       21 0.71096642E-01 0.43498352E+03</pdfrwt>
<pdfrwt beam="2">  1       21 0.70924698E-01 0.43498352E+03</pdfrwt>
<totfact> 0.28179963E+03</totfact>
</mgrwt>
</event>
<event>
 4    1  0.4716816E-002  0.4369483E+03  0.7818608E-02  0.1031687E+00
         21   -1    0    0  503  502  0.00000000000E+00  0.00000000000E+00  0.15518621480E+03  0.15518621480E+03  0.00000000000E+00 0.  1.
         21   -1    0    0  501  503 -0.00000000000E+00 -0.00000000000E+00 -0.14879294262E+04  0.14879294262E+04  0.00000000000E+00 0. -1.
    9000007    1    1    2  501    0  0.80851527630E+02 -0.15616284713E+03 -0.10082364590E+04  0.10988469236E+04  0.40000000000E+03 0. -1.
   -9000007    1    1    2    0  502 -0.80851527630E+02  0.15616284713E+03 -0.32450675240E+03  0.54426871736E+03  0.40000000000E+03 0.  1.
<mgrwt>
<rscale>  2 0.43694829E+03</rscale>
<asrwt>0</asrwt>
<pdfrwt beam="1">  1       21 0.23874802E-01 0.43694829E+03</pdfrwt>
<pdfrwt beam="2">  1       21 0.22891222E+00 0.43694829E+03</pdfrwt>
<totfact> 0.12265479E+03</totfact>
</mgrwt>
</event>
<event>
 4    1  0.4716816E-002  0.4380976E+03  0.7818608E-02  0.1031332E+00
         21   -1    0    0  501  502  0.00000000000E+00  0.00000000000E+00  0.84949068880E+03  0.84949068880E+03  0.00000000000E+00 0. -1.
         21   -1    0    0  502  503 -0.00000000000E+00 -0.00000000000E+00 -0.42216432062E+03  0.42216432062E+03  0.00000000000E+00 0. -1.
    9000007    1    1    2  501    0  0.13692193275E+03  0.11481257846E+03  0.64715477145E+03  0.78149781961E+03  0.40000000000E+03 0. -1.
   -9000007    1    1    2    0  503 -0.13692193275E+03 -0.11481257846E+03 -0.21982840327E+03  0.49015718981E+03  0.40000000000E+03 0. -1.
<mgrwt>
<rscale>  2 0.43809764E+03</rscale>
<asrwt>0</asrwt>
<pdfrwt beam="1">  1       21 0.13069087E+00 0.43809764E+03</pdfrwt>
<pdfrwt beam="2">  1       21 0.64948357E-01 0.43809764E+03</pdfrwt>
<totfact> 0.78938997E+02</totfact>
</mgrwt>
</event>
<event>
 4    1  0.4716816E-002  0.4722476E+03  0.7818608E-02  0.1021288E+00
         21   -1    0    0  503  502  0.00000000000E+00  0.00000000000E+00  0.10084354898E+04  0.10084354898E+04  0.00000000000E+00 0. -1.
         21   -1    0    0  501  503 -0.00000000000E+00 -0.00000000000E+00 -0.23106989655E+03  0.23106989655E+03  0.00000000000E+00 0. -1.
    9000007    1    1    2  501    0 -0.48768448643E+02  0.24625081731E+03  0.26028724251E+03  0.53922840728E+03  0.40000000000E+03 0. -1.
   -9000007    1    1    2    0  502  0.48768448643E+02 -0.24625081731E+03  0.51707835069E+03  0.70027697903E+03  0.40000000000E+03 0. -1.
<mgrwt>
<rscale>  2 0.47224763E+03</rscale>
<asrwt>0</asrwt>
<pdfrwt beam="1">  1       21 0.15514392E+00 0.47224763E+03</pdfrwt>
<pdfrwt beam="2">  1       21 0.35549215E-01 0.47224763E+03</pdfrwt>
<totfact> 0.17643739E+03</totfact>
</mgrwt>
</event>
<event>
 4    1  0.4716816E-002  0.4033401E+03  0.7818608E-02  0.1042629E+00
         21   -1    0    0  503  502  0.00000000000E+00  0.00000000000E+00  0.13096772391E+04  0.13096772391E+04  0.00000000000E+00 0.  1.
         21   -1    0    0  501  503 -0.00000000000E+00 -0.00000000000E+00 -0.34499251971E+03  0.34499251971E+03  0.00000000000E+00 0.  1.
    9000007    1    1    2  501    0  0.17956231842E+02 -0.48588065013E+02 -0.17949711563E+03  0.44147756550E+03  0.40000000000E+03 0.  1.
   -9000007    1    1    2    0  502 -0.17956231842E+02  0.48588065013E+02  0.11441818350E+04  0.12131921933E+04  0.40000000000E+03 0.  1.
<mgrwt>
<rscale>  2 0.40334009E+03</rscale>
<asrwt>0</asrwt>
<pdfrwt beam="1">  1       21 0.20148880E+00 0.40334009E+03</pdfrwt>
<pdfrwt beam="2">  1       21 0.53075773E-01 0.40334009E+03</pdfrwt>
<totfact> 0.37034191E+02</totfact>
</mgrwt>
</event>
<event>
 4    1  0.4716816E-002  0.4371973E+03  0.7818608E-02  0.1031610E+00
         21   -1    0    0  501  502  0.00000000000E+00  0.00000000000E+00  0.17783092827E+03  0.17783092827E+03  0.00000000000E+00 0. -1.
         21   -1    0    0  502  503 -0.00000000000E+00 -0.00000000000E+00 -0.16574361079E+04  0.16574361079E+04  0.00000000000E+00 0. -1.
    9000007    1    1    2  501    0 -0.92652365986E+01  0.17622596704E+03 -0.19576210333E+03  0.47902425530E+03  0.40000000000E+03 0. -1.
   -9000007    1    1    2    0  503  0.92652365986E+01 -0.17622596704E+03 -0.12838430763E+04  0.13562427809E+04  0.40000000000E+03 0. -1.
<mgrwt>
<rscale>  2 0.43719725E+03</rscale>
<asrwt>0</asrwt>
<pdfrwt beam="1">  1       21 0.27358606E-01 0.43719725E+03</pdfrwt>
<pdfrwt beam="2">  1       21 0.25499016E+00 0.43719725E+03</pdfrwt>
<totfact> 0.64842166E+02</totfact>
</mgrwt>
</event>
<event>
 4    1  0.4716816E-002  0.4334320E+03  0.7818608E-02  0.1032781E+00
         21   -1    0    0  503  502  0.00000000000E+00  0.00000000000E+00  0.14476678633E+04  0.14476678633E+04  0.00000000000E+00 0.  1.
         21   -1    0    0  501  503 -0.00000000000E+00 -0.00000000000E+00 -0.18342865696E+03  0.18342865696E+03  0.00000000000E+00 0.  1.
    9000007    1    1    2  501    0 -0.12921534345E+03  0.10567277071E+03  0.19101923230E+03  0.47365777367E+03  0.40000000000E+03 0.  1.
   -9000007    1    1    2    0  502  0.12921534345E+03 -0.10567277071E+03  0.10732199741E+04  0.11574387466E+04  0.40000000000E+03 0.  1.
<mgrwt>
<rscale>  2 0.43343205E+03</rscale>
<asrwt>0</asrwt>
<pdfrwt beam="1">  1       21 0.22271812E+00 0.43343205E+03</pdfrwt>
<pdfrwt beam="2">  1       21 0.28219794E-01 0.43343205E+03</pdfrwt>
<totfact> 0.97001643E+02</totfact>
</mgrwt>
</event>
<event>
 4    1  0.4716816E-002  0.4802029E+03  0.7818608E-02  0.1019079E+00
         21   -1    0    0  501  502  0.00000000000E+00  0.00000000000E+00  0.77414433892E+03  0.77414433892E+03  0.00000000000E+00 0. -1.
         21   -1    0    0  502  503 -0.00000000000E+00 -0.00000000000E+00 -0.32056302337E+03  0.32056302337E+03  0.00000000000E+00 0.  1.
    9000007    1    1    2  501    0  0.23960969618E+03  0.11481293053E+03  0.37242106233E+03  0.60769421849E+03  0.40000000000E+03 0. -1.
   -9000007    1    1    2    0  503 -0.23960969618E+03 -0.11481293053E+03  0.81160253221E+02  0.48701314379E+03  0.40000000000E+03 0.  1.
<mgrwt>
<rscale>  2 0.48020289E+03</rscale>
<asrwt>0</asrwt>
<pdfrwt beam="1">  1       21 0.11909913E+00 0.48020289E+03</pdfrwt>
<pdfrwt beam="2">  1       21 0.49317388E-01 0.48020289E+03</pdfrwt>
<totfact> 0.17918221E+03</totfact>
</mgrwt>
</event>
<event>
 4    1  0.4716816E-002  0.4112887E+03  0.7818608E-02  0.1039939E+00
         21   -1    0    0  501  502  0.00000000000E+00  0.00000000000E+00  0.43147868738E+03  0.43147868738E+03  0.00000000000E+00 0. -1.
         21   -1    0    0  502  503 -0.00000000000E+00 -0.00000000000E+00 -0.39216653681E+03  0.39216653681E+03  0.00000000000E+00 0. -1.
    9000007    1    1    2  501    0 -0.19550076547E+02  0.93681319449E+02  0.26951874978E+02  0.41217083676E+03  0.40000000000E+03 0. -1.
   -9000007    1    1    2    0  503  0.19550076547E+02 -0.93681319449E+02  0.12360275590E+02  0.41147438744E+03  0.40000000000E+03 0. -1.
<mgrwt>
<rscale>  2 0.41128870E+03</rscale>
<asrwt>0</asrwt>
<pdfrwt beam="1">  1       21 0.66381337E-01 0.41128870E+03</pdfrwt>
<pdfrwt beam="2">  1       21 0.60333313E-01 0.41128870E+03</pdfrwt>
<totfact> 0.47484006E+03</totfact>
</mgrwt>
</event>
<event>
 4    1  0.4716816E-002  0.4223786E+03  0.7818608E-02  0.1036295E+00
         21   -1    0    0  503  502  0.00000000000E+00  0.00000000000E+00  0.17309081360E+03  0.17309081360E+03  0.00000000000E+00 0. -1.
         21   -1    0    0  501  503 -0.00000000000E+00 -0.00000000000E+00 -0.10580404820E+04  0.10580404820E+04  0.00000000000E+00 0. -1.
    9000007    1    1    2  501    0  0.13515717038E+03  0.11671577403E+02 -0.34351182505E+03  0.54443003258E+03  0.40000000000E+03 0. -1.
   -9000007    1    1    2    0  502 -0.13515717038E+03 -0.11671577403E+02 -0.54143784338E+03  0.68670126305E+03  0.40000000000E+03 0. -1.
<mgrwt>
<rscale>  2 0.42237861E+03</rscale>
<asrwt>0</asrwt>
<pdfrwt beam="1">  1       21 0.26629356E-01 0.42237861E+03</pdfrwt>
<pdfrwt beam="2">  1       21 0.16277546E+00 0.42237861E+03</pdfrwt>
<totfact> 0.28009201E+03</totfact>
</mgrwt>
</event>
<event>
 4    1  0.4716816E-002  0.4643064E+03  0.7818608E-02  0.1023540E+00
         21   -1    0    0  503  502  0.00000000000E+00  0.00000000000E+00  0.44703992757E+03  0.44703992757E+03  0.00000000000E+00 0.  1.
         21   -1    0    0  501  503 -0.00000000000E+00 -0.00000000000E+00 -0.98993945778E+03  0.98993945778E+03  0.00000000000E+00 0.  1.
    9000007    1    1    2  501    0  0.12129445213E+03 -0.20215854286E+03 -0.78599040662E+03  0.91288626886E+03  0.40000000000E+03 0.  1.
   -9000007    1    1    2    0  502 -0.12129445213E+03  0.20215854286E+03  0.24309087640E+03  0.52409311650E+03  0.40000000000E+03 0.  1.
<mgrwt>
<rscale>  2 0.46430639E+03</rscale>
<asrwt>0</asrwt>
<pdfrwt beam="1">  1       21 0.68775374E-01 0.46430639E+03</pdfrwt>
<pdfrwt beam="2">  1       21 0.15229838E+00 0.46430639E+03</pdfrwt>
<totfact> 0.45669713E+02</totfact>
</mgrwt>
</event>
<event>
 4    1  0.4716816E-002  0.4560506E+03  0.7818608E-02  0.1025933E+00
         21   -1    0    0  501  502  0.00000000000E+00  0.00000000000E+00  0.55446147528E+03  0.55446147528E+03  0.00000000000E+00 0. -1.
         21   -1    0    0  502  503 -0.00000000000E+00 -0.00000000000E+00 -0.54040544292E+03  0.54040544292E+03  0.00000000000E+00 0. -1.
    9000007    1    1    2  501    0 -0.40950662907E+02 -0.21518631183E+03  0.30979360513E+03  0.55132039992E+03  0.40000000000E+03 0. -1.
   -9000007    1    1    2    0  503  0.40950662907E+02  0.21518631183E+03 -0.29573757277E+03  0.54354651828E+03  0.40000000000E+03 0. -1.
<mgrwt>
<rscale>  2 0.45605055E+03</rscale>
<asrwt>0</asrwt>
<pdfrwt beam="1">  1       21 0.85301765E-01 0.45605055E+03</pdfrwt>
<pdfrwt beam="2">  1       21 0.83139299E-01 0.45605055E+03</pdfrwt>
<totfact> 0.12779865E+03</totfact>
</mgrwt>
</event>
<event>
 4    1  0.4716816E-002  0.4081694E+03  0.7818608E-02  0.1040987E+00
         21   -1    0    0  501  502  0.00000000000E+00  0.00000000000E+00  0.54896879662E+03  0.54896879662E+03  0.00000000000E+00 0. -1.
         21   -1    0    0  502  503 -0.00000000000E+00 -0.00000000000E+00 -0.37742659085E+03  0.37742659085E+03  0.00000000000E+00 0. -1.
    9000007    1    1    2  501    0  0.48352817576E+02 -0.65301178951E+02  0.29079423395E+03  0.50116217479E+03  0.40000000000E+03 0. -1.
   -9000007    1    1    2    0  503 -0.48352817576E+02  0.65301178951E+02 -0.11925202819E+03  0.42523321268E+03  0.40000000000E+03 0. -1.
<mgrwt>
<rscale>  2 0.40816938E+03</rscale>
<asrwt>0</asrwt>
<pdfrwt beam="1">  1       21 0.84456738E-01 0.40816938E+03</pdfrwt>
<pdfrwt beam="2">  1       21 0.58065629E-01 0.40816938E+03</pdfrwt>
<totfact> 0.29873325E+03</totfact>
</mgrwt>
</event>
<event>
 4    1  0.4716816E-002  0.5375190E+03  0.7818608E-02  0.1004425E+00
         21   -1    0    0  503  502  0.00000000000E+00  0.00000000000E+00  0.58725563503E+03  0.58725563503E+03  0.00000000000E+00 0.  1.
         21   -1    0    0  501  503 -0.00000000000E+00 -0.00000000000E+00 -0.78612083678E+03  0.78612083678E+03  0.00000000000E+00 0.  1.
    9000007    1    1    2  501    0  0.13693310816E+03 -0.33192775194E+03 -0.51946394646E+03  0.74750886302E+03  0.40000000000E+03 0. -1.
   -9000007    1    1    2    0  502 -0.13693310816E+03  0.33192775194E+03  0.32059874472E+03  0.62586760879E+03  0.40000000000E+03 0. -1.
<mgrwt>
<rscale>  2 0.53751903E+03</rscale>
<asrwt>0</asrwt>
<pdfrwt beam="1">  1       21 0.90347022E-01 0.53751903E+03</pdfrwt>
<pdfrwt beam="2">  1       21 0.12094167E+00 0.53751903E+03</pdfrwt>
<totfact> 0.43373005E+02</totfact>
</mgrwt>
</event>
<event>
 4    1  0.4716816E-002  0.4026584E+03  0.7818608E-02  0.1042863E+00
         21   -1    0    0  503  502  0.00000000000E+00  0.00000000000E+00  0.79483119658E+03  0.79483119658E+03  0.00000000000E+00 0. -1.
         21   -1    0    0  501  503 -0.00000000000E+00 -0.00000000000E+00 -0.30431152412E+03  0.30431152412E+03  0.00000000000E+00 0. -1.
    9000007    1    1    2  501    0 -0.86955051160E+01 -0.45367358814E+02 -0.70293168506E+02  0.40874801357E+03  0.40000000000E+03 0. -1.
   -9000007    1    1    2    0  502  0.86955051160E+01  0.45367358814E+02  0.56081284097E+03  0.69039470714E+03  0.40000000000E+03 0. -1.
<mgrwt>
<rscale>  2 0.40265843E+03</rscale>
<asrwt>0</asrwt>
<pdfrwt beam="1">  1       21 0.12228172E+00 0.40265843E+03</pdfrwt>
<pdfrwt beam="2">  1       21 0.46817158E-01 0.40265843E+03</pdfrwt>
<totfact> 0.19284416E+03</totfact>
</mgrwt>
</event>
<event>
 4    1  0.4716816E-002  0.4333746E+03  0.7818608E-02  0.1032799E+00
         21   -1    0    0  501  502  0.00000000000E+00  0.00000000000E+00  0.29056538662E+03  0.29056538662E+03  0.00000000000E+00 0.  1.
         21   -1    0    0  502  503 -0.00000000000E+00 -0.00000000000E+00 -0.65389585526E+03  0.65389585526E+03  0.00000000000E+00 0.  1.
    9000007    1    1    2  501    0 -0.67090327262E+02  0.15268419916E+03 -0.13101335395E+03  0.45274504481E+03  0.40000000000E+03 0.  1.
   -9000007    1    1    2    0  503  0.67090327262E+02 -0.15268419916E+03 -0.23231711468E+03  0.49171619707E+03  0.40000000000E+03 0.  1.
<mgrwt>
<rscale>  2 0.43337464E+03</rscale>
<asrwt>0</asrwt>
<pdfrwt beam="1">  1       21 0.44702368E-01 0.43337464E+03</pdfrwt>
<pdfrwt beam="2">  1       21 0.10059936E+00 0.43337464E+03</pdfrwt>
<totfact> 0.34086473E+03</totfact>
</mgrwt>
</event>
<event>
 4    1  0.4716816E-002  0.7593956E+03  0.7818608E-02  0.9620724E-01
         21   -1    0    0  501  502  0.00000000000E+00  0.00000000000E+00  0.36113531986E+03  0.36113531986E+03  0.00000000000E+00 0.  1.
         21   -1    0    0  502  503 -0.00000000000E+00 -0.00000000000E+00 -0.16054964485E+04  0.16054964485E+04  0.00000000000E+00 0. -1.
    9000007    1    1    2  501    0  0.28919179307E+03  0.57710466746E+03 -0.55005062027E+03  0.93767658350E+03  0.40000000000E+03 0.  1.
   -9000007    1    1    2    0  503 -0.28919179307E+03 -0.57710466746E+03 -0.69431050832E+03  0.10289551848E+04  0.40000000000E+03 0. -1.
<mgrwt>
<rscale>  2 0.75939561E+03</rscale>
<asrwt>0</asrwt>
<pdfrwt beam="1">  1       21 0.55559279E-01 0.75939561E+03</pdfrwt>
<pdfrwt beam="2">  1       21 0.24699946E+00 0.75939561E+03</pdfrwt>
<totfact> 0.14697734E+02</totfact>
</mgrwt>
</event>
<event>
 4    1  0.4716816E-002  0.5025102E+03  0.7818608E-02  0.1013126E+00
         21   -1    0    0  503  502  0.00000000000E+00  0.00000000000E+00  0.17174782818E+04  0.17174782818E+04  0.00000000000E+00 0. -1.
         21   -1    0    0  501  503 -0.00000000000E+00 -0.00000000000E+00 -0.24879847356E+03  0.24879847356E+03  0.00000000000E+00 0. -1.
    9000007    1    1    2  501    0 -0.13007888410E+03  0.27494723255E+03  0.10555398218E+03  0.51347652325E+03  0.40000000000E+03 0. -1.
   -9000007    1    1    2    0  502  0.13007888410E+03 -0.27494723255E+03  0.13631258260E+04  0.14528002321E+04  0.40000000000E+03 0. -1.
<mgrwt>
<rscale>  2 0.50251020E+03</rscale>
<asrwt>0</asrwt>
<pdfrwt beam="1">  1       21 0.26422742E+00 0.50251020E+03</pdfrwt>
<pdfrwt beam="2">  1       21 0.38276689E-01 0.50251020E+03</pdfrwt>
<totfact> 0.28050115E+02</totfact>
</mgrwt>
</event>
<event>
 4    1  0.4716816E-002  0.4072374E+03  0.7818608E-02  0.1041302E+00
         21   -1    0    0  503  502  0.00000000000E+00  0.00000000000E+00  0.73740178041E+03  0.73740178041E+03  0.00000000000E+00 0. -1.
         21   -1    0    0  501  503 -0.00000000000E+00 -0.00000000000E+00 -0.22792724500E+03  0.22792724500E+03  0.00000000000E+00 0. -1.
    9000007    1    1    2  501    0 -0.34989826266E+01 -0.76354882439E+02  0.19912024417E+03  0.45331135281E+03  0.40000000000E+03 0.  1.
   -9000007    1    1    2    0  502  0.34989826266E+01  0.76354882439E+02  0.31035429124E+03  0.51201767259E+03  0.40000000000E+03 0.  1.
<mgrwt>
<rscale>  2 0.40723741E+03</rscale>
<asrwt>0</asrwt>
<pdfrwt beam="1">  1       21 0.11344643E+00 0.40723741E+03</pdfrwt>
<pdfrwt beam="2">  1       21 0.35065731E-01 0.40723741E+03</pdfrwt>
<totfact> 0.42156601E+03</totfact>
</mgrwt>
</event>
<event>
 4    1  0.4716816E-002  0.4106351E+03  0.7818608E-02  0.1040158E+00
         21   -1    0    0  501  502  0.00000000000E+00  0.00000000000E+00  0.42815813794E+03  0.42815813794E+03  0.00000000000E+00 0.  1.
         21   -1    0    0  502  503 -0.00000000000E+00 -0.00000000000E+00 -0.39947173187E+03  0.39947173187E+03  0.00000000000E+00 0.  1.
    9000007    1    1    2  501    0 -0.41021913371E+02  0.83296800633E+02  0.63524748637E+02  0.41551961213E+03  0.40000000000E+03 0.  1.
   -9000007    1    1    2    0  503  0.41021913371E+02 -0.83296800633E+02 -0.34838342572E+02  0.41211025768E+03  0.40000000000E+03 0.  1.
<mgrwt>
<rscale>  2 0.41063506E+03</rscale>
<asrwt>0</asrwt>
<pdfrwt beam="1">  1       21 0.65870483E-01 0.41063506E+03</pdfrwt>
<pdfrwt beam="2">  1       21 0.61457189E-01 0.41063506E+03</pdfrwt>
<totfact> 0.46401907E+03</totfact>
</mgrwt>
</event>
<event>
 4    1  0.4716816E-002  0.4031977E+03  0.7818608E-02  0.1042678E+00
         21   -1    0    0  501  502  0.00000000000E+00  0.00000000000E+00  0.32097603870E+03  0.32097603870E+03  0.00000000000E+00 0.  1.
         21   -1    0    0  502  503 -0.00000000000E+00 -0.00000000000E+00 -0.67702355075E+03  0.67702355075E+03  0.00000000000E+00 0.  1.
    9000007    1    1    2  501    0 -0.19808602372E+02  0.46647356618E+02 -0.42846998272E+03  0.58834928631E+03  0.40000000000E+03 0. -1.
   -9000007    1    1    2    0  503  0.19808602372E+02 -0.46647356618E+02  0.72422470669E+02  0.40965030314E+03  0.40000000000E+03 0. -1.
<mgrwt>
<rscale>  2 0.40319766E+03</rscale>
<asrwt>0</asrwt>
<pdfrwt beam="1">  1       21 0.49380929E-01 0.40319766E+03</pdfrwt>
<pdfrwt beam="2">  1       21 0.10415747E+00 0.40319766E+03</pdfrwt>
<totfact> 0.25691542E+03</totfact>
</mgrwt>
</event>
<event>
 4    1  0.4716816E-002  0.4029350E+03  0.7818608E-02  0.1042768E+00
         21   -1    0    0  501  502  0.00000000000E+00  0.00000000000E+00  0.42715719050E+03  0.42715719050E+03  0.00000000000E+00 0. -1.
         21   -1    0    0  502  503 -0.00000000000E+00 -0.00000000000E+00 -0.58490608995E+03  0.58490608995E+03  0.00000000000E+00 0. -1.
    9000007    1    1    2  501    0 -0.47953369258E+02  0.75542437489E+01  0.22057296544E+03  0.45935718706E+03  0.40000000000E+03 0. -1.
   -9000007    1    1    2    0  503  0.47953369258E+02 -0.75542437489E+01 -0.37832186488E+03  0.55270609339E+03  0.40000000000E+03 0. -1.
<mgrwt>
<rscale>  2 0.40293497E+03</rscale>
<asrwt>0</asrwt>
<pdfrwt beam="1">  1       21 0.65716491E-01 0.40293497E+03</pdfrwt>
<pdfrwt beam="2">  1       21 0.89985553E-01 0.40293497E+03</pdfrwt>
<totfact> 0.19655011E+03</totfact>
</mgrwt>
</event>
<event>
 4    1  0.4716816E-002  0.4156012E+03  0.7818608E-02  0.1038508E+00
         21   -1    0    0  503  502  0.00000000000E+00  0.00000000000E+00  0.12291413694E+03  0.12291413694E+03  0.00000000000E+00 0. -1.
         21   -1    0    0  501  503 -0.00000000000E+00 -0.00000000000E+00 -0.17623626579E+04  0.17623626579E+04  0.00000000000E+00 0. -1.
    9000007    1    1    2  501    0  0.64389183029E+02  0.92619489174E+02 -0.12440543594E+04  0.13116385119E+04  0.40000000000E+03 0. -1.
   -9000007    1    1    2    0  502 -0.64389183029E+02 -0.92619489174E+02 -0.39539416148E+03  0.57363828289E+03  0.40000000000E+03 0. -1.
<mgrwt>
<rscale>  2 0.41560118E+03</rscale>
<asrwt>0</asrwt>
<pdfrwt beam="1">  1       21 0.18909869E-01 0.41560118E+03</pdfrwt>
<pdfrwt beam="2">  1       21 0.27113270E+00 0.41560118E+03</pdfrwt>
<totfact> 0.10664917E+03</totfact>
</mgrwt>
</event>
<event>
 4    1  0.4716816E-002  0.4631237E+03  0.7818608E-02  0.1023879E+00
         21   -1    0    0  503  502  0.00000000000E+00  0.00000000000E+00  0.88353206217E+03  0.88353206217E+03  0.00000000000E+00 0. -1.
         21   -1    0    0  501  503 -0.00000000000E+00 -0.00000000000E+00 -0.24288198245E+03  0.24288198245E+03  0.00000000000E+00 0. -1.
    9000007    1    1    2  501    0  0.21652499642E+03 -0.87180573238E+02  0.33310488070E+03  0.57047558052E+03  0.40000000000E+03 0. -1.
   -9000007    1    1    2    0  502 -0.21652499642E+03  0.87180573238E+02  0.30754519902E+03  0.55593846410E+03  0.40000000000E+03 0. -1.
<mgrwt>
<rscale>  2 0.46312366E+03</rscale>
<asrwt>0</asrwt>
<pdfrwt beam="1">  1       21 0.13592801E+00 0.46312366E+03</pdfrwt>
<pdfrwt beam="2">  1       21 0.37366459E-01 0.46312366E+03</pdfrwt>
<totfact> 0.22838838E+03</totfact>
</mgrwt>
</event>
<event>
 4    1  0.4716816E-002  0.7141552E+03  0.7818608E-02  0.9693327E-01
         21   -1    0    0  503  502  0.00000000000E+00  0.00000000000E+00  0.44500130001E+03  0.44500130001E+03  0.00000000000E+00 0. -1.
         21   -1    0    0  501  503 -0.00000000000E+00 -0.00000000000E+00 -0.16070024844E+04  0.16070024844E+04  0.00000000000E+00 0.  1.
    9000007    1    1    2  501    0 -0.53420383256E+03 -0.25425162159E+03 -0.11304689458E+04  0.13371528182E+04  0.40000000000E+03 0. -1.
   -9000007    1    1    2    0  502  0.53420383256E+03  0.25425162159E+03 -0.31532238578E+02  0.71485096620E+03  0.40000000000E+03 0. -1.
<mgrwt>
<rscale>  2 0.71415518E+03</rscale>
<asrwt>0</asrwt>
<pdfrwt beam="1">  1       21 0.68461739E-01 0.71415518E+03</pdfrwt>
<pdfrwt beam="2">  1       21 0.24723115E+00 0.71415518E+03</pdfrwt>
<totfact> 0.93458177E+01</totfact>
</mgrwt>
</event>
<event>
 4    1  0.4716816E-002  0.5440836E+03  0.7818608E-02  0.1002873E+00
         21   -1    0    0  503  502  0.00000000000E+00  0.00000000000E+00  0.17050761304E+04  0.17050761304E+04  0.00000000000E+00 0.  1.
         21   -1    0    0  501  503 -0.00000000000E+00 -0.00000000000E+00 -0.19797691888E+03  0.19797691888E+03  0.00000000000E+00 0. -1.
    9000007    1    1    2  501    0  0.17951468451E+03 -0.32218224967E+03  0.41976317531E+03  0.68718850930E+03  0.40000000000E+03 0. -1.
   -9000007    1    1    2    0  502 -0.17951468451E+03  0.32218224967E+03  0.10873360362E+04  0.12158645399E+04  0.40000000000E+03 0.  1.
<mgrwt>
<rscale>  2 0.54408356E+03</rscale>
<asrwt>0</asrwt>
<pdfrwt beam="1">  1       21 0.26231940E+00 0.54408356E+03</pdfrwt>
<pdfrwt beam="2">  1       21 0.30457989E-01 0.54408356E+03</pdfrwt>
<totfact> 0.44880176E+02</totfact>
</mgrwt>
</event>
<event>
 4    1  0.4716816E-002  0.4517173E+03  0.7818608E-02  0.1027211E+00
         21   -1    0    0  503  502  0.00000000000E+00  0.00000000000E+00  0.80656012323E+03  0.80656012323E+03  0.00000000000E+00 0.  1.
         21   -1    0    0  501  503 -0.00000000000E+00 -0.00000000000E+00 -0.26935142387E+03  0.26935142387E+03  0.00000000000E+00 0. -1.
    9000007    1    1    2  501    0  0.11561355219E+03 -0.17516278915E+03  0.40120611334E+03  0.60416458150E+03  0.40000000000E+03 0. -1.
   -9000007    1    1    2    0  502 -0.11561355219E+03  0.17516278915E+03  0.13600258601E+03  0.47174696560E+03  0.40000000000E+03 0.  1.
<mgrwt>
<rscale>  2 0.45171727E+03</rscale>
<asrwt>0</asrwt>
<pdfrwt beam="1">  1       21 0.12408617E+00 0.45171727E+03</pdfrwt>
<pdfrwt beam="2">  1       21 0.41438681E-01 0.45171727E+03</pdfrwt>
<totfact> 0.23491292E+03</totfact>
</mgrwt>
</event>
<event>
 4    1  0.4716816E-002  0.7632296E+03  0.7818608E-02  0.9614821E-01
         21   -1    0    0  501  502  0.00000000000E+00  0.00000000000E+00  0.11547482467E+04  0.11547482467E+04  0.00000000000E+00 0. -1.
         21   -1    0    0  502  503 -0.00000000000E+00 -0.00000000000E+00 -0.57518165257E+03  0.57518165257E+03  0.00000000000E+00 0.  1.
    9000007    1    1    2  501    0 -0.58671702366E+03  0.27979006542E+03  0.59309234740E+03  0.96658050835E+03  0.40000000000E+03 0. -1.
   -9000007    1    1    2    0  503  0.58671702366E+03 -0.27979006542E+03 -0.13525753303E+02  0.76334939089E+03  0.40000000000E+03 0.  1.
<mgrwt>
<rscale>  2 0.76322955E+03</rscale>
<asrwt>0</asrwt>
<pdfrwt beam="1">  1       21 0.17765358E+00 0.76322955E+03</pdfrwt>
<pdfrwt beam="2">  1       21 0.88489485E-01 0.76322955E+03</pdfrwt>
<totfact> 0.14736903E+02</totfact>
</mgrwt>
</event>
<event>
 4    1  0.4716816E-002  0.4425551E+03  0.7818608E-02  0.1029966E+00
         21   -1    0    0  501  502  0.00000000000E+00  0.00000000000E+00  0.10201809327E+04  0.10201809327E+04  0.00000000000E+00 0.  1.
         21   -1    0    0  502  503 -0.00000000000E+00 -0.00000000000E+00 -0.21258111072E+03  0.21258111072E+03  0.00000000000E+00 0.  1.
    9000007    1    1    2  501    0 -0.16690326297E+03  0.89433374633E+02  0.59567786917E+03  0.74208298155E+03  0.40000000000E+03 0.  1.
   -9000007    1    1    2    0  503  0.16690326297E+03 -0.89433374633E+02  0.21192195284E+03  0.49067906190E+03  0.40000000000E+03 0.  1.
<mgrwt>
<rscale>  2 0.44255511E+03</rscale>
<asrwt>0</asrwt>
<pdfrwt beam="1">  1       21 0.15695091E+00 0.44255511E+03</pdfrwt>
<pdfrwt beam="2">  1       21 0.32704787E-01 0.44255511E+03</pdfrwt>
<totfact> 0.20459254E+03</totfact>
</mgrwt>
</event>
<event>
 4    1  0.4716816E-002  0.4120936E+03  0.7818608E-02  0.1039671E+00
         21   -1    0    0  503  502  0.00000000000E+00  0.00000000000E+00  0.24695988829E+03  0.24695988829E+03  0.00000000000E+00 0. -1.
         21   -1    0    0  501  503 -0.00000000000E+00 -0.00000000000E+00 -0.68777558070E+03  0.68777558070E+03  0.00000000000E+00 0. -1.
    9000007    1    1    2  501    0 -0.39075953849E+02 -0.91072342683E+02 -0.22681069360E+03  0.47038727927E+03  0.40000000000E+03 0. -1.
   -9000007    1    1    2    0  502  0.39075953849E+02  0.91072342683E+02 -0.21400499881E+03  0.46434818971E+03  0.40000000000E+03 0. -1.
<mgrwt>
<rscale>  2 0.41209356E+03</rscale>
<asrwt>0</asrwt>
<pdfrwt beam="1">  1       21 0.37993830E-01 0.41209356E+03</pdfrwt>
<pdfrwt beam="2">  1       21 0.10581163E+00 0.41209356E+03</pdfrwt>
<totfact> 0.42479693E+03</totfact>
</mgrwt>
</event>
<event>
 4    1  0.4716816E-002  0.4309601E+03  0.7818608E-02  0.1033557E+00
         21   -1    0    0  501  502  0.00000000000E+00  0.00000000000E+00  0.43199230468E+03  0.43199230468E+03  0.00000000000E+00 0. -1.
         21   -1    0    0  502  503 -0.00000000000E+00 -0.00000000000E+00 -0.47503389250E+03  0.47503389250E+03  0.00000000000E+00 0.  1.
    9000007    1    1    2  501    0  0.15734580739E+03  0.31127467046E+02  0.11822303724E+03  0.44688176159E+03  0.40000000000E+03 0. -1.
   -9000007    1    1    2    0  503 -0.15734580739E+03 -0.31127467046E+02 -0.16126462505E+03  0.46014443559E+03  0.40000000000E+03 0.  1.
<mgrwt>
<rscale>  2 0.43096012E+03</rscale>
<asrwt>0</asrwt>
<pdfrwt beam="1">  1       21 0.66460355E-01 0.43096012E+03</pdfrwt>
<pdfrwt beam="2">  1       21 0.73082137E-01 0.43096012E+03</pdfrwt>
<totfact> 0.30678038E+03</totfact>
</mgrwt>
</event>
<event>
 4    1  0.4716816E-002  0.4084759E+03  0.7818608E-02  0.1040884E+00
         21   -1    0    0  501  502  0.00000000000E+00  0.00000000000E+00  0.21850001211E+03  0.21850001211E+03  0.00000000000E+00 0.  1.
         21   -1    0    0  502  503 -0.00000000000E+00 -0.00000000000E+00 -0.14227606382E+04  0.14227606382E+04  0.00000000000E+00 0.  1.
    9000007    1    1    2  501    0 -0.57616290970E+00 -0.82778137392E+02 -0.43572265203E+02  0.41079325005E+03  0.40000000000E+03 0.  1.
   -9000007    1    1    2    0  503  0.57616290970E+00  0.82778137392E+02 -0.11606883609E+04  0.12304674003E+04  0.40000000000E+03 0.  1.
<mgrwt>
<rscale>  2 0.40847589E+03</rscale>
<asrwt>0</asrwt>
<pdfrwt beam="1">  1       21 0.33615387E-01 0.40847589E+03</pdfrwt>
<pdfrwt beam="2">  1       21 0.21888625E+00 0.40847589E+03</pdfrwt>
<totfact> 0.73366777E+02</totfact>
</mgrwt>
</event>
<event>
 4    1  0.4716816E-002  0.4339769E+03  0.7818608E-02  0.1032611E+00
         21   -1    0    0  503  502  0.00000000000E+00  0.00000000000E+00  0.19561848357E+03  0.19561848357E+03  0.00000000000E+00 0. -1.
         21   -1    0    0  501  503 -0.00000000000E+00 -0.00000000000E+00 -0.97729750660E+03  0.97729750660E+03  0.00000000000E+00 0. -1.
    9000007    1    1    2  501    0 -0.13312321154E+02  0.16780554728E+03 -0.46233772703E+03  0.63410732012E+03  0.40000000000E+03 0. -1.
   -9000007    1    1    2    0  502  0.13312321154E+02 -0.16780554728E+03 -0.31934129601E+03  0.53880867006E+03  0.40000000000E+03 0. -1.
<mgrwt>
<rscale>  2 0.43397687E+03</rscale>
<asrwt>0</asrwt>
<pdfrwt beam="1">  1       21 0.30095151E-01 0.43397687E+03</pdfrwt>
<pdfrwt beam="2">  1       21 0.15035346E+00 0.43397687E+03</pdfrwt>
<totfact> 0.27258840E+03</totfact>
</mgrwt>
</event>
<event>
 4    1  0.4716816E-002  0.4278128E+03  0.7818608E-02  0.1034553E+00
         21   -1    0    0  503  502  0.00000000000E+00  0.00000000000E+00  0.11703637171E+03  0.11703637171E+03  0.00000000000E+00 0.  1.
         21   -1    0    0  501  503 -0.00000000000E+00 -0.00000000000E+00 -0.18691146644E+04  0.18691146644E+04  0.00000000000E+00 0.  1.
    9000007    1    1    2  501    0  0.11693617693E+03  0.96693972024E+02 -0.12773898815E+04  0.13471260902E+04  0.40000000000E+03 0.  1.
   -9000007    1    1    2    0  502 -0.11693617693E+03 -0.96693972024E+02 -0.47468841121E+03  0.63902494586E+03  0.40000000000E+03 0.  1.
<mgrwt>
<rscale>  2 0.42781280E+03</rscale>
<asrwt>0</asrwt>
<pdfrwt beam="1">  1       21 0.18005598E-01 0.42781280E+03</pdfrwt>
<pdfrwt beam="2">  1       21 0.28755606E+00 0.42781280E+03</pdfrwt>
<totfact> 0.92560251E+02</totfact>
</mgrwt>
</event>
<event>
 4    1  0.4716816E-002  0.4299873E+03  0.7818608E-02  0.1033864E+00
         21   -1    0    0  503  502  0.00000000000E+00  0.00000000000E+00  0.58768940808E+03  0.58768940808E+03  0.00000000000E+00 0. -1.
         21   -1    0    0  501  503 -0.00000000000E+00 -0.00000000000E+00 -0.40205749864E+03  0.40205749864E+03  0.00000000000E+00 0.  1.
    9000007    1    1    2  501    0  0.47618249422E+02  0.15040470824E+03 -0.13798638596E+03  0.45158533706E+03  0.40000000000E+03 0.  1.
   -9000007    1    1    2    0  502 -0.47618249422E+02 -0.15040470824E+03  0.32361829540E+03  0.53816156966E+03  0.40000000000E+03 0.  1.
<mgrwt>
<rscale>  2 0.42998730E+03</rscale>
<asrwt>0</asrwt>
<pdfrwt beam="1">  1       21 0.90413755E-01 0.42998730E+03</pdfrwt>
<pdfrwt beam="2">  1       21 0.61855000E-01 0.42998730E+03</pdfrwt>
<totfact> 0.21977670E+03</totfact>
</mgrwt>
</event>
<event>
 4    1  0.4716816E-002  0.5625484E+03  0.7818608E-02  0.9986305E-01
         21   -1    0    0  503  502  0.00000000000E+00  0.00000000000E+00  0.45906443681E+03  0.45906443681E+03  0.00000000000E+00 0. -1.
         21   -1    0    0  501  503 -0.00000000000E+00 -0.00000000000E+00 -0.87198660930E+03  0.87198660930E+03  0.00000000000E+00 0. -1.
    9000007    1    1    2  501    0 -0.38999522467E+03  0.66063442231E+02 -0.51103440275E+03  0.76001106206E+03  0.40000000000E+03 0. -1.
   -9000007    1    1    2    0  502  0.38999522467E+03 -0.66063442231E+02  0.98112230254E+02  0.57103998406E+03  0.40000000000E+03 0. -1.
<mgrwt>
<rscale>  2 0.56254836E+03</rscale>
<asrwt>0</asrwt>
<pdfrwt beam="1">  1       21 0.70625299E-01 0.56254836E+03</pdfrwt>
<pdfrwt beam="2">  1       21 0.13415178E+00 0.56254836E+03</pdfrwt>
<totfact> 0.58156370E+02</totfact>
</mgrwt>
</event>
<event>
 4    1  0.4716816E-002  0.4631777E+03  0.7818608E-02  0.1023864E+00
         21   -1    0    0  503  502  0.00000000000E+00  0.00000000000E+00  0.34201445205E+03  0.34201445205E+03  0.00000000000E+00 0. -1.
         21   -1    0    0  501  503 -0.00000000000E+00 -0.00000000000E+00 -0.63691777464E+03  0.63691777464E+03  0.00000000000E+00 0. -1.
    9000007    1    1    2  501    0  0.10119375929E+03  0.21046000502E+03 -0.87193772591E+02  0.47131342503E+03  0.40000000000E+03 0. -1.
   -9000007    1    1    2    0  502 -0.10119375929E+03 -0.21046000502E+03 -0.20770955001E+03  0.50761880166E+03  0.40000000000E+03 0. -1.
<mgrwt>
<rscale>  2 0.46317771E+03</rscale>
<asrwt>0</asrwt>
<pdfrwt beam="1">  1       21 0.52617608E-01 0.46317771E+03</pdfrwt>
<pdfrwt beam="2">  1       21 0.97987350E-01 0.46317771E+03</pdfrwt>
<totfact> 0.25449486E+03</totfact>
</mgrwt>
</event>
<event>
 4    1  0.4716816E-002  0.7195606E+03  0.7818608E-02  0.9684354E-01
         21   -1    0    0  501  502  0.00000000000E+00  0.00000000000E+00  0.95115681027E+03  0.95115681027E+03  0.00000000000E+00 0. -1.
         21   -1    0    0  502  503 -0.00000000000E+00 -0.00000000000E+00 -0.22522786980E+04  0.22522786980E+04  0.00000000000E+00 0. -1.
    9000007    1    1    2  501    0 -0.11070322413E+03  0.58780285515E+03  0.74422993606E+03  0.10352031675E+04  0.40000000000E+03 0. -1.
   -9000007    1    1    2    0  503  0.11070322413E+03 -0.58780285515E+03 -0.20453518238E+04  0.21682323408E+04  0.40000000000E+03 0. -1.
<mgrwt>
<rscale>  2 0.71956056E+03</rscale>
<asrwt>0</asrwt>
<pdfrwt beam="1">  1       21 0.14633182E+00 0.71956056E+03</pdfrwt>
<pdfrwt beam="2">  1       21 0.34650441E+00 0.71956056E+03</pdfrwt>
<totfact> 0.34788097E+00</totfact>
</mgrwt>
</event>
<event>
 4    1  0.4716816E-002  0.4620697E+03  0.7818608E-02  0.1024183E+00
         21   -1    0    0  501  502  0.00000000000E+00  0.00000000000E+00  0.13404142420E+04  0.13404142420E+04  0.00000000000E+00 0.  1.
         21   -1    0    0  502  503 -0.00000000000E+00 -0.00000000000E+00 -0.27405153017E+03  0.27405153017E+03  0.00000000000E+00 0.  1.
    9000007    1    1    2  501    0  0.23103136618E+03  0.11527375927E+02  0.10555651132E+04  0.11522699687E+04  0.40000000000E+03 0.  1.
   -9000007    1    1    2    0  503 -0.23103136618E+03 -0.11527375927E+02  0.10797598561E+02  0.46219580341E+03  0.40000000000E+03 0.  1.
<mgrwt>
<rscale>  2 0.46206966E+03</rscale>
<asrwt>0</asrwt>
<pdfrwt beam="1">  1       21 0.20621757E+00 0.46206966E+03</pdfrwt>
<pdfrwt beam="2">  1       21 0.42161775E-01 0.46206966E+03</pdfrwt>
<totfact> 0.54313890E+02</totfact>
</mgrwt>
</event>
<event>
 4    1  0.4716816E-002  0.4274342E+03  0.7818608E-02  0.1034674E+00
         21   -1    0    0  503  502  0.00000000000E+00  0.00000000000E+00  0.15512281831E+03  0.15512281831E+03  0.00000000000E+00 0. -1.
         21   -1    0    0  501  503 -0.00000000000E+00 -0.00000000000E+00 -0.19113522341E+04  0.19113522341E+04  0.00000000000E+00 0. -1.
    9000007    1    1    2  501    0 -0.14141750489E+03 -0.51972282875E+02 -0.15182212254E+04  0.15772430752E+04  0.40000000000E+03 0. -1.
   -9000007    1    1    2    0  502  0.14141750489E+03  0.51972282875E+02 -0.23800819039E+03  0.48923197726E+03  0.40000000000E+03 0. -1.
<mgrwt>
<rscale>  2 0.42743424E+03</rscale>
<asrwt>0</asrwt>
<pdfrwt beam="1">  1       21 0.23865049E-01 0.42743424E+03</pdfrwt>
<pdfrwt beam="2">  1       21 0.29405419E+00 0.42743424E+03</pdfrwt>
<totfact> 0.49437174E+02</totfact>
</mgrwt>
</event>
<event>
 4    1  0.4716816E-002  0.5598125E+03  0.7818608E-02  0.9992479E-01
         21   -1    0    0  501  502  0.00000000000E+00  0.00000000000E+00  0.23478477623E+03  0.23478477623E+03  0.00000000000E+00 0. -1.
         21   -1    0    0  502  503 -0.00000000000E+00 -0.00000000000E+00 -0.13353627039E+04  0.13353627039E+04  0.00000000000E+00 0.  1.
    9000007    1    1    2  501    0  0.33659904394E+03 -0.20022774864E+03 -0.53413350939E+03  0.77374974867E+03  0.40000000000E+03 0. -1.
   -9000007    1    1    2    0  503 -0.33659904394E+03  0.20022774864E+03 -0.56644441832E+03  0.79639773151E+03  0.40000000000E+03 0.  1.
<mgrwt>
<rscale>  2 0.55981253E+03</rscale>
<asrwt>0</asrwt>
<pdfrwt beam="1">  1       21 0.36120735E-01 0.55981253E+03</pdfrwt>
<pdfrwt beam="2">  1       21 0.20544041E+00 0.55981253E+03</pdfrwt>
<totfact> 0.72492416E+02</totfact>
</mgrwt>
</event>
<event>
 4    1  0.4716816E-002  0.5354909E+03  0.7818608E-02  0.1004909E+00
         21   -1    0    0  503  502  0.00000000000E+00  0.00000000000E+00  0.66116431285E+03  0.66116431285E+03  0.00000000000E+00 0. -1.
         21   -1    0    0  501  503 -0.00000000000E+00 -0.00000000000E+00 -0.56215249038E+03  0.56215249038E+03  0.00000000000E+00 0. -1.
    9000007    1    1    2  501    0 -0.12142672573E+03 -0.33467307703E+03 -0.24287165637E+03  0.58799418337E+03  0.40000000000E+03 0. -1.
   -9000007    1    1    2    0  502  0.12142672573E+03  0.33467307703E+03  0.34188347884E+03  0.63532261987E+03  0.40000000000E+03 0. -1.
<mgrwt>
<rscale>  2 0.53549091E+03</rscale>
<asrwt>0</asrwt>
<pdfrwt beam="1">  1       21 0.10171759E+00 0.53549091E+03</pdfrwt>
<pdfrwt beam="2">  1       21 0.86484998E-01 0.53549091E+03</pdfrwt>
<totfact> 0.74215001E+02</totfact>
</mgrwt>
</event>
<event>
 4    1  0.4716816E-002  0.4002882E+03  0.7818608E-02  0.1043680E+00
         21   -1    0    0  503  502  0.00000000000E+00  0.00000000000E+00  0.13397646153E+03  0.13397646153E+03  0.00000000000E+00 0.  1.
         21   -1    0    0  501  503 -0.00000000000E+00 -0.00000000000E+00 -0.12640877981E+04  0.12640877981E+04  0.00000000000E+00 0.  1.
    9000007    1    1    2  501    0 -0.14745811599E+02 -0.36362507874E+01 -0.72733626427E+03  0.83021003523E+03  0.40000000000E+03 0. -1.
   -9000007    1    1    2    0  502  0.14745811599E+02  0.36362507874E+01 -0.40277507226E+03  0.56785422435E+03  0.40000000000E+03 0. -1.
<mgrwt>
<rscale>  2 0.40028822E+03</rscale>
<asrwt>0</asrwt>
<pdfrwt beam="1">  1       21 0.20611763E-01 0.40028822E+03</pdfrwt>
<pdfrwt beam="2">  1       21 0.19447505E+00 0.40028822E+03</pdfrwt>
<totfact> 0.27682343E+03</totfact>
</mgrwt>
</event>
<event>
 4    1  0.4716816E-002  0.4086771E+03  0.7818608E-02  0.1040816E+00
         21   -1    0    0  503  502  0.00000000000E+00  0.00000000000E+00  0.48622024079E+03  0.48622024079E+03  0.00000000000E+00 0.  1.
         21   -1    0    0  501  503 -0.00000000000E+00 -0.00000000000E+00 -0.40435975448E+03  0.40435975448E+03  0.00000000000E+00 0.  1.
    9000007    1    1    2  501    0 -0.56795781250E+02  0.61572881620E+02  0.21368168078E+03  0.46116899421E+03  0.40000000000E+03 0.  1.
   -9000007    1    1    2    0  502  0.56795781250E+02 -0.61572881620E+02 -0.13182119447E+03  0.42941100106E+03  0.40000000000E+03 0.  1.
<mgrwt>
<rscale>  2 0.40867711E+03</rscale>
<asrwt>0</asrwt>
<pdfrwt beam="1">  1       21 0.74803114E-01 0.40867711E+03</pdfrwt>
<pdfrwt beam="2">  1       21 0.62209193E-01 0.40867711E+03</pdfrwt>
<totfact> 0.33967672E+03</totfact>
</mgrwt>
</event>
<event>
 4    1  0.4716816E-002  0.4244354E+03  0.7818608E-02  0.1035632E+00
         21   -1    0    0  503  502  0.00000000000E+00  0.00000000000E+00  0.55055520566E+03  0.55055520566E+03  0.00000000000E+00 0. -1.
         21   -1    0    0  501  503 -0.00000000000E+00 -0.00000000000E+00 -0.52169610639E+03  0.52169610639E+03  0.00000000000E+00 0. -1.
    9000007    1    1    2  501    0 -0.13913128005E+03  0.28070058030E+02 -0.31291535665E+03  0.52731533419E+03  0.40000000000E+03 0. -1.
   -9000007    1    1    2    0  502  0.13913128005E+03 -0.28070058030E+02  0.34177445592E+03  0.54493597786E+03  0.40000000000E+03 0. -1.
<mgrwt>
<rscale>  2 0.42443544E+03</rscale>
<asrwt>0</asrwt>
<pdfrwt beam="1">  1       21 0.84700801E-01 0.42443544E+03</pdfrwt>
<pdfrwt beam="2">  1       21 0.80260939E-01 0.42443544E+03</pdfrwt>
<totfact> 0.14280351E+03</totfact>
</mgrwt>
</event>
<event>
 4    1  0.4716816E-002  0.5165210E+03  0.7818608E-02  0.1009554E+00
         21   -1    0    0  503  502  0.00000000000E+00  0.00000000000E+00  0.56016944532E+03  0.56016944532E+03  0.00000000000E+00 0. -1.
         21   -1    0    0  501  503 -0.00000000000E+00 -0.00000000000E+00 -0.51010550418E+03  0.51010550418E+03  0.00000000000E+00 0.  1.
    9000007    1    1    2  501    0  0.55317344518E+02 -0.32207752047E+03 -0.11278362242E+03  0.52869091470E+03  0.40000000000E+03 0.  1.
   -9000007    1    1    2    0  502 -0.55317344518E+02  0.32207752047E+03  0.16284756356E+03  0.54158403481E+03  0.40000000000E+03 0.  1.
<mgrwt>
<rscale>  2 0.51652099E+03</rscale>
<asrwt>0</asrwt>
<pdfrwt beam="1">  1       21 0.86179914E-01 0.51652099E+03</pdfrwt>
<pdfrwt beam="2">  1       21 0.78477770E-01 0.51652099E+03</pdfrwt>
<totfact> 0.13950627E+03</totfact>
</mgrwt>
</event>
<event>
 4    1  0.4716816E-002  0.4962586E+03  0.7818608E-02  0.1014760E+00
         21   -1    0    0  501  502  0.00000000000E+00  0.00000000000E+00  0.82242715570E+03  0.82242715570E+03  0.00000000000E+00 0. -1.
         21   -1    0    0  502  503 -0.00000000000E+00 -0.00000000000E+00 -0.30207347866E+03  0.30207347866E+03  0.00000000000E+00 0. -1.
    9000007    1    1    2  501    0 -0.28479195973E+03  0.71875989072E+02  0.20774037963E+03  0.53798576511E+03  0.40000000000E+03 0. -1.
   -9000007    1    1    2    0  503  0.28479195973E+03 -0.71875989072E+02  0.31261329741E+03  0.58651486925E+03  0.40000000000E+03 0. -1.
<mgrwt>
<rscale>  2 0.49625862E+03</rscale>
<asrwt>0</asrwt>
<pdfrwt beam="1">  1       21 0.12652725E+00 0.49625862E+03</pdfrwt>
<pdfrwt beam="2">  1       21 0.46472843E-01 0.49625862E+03</pdfrwt>
<totfact> 0.17296177E+03</totfact>
</mgrwt>
</event>
<event>
 4    1  0.4716816E-002  0.4017048E+03  0.7818608E-02  0.1043191E+00
         21   -1    0    0  501  502  0.00000000000E+00  0.00000000000E+00  0.12512017089E+03  0.12512017089E+03  0.00000000000E+00 0.  1.
         21   -1    0    0  502  503 -0.00000000000E+00 -0.00000000000E+00 -0.12926655102E+04  0.12926655102E+04  0.00000000000E+00 0.  1.
    9000007    1    1    2  501    0 -0.26614804027E+02  0.25659685672E+02 -0.54978616512E+03  0.68090498208E+03  0.40000000000E+03 0. -1.
   -9000007    1    1    2    0  503  0.26614804027E+02 -0.25659685672E+02 -0.61775917415E+03  0.73688069897E+03  0.40000000000E+03 0. -1.
<mgrwt>
<rscale>  2 0.40170483E+03</rscale>
<asrwt>0</asrwt>
<pdfrwt beam="1">  1       21 0.19249256E-01 0.40170483E+03</pdfrwt>
<pdfrwt beam="2">  1       21 0.19887163E+00 0.40170483E+03</pdfrwt>
<totfact> 0.29434031E+03</totfact>
</mgrwt>
</event>
<event>
 4    1  0.4716816E-002  0.4355251E+03  0.7818608E-02  0.1032129E+00
         21   -1    0    0  503  502  0.00000000000E+00  0.00000000000E+00  0.19370536905E+03  0.19370536905E+03  0.00000000000E+00 0.  1.
         21   -1    0    0  501  503 -0.00000000000E+00 -0.00000000000E+00 -0.18310090267E+04  0.18310090267E+04  0.00000000000E+00 0.  1.
    9000007    1    1    2  501    0 -0.16801726235E+03  0.38109430668E+02 -0.15091332164E+04  0.15707212337E+04  0.40000000000E+03 0.  1.
   -9000007    1    1    2    0  502  0.16801726235E+03 -0.38109430668E+02 -0.12817044120E+03  0.45399316201E+03  0.40000000000E+03 0.  1.
<mgrwt>
<rscale>  2 0.43552512E+03</rscale>
<asrwt>0</asrwt>
<pdfrwt beam="1">  1       21 0.29800827E-01 0.43552512E+03</pdfrwt>
<pdfrwt beam="2">  1       21 0.28169369E+00 0.43552512E+03</pdfrwt>
<totfact> 0.37783789E+02</totfact>
</mgrwt>
</event>
<event>
 4    1  0.4716816E-002  0.4088150E+03  0.7818608E-02  0.1040769E+00
         21   -1    0    0  503  502  0.00000000000E+00  0.00000000000E+00  0.10515349970E+04  0.10515349970E+04  0.00000000000E+00 0.  1.
         21   -1    0    0  501  503 -0.00000000000E+00 -0.00000000000E+00 -0.16291772566E+03  0.16291772566E+03  0.00000000000E+00 0.  1.
    9000007    1    1    2  501    0  0.82704285714E+02 -0.17020996082E+02  0.34941234754E+03  0.53779057429E+03  0.40000000000E+03 0.  1.
   -9000007    1    1    2    0  502 -0.82704285714E+02  0.17020996082E+02  0.53920492378E+03  0.67666214835E+03  0.40000000000E+03 0.  1.
<mgrwt>
<rscale>  2 0.40881501E+03</rscale>
<asrwt>0</asrwt>
<pdfrwt beam="1">  1       21 0.16177461E+00 0.40881501E+03</pdfrwt>
<pdfrwt beam="2">  1       21 0.25064266E-01 0.40881501E+03</pdfrwt>
<totfact> 0.32247441E+03</totfact>
</mgrwt>
</event>
<event>
 4    1  0.4716816E-002  0.4670737E+03  0.7818608E-02  0.1022749E+00
         21   -1    0    0  503  502  0.00000000000E+00  0.00000000000E+00  0.12795294015E+03  0.12795294015E+03  0.00000000000E+00 0. -1.
         21   -1    0    0  501  503 -0.00000000000E+00 -0.00000000000E+00 -0.18417109334E+04  0.18417109334E+04  0.00000000000E+00 0.  1.
    9000007    1    1    2  501    0 -0.20594470334E+03 -0.12547740140E+03 -0.58854395399E+03  0.75135995693E+03  0.40000000000E+03 0. -1.
   -9000007    1    1    2    0  502  0.20594470334E+03  0.12547740140E+03 -0.11252140392E+04  0.12183039166E+04  0.40000000000E+03 0.  1.
<mgrwt>
<rscale>  2 0.46707365E+03</rscale>
<asrwt>0</asrwt>
<pdfrwt beam="1">  1       21 0.19685068E-01 0.46707365E+03</pdfrwt>
<pdfrwt beam="2">  1       21 0.28334014E+00 0.46707365E+03</pdfrwt>
<totfact> 0.81167727E+02</totfact>
</mgrwt>
</event>
<event>
 4    1  0.4716816E-002  0.5070932E+03  0.7818608E-02  0.1011944E+00
         21   -1    0    0  503  502  0.00000000000E+00  0.00000000000E+00  0.48340932199E+03  0.48340932199E+03  0.00000000000E+00 0. -1.
         21   -1    0    0  501  503 -0.00000000000E+00 -0.00000000000E+00 -0.86892451550E+03  0.86892451550E+03  0.00000000000E+00 0. -1.
    9000007    1    1    2  501    0  0.13060705990E+03 -0.28299340073E+03 -0.61384241208E+03  0.79620724426E+03  0.40000000000E+03 0. -1.
   -9000007    1    1    2    0  502 -0.13060705990E+03  0.28299340073E+03  0.22832721857E+03  0.55612659323E+03  0.40000000000E+03 0. -1.
<mgrwt>
<rscale>  2 0.50709316E+03</rscale>
<asrwt>0</asrwt>
<pdfrwt beam="1">  1       21 0.74370666E-01 0.50709316E+03</pdfrwt>
<pdfrwt beam="2">  1       21 0.13368069E+00 0.50709316E+03</pdfrwt>
<totfact> 0.53276962E+02</totfact>
</mgrwt>
</event>
<event>
 4    1  0.4716816E-002  0.7132353E+03  0.7818608E-02  0.9694862E-01
         21   -1    0    0  503  502  0.00000000000E+00  0.00000000000E+00  0.86335907403E+03  0.86335907403E+03  0.00000000000E+00 0.  1.
         21   -1    0    0  501  503 -0.00000000000E+00 -0.00000000000E+00 -0.59290794195E+03  0.59290794195E+03  0.00000000000E+00 0. -1.
    9000007    1    1    2  501    0 -0.26716588328E+03 -0.52661843468E+03  0.19268637541E+03  0.73880486206E+03  0.40000000000E+03 0. -1.
   -9000007    1    1    2    0  502  0.26716588328E+03  0.52661843468E+03  0.77764756660E+02  0.71746215392E+03  0.40000000000E+03 0.  1.
<mgrwt>
<rscale>  2 0.71323529E+03</rscale>
<asrwt>0</asrwt>
<pdfrwt beam="1">  1       21 0.13282447E+00 0.71323529E+03</pdfrwt>
<pdfrwt beam="2">  1       21 0.91216606E-01 0.71323529E+03</pdfrwt>
<totfact> 0.31326625E+02</totfact>
</mgrwt>
</event>
<event>
 4    1  0.4716816E-002  0.5165818E+03  0.7818608E-02  0.1009539E+00
         21   -1    0    0  503  502  0.00000000000E+00  0.00000000000E+00  0.21223215586E+03  0.21223215586E+03  0.00000000000E+00 0.  1.
         21   -1    0    0  501  503 -0.00000000000E+00 -0.00000000000E+00 -0.12609120261E+04  0.12609120261E+04  0.00000000000E+00 0.  1.
    9000007    1    1    2  501    0 -0.10152265036E+03 -0.31072483170E+03 -0.48536391577E+03  0.70882642466E+03  0.40000000000E+03 0.  1.
   -9000007    1    1    2    0  502  0.10152265036E+03  0.31072483170E+03 -0.56331595451E+03  0.76431775734E+03  0.40000000000E+03 0.  1.
<mgrwt>
<rscale>  2 0.51658181E+03</rscale>
<asrwt>0</asrwt>
<pdfrwt beam="1">  1       21 0.32651101E-01 0.51658181E+03</pdfrwt>
<pdfrwt beam="2">  1       21 0.19398646E+00 0.51658181E+03</pdfrwt>
<totfact> 0.10799013E+03</totfact>
</mgrwt>
</event>
<event>
 4    1  0.4716816E-002  0.4480566E+03  0.7818608E-02  0.1028303E+00
         21   -1    0    0  501  502  0.00000000000E+00  0.00000000000E+00  0.12715001921E+04  0.12715001921E+04  0.00000000000E+00 0.  1.
         21   -1    0    0  502  503 -0.00000000000E+00 -0.00000000000E+00 -0.18890753375E+03  0.18890753375E+03  0.00000000000E+00 0. -1.
    9000007    1    1    2  501    0 -0.16465672957E+03  0.11680262904E+03  0.83719071988E+03  0.94954883718E+03  0.40000000000E+03 0.  1.
   -9000007    1    1    2    0  503  0.16465672957E+03 -0.11680262904E+03  0.24540193851E+03  0.51085888870E+03  0.40000000000E+03 0.  1.
<mgrwt>
<rscale>  2 0.44805657E+03</rscale>
<asrwt>0</asrwt>
<pdfrwt beam="1">  1       21 0.19561541E+00 0.44805657E+03</pdfrwt>
<pdfrwt beam="2">  1       21 0.29062698E-01 0.44805657E+03</pdfrwt>
<totfact> 0.13665740E+03</totfact>
</mgrwt>
</event>
<event>
 4    1  0.4716816E-002  0.4138257E+03  0.7818608E-02  0.1039095E+00
         21   -1    0    0  503  502  0.00000000000E+00  0.00000000000E+00  0.10912010770E+04  0.10912010770E+04  0.00000000000E+00 0.  1.
         21   -1    0    0  501  503 -0.00000000000E+00 -0.00000000000E+00 -0.19636920041E+03  0.19636920041E+03  0.00000000000E+00 0.  1.
    9000007    1    1    2  501    0  0.97100734904E+02 -0.42698600434E+02  0.15893296881E+03  0.44329607687E+03  0.40000000000E+03 0.  1.
   -9000007    1    1    2    0  502 -0.97100734904E+02  0.42698600434E+02  0.73589890774E+03  0.84427420049E+03  0.40000000000E+03 0.  1.
<mgrwt>
<rscale>  2 0.41382572E+03</rscale>
<asrwt>0</asrwt>
<pdfrwt beam="1">  1       21 0.16787709E+00 0.41382572E+03</pdfrwt>
<pdfrwt beam="2">  1       21 0.30210647E-01 0.41382572E+03</pdfrwt>
<totfact> 0.20099748E+03</totfact>
</mgrwt>
</event>
<event>
 4    1  0.4716816E-002  0.4249867E+03  0.7818608E-02  0.1035455E+00
         21   -1    0    0  503  502  0.00000000000E+00  0.00000000000E+00  0.66409424225E+03  0.66409424225E+03  0.00000000000E+00 0. -1.
         21   -1    0    0  501  503 -0.00000000000E+00 -0.00000000000E+00 -0.27297550065E+03  0.27297550065E+03  0.00000000000E+00 0. -1.
    9000007    1    1    2  501    0 -0.32095996972E+02  0.13994129805E+03  0.16712337894E+03  0.45666611842E+03  0.40000000000E+03 0. -1.
   -9000007    1    1    2    0  502  0.32095996972E+02 -0.13994129805E+03  0.22399536266E+03  0.48040362448E+03  0.40000000000E+03 0. -1.
<mgrwt>
<rscale>  2 0.42498673E+03</rscale>
<asrwt>0</asrwt>
<pdfrwt beam="1">  1       21 0.10216834E+00 0.42498673E+03</pdfrwt>
<pdfrwt beam="2">  1       21 0.41996231E-01 0.42498673E+03</pdfrwt>
<totfact> 0.37493915E+03</totfact>
</mgrwt>
</event>
<event>
 4    1  0.4716816E-002  0.4179809E+03  0.7818608E-02  0.1037725E+00
         21   -1    0    0  503  502  0.00000000000E+00  0.00000000000E+00  0.18649096360E+03  0.18649096360E+03  0.00000000000E+00 0.  1.
         21   -1    0    0  501  503 -0.00000000000E+00 -0.00000000000E+00 -0.13331074715E+04  0.13331074715E+04  0.00000000000E+00 0.  1.
    9000007    1    1    2  501    0 -0.22847621668E+02  0.11910521428E+03 -0.98756787469E+03  0.10723797709E+04  0.40000000000E+03 0.  1.
   -9000007    1    1    2    0  502  0.22847621668E+02 -0.11910521428E+03 -0.15904863319E+03  0.44721866419E+03  0.40000000000E+03 0.  1.
<mgrwt>
<rscale>  2 0.41798094E+03</rscale>
<asrwt>0</asrwt>
<pdfrwt beam="1">  1       21 0.28690918E-01 0.41798094E+03</pdfrwt>
<pdfrwt beam="2">  1       21 0.20509345E+00 0.41798094E+03</pdfrwt>
<totfact> 0.12293202E+03</totfact>
</mgrwt>
</event>
<event>
 4    1  0.4716816E-002  0.4241487E+03  0.7818608E-02  0.1035724E+00
         21   -1    0    0  501  502  0.00000000000E+00  0.00000000000E+00  0.44502927411E+03  0.44502927411E+03  0.00000000000E+00 0. -1.
         21   -1    0    0  502  503 -0.00000000000E+00 -0.00000000000E+00 -0.52362737370E+03  0.52362737370E+03  0.00000000000E+00 0.  1.
    9000007    1    1    2  501    0 -0.37167326859E+02 -0.13609082099E+03  0.19195728598E+03  0.46556387465E+03  0.40000000000E+03 0. -1.
   -9000007    1    1    2    0  503  0.37167326859E+02  0.13609082099E+03 -0.27055538556E+03  0.50309277316E+03  0.40000000000E+03 0.  1.
<mgrwt>
<rscale>  2 0.42414870E+03</rscale>
<asrwt>0</asrwt>
<pdfrwt beam="1">  1       21 0.68466043E-01 0.42414870E+03</pdfrwt>
<pdfrwt beam="2">  1       21 0.80558057E-01 0.42414870E+03</pdfrwt>
<totfact> 0.23029941E+03</totfact>
</mgrwt>
</event>
<event>
 4    1  0.4716816E-002  0.4170531E+03  0.7818608E-02  0.1038030E+00
         21   -1    0    0  501  502  0.00000000000E+00  0.00000000000E+00  0.12170292522E+04  0.12170292522E+04  0.00000000000E+00 0. -1.
         21   -1    0    0  502  503 -0.00000000000E+00 -0.00000000000E+00 -0.14428243435E+03  0.14428243435E+03  0.00000000000E+00 0. -1.
    9000007    1    1    2  501    0 -0.17003829980E+02  0.11680832717E+03  0.47014141388E+03  0.62846341546E+03  0.40000000000E+03 0. -1.
   -9000007    1    1    2    0  503  0.17003829980E+02 -0.11680832717E+03  0.60260540397E+03  0.73284827108E+03  0.40000000000E+03 0. -1.
<mgrwt>
<rscale>  2 0.41705313E+03</rscale>
<asrwt>0</asrwt>
<pdfrwt beam="1">  1       21 0.18723526E+00 0.41705313E+03</pdfrwt>
<pdfrwt beam="2">  1       21 0.22197298E-01 0.41705313E+03</pdfrwt>
<totfact> 0.26705133E+03</totfact>
</mgrwt>
</event>
<event>
 4    1  0.4716816E-002  0.7031186E+03  0.7818608E-02  0.9711914E-01
         21   -1    0    0  501  502  0.00000000000E+00  0.00000000000E+00  0.81762462957E+03  0.81762462957E+03  0.00000000000E+00 0. -1.
         21   -1    0    0  502  503 -0.00000000000E+00 -0.00000000000E+00 -0.67776698869E+03  0.67776698869E+03  0.00000000000E+00 0. -1.
    9000007    1    1    2  501    0  0.48336799436E+03  0.31738164742E+03  0.31551138829E+03  0.77066410597E+03  0.40000000000E+03 0. -1.
   -9000007    1    1    2    0  503 -0.48336799436E+03 -0.31738164742E+03 -0.17565374740E+03  0.72472751229E+03  0.40000000000E+03 0. -1.
<mgrwt>
<rscale>  2 0.70311857E+03</rscale>
<asrwt>0</asrwt>
<pdfrwt beam="1">  1       21 0.12578840E+00 0.70311857E+03</pdfrwt>
<pdfrwt beam="2">  1       21 0.10427184E+00 0.70311857E+03</pdfrwt>
<totfact> 0.26145201E+02</totfact>
</mgrwt>
</event>
<event>
 4    1  0.4716816E-002  0.4398200E+03  0.7818608E-02  0.1030802E+00
         21   -1    0    0  503  502  0.00000000000E+00  0.00000000000E+00  0.51497468556E+03  0.51497468556E+03  0.00000000000E+00 0. -1.
         21   -1    0    0  501  503 -0.00000000000E+00 -0.00000000000E+00 -0.37885446110E+03  0.37885446110E+03  0.00000000000E+00 0. -1.
    9000007    1    1    2  501    0  0.14456111232E+03  0.11199872996E+03  0.10926946808E+03  0.45319029928E+03  0.40000000000E+03 0.  1.
   -9000007    1    1    2    0  502 -0.14456111232E+03 -0.11199872996E+03  0.26850756379E+02  0.44063884739E+03  0.40000000000E+03 0.  1.
<mgrwt>
<rscale>  2 0.43982000E+03</rscale>
<asrwt>0</asrwt>
<pdfrwt beam="1">  1       21 0.79226875E-01 0.43982000E+03</pdfrwt>
<pdfrwt beam="2">  1       21 0.58285301E-01 0.43982000E+03</pdfrwt>
<totfact> 0.33957323E+03</totfact>
</mgrwt>
</event>
<event>
 4    1  0.4716816E-002  0.4020366E+03  0.7818608E-02  0.1043077E+00
         21   -1    0    0  501  502  0.00000000000E+00  0.00000000000E+00  0.51412930565E+03  0.51412930565E+03  0.00000000000E+00 0.  1.
         21   -1    0    0  502  503 -0.00000000000E+00 -0.00000000000E+00 -0.33624752879E+03  0.33624752879E+03  0.00000000000E+00 0.  1.
    9000007    1    1    2  501    0 -0.23160079276E+02 -0.33121791765E+02 -0.19482583425E+02  0.40250840167E+03  0.40000000000E+03 0.  1.
   -9000007    1    1    2    0  503  0.23160079276E+02  0.33121791765E+02  0.19736436028E+03  0.44786843277E+03  0.40000000000E+03 0.  1.
<mgrwt>
<rscale>  2 0.40203662E+03</rscale>
<asrwt>0</asrwt>
<pdfrwt beam="1">  1       21 0.79096816E-01 0.40203662E+03</pdfrwt>
<pdfrwt beam="2">  1       21 0.51730389E-01 0.40203662E+03</pdfrwt>
<totfact> 0.44694147E+03</totfact>
</mgrwt>
</event>
<event>
 4    1  0.4716816E-002  0.4211714E+03  0.7818608E-02  0.1036686E+00
         21   -1    0    0  501  502  0.00000000000E+00  0.00000000000E+00  0.46609198154E+03  0.46609198154E+03  0.00000000000E+00 0.  1.
         21   -1    0    0  502  503 -0.00000000000E+00 -0.00000000000E+00 -0.67030075215E+03  0.67030075215E+03  0.00000000000E+00 0.  1.
    9000007    1    1    2  501    0 -0.65626624132E+02  0.11436117218E+03  0.27144956075E+03  0.50106905266E+03  0.40000000000E+03 0.  1.
   -9000007    1    1    2    0  503  0.65626624132E+02 -0.11436117218E+03 -0.47565833136E+03  0.63532368104E+03  0.40000000000E+03 0.  1.
<mgrwt>
<rscale>  2 0.42117138E+03</rscale>
<asrwt>0</asrwt>
<pdfrwt beam="1">  1       21 0.71706459E-01 0.42117138E+03</pdfrwt>
<pdfrwt beam="2">  1       21 0.10312319E+00 0.42117138E+03</pdfrwt>
<totfact> 0.11563442E+03</totfact>
</mgrwt>
</event>
<event>
 4    1  0.4716816E-002  0.5743214E+03  0.7818608E-02  0.9960161E-01
         21   -1    0    0  501  502  0.00000000000E+00  0.00000000000E+00  0.83259713367E+03  0.83259713367E+03  0.00000000000E+00 0. -1.
         21   -1    0    0  502  503 -0.00000000000E+00 -0.00000000000E+00 -0.66345704319E+03  0.66345704319E+03  0.00000000000E+00 0.  1.
    9000007    1    1    2  501    0  0.28127100451E+03 -0.30121700033E+03  0.55936347602E+03  0.80170602940E+03  0.40000000000E+03 0. -1.
   -9000007    1    1    2    0  503 -0.28127100451E+03  0.30121700033E+03 -0.39022338554E+03  0.69434814746E+03  0.40000000000E+03 0.  1.
<mgrwt>
<rscale>  2 0.57432139E+03</rscale>
<asrwt>0</asrwt>
<pdfrwt beam="1">  1       21 0.12809187E+00 0.57432139E+03</pdfrwt>
<pdfrwt beam="2">  1       21 0.10207032E+00 0.57432139E+03</pdfrwt>
<totfact> 0.27450556E+02</totfact>
</mgrwt>
</event>
<event>
 4    1  0.4716816E-002  0.4006125E+03  0.7818608E-02  0.1043568E+00
         21   -1    0    0  501  502  0.00000000000E+00  0.00000000000E+00  0.51332800008E+03  0.51332800008E+03  0.00000000000E+00 0. -1.
         21   -1    0    0  502  503 -0.00000000000E+00 -0.00000000000E+00 -0.41504436089E+03  0.41504436089E+03  0.00000000000E+00 0. -1.
    9000007    1    1    2  501    0  0.17040608935E+02  0.14143039508E+02  0.27970478103E+03  0.48859510072E+03  0.40000000000E+03 0. -1.
   -9000007    1    1    2    0  503 -0.17040608935E+02 -0.14143039508E+02 -0.18142114185E+03  0.43977726024E+03  0.40000000000E+03 0. -1.
<mgrwt>
<rscale>  2 0.40061254E+03</rscale>
<asrwt>0</asrwt>
<pdfrwt beam="1">  1       21 0.78973539E-01 0.40061254E+03</pdfrwt>
<pdfrwt beam="2">  1       21 0.63852979E-01 0.40061254E+03</pdfrwt>
<totfact> 0.28419856E+03</totfact>
</mgrwt>
</event>
<event>
 4    1  0.4716816E-002  0.4356163E+03  0.7818608E-02  0.1032100E+00
         21   -1    0    0  503  502  0.00000000000E+00  0.00000000000E+00  0.43235001201E+03  0.43235001201E+03  0.00000000000E+00 0. -1.
         21   -1    0    0  501  503 -0.00000000000E+00 -0.00000000000E+00 -0.11179665993E+04  0.11179665993E+04  0.00000000000E+00 0. -1.
    9000007    1    1    2  501    0 -0.17228306758E+03  0.89511021656E+01 -0.94693751122E+03  0.10423301913E+04  0.40000000000E+03 0. -1.
   -9000007    1    1    2    0  502  0.17228306758E+03 -0.89511021656E+01  0.26132092392E+03  0.50798641998E+03  0.40000000000E+03 0. -1.
<mgrwt>
<rscale>  2 0.43561632E+03</rscale>
<asrwt>0</asrwt>
<pdfrwt beam="1">  1       21 0.66515388E-01 0.43561632E+03</pdfrwt>
<pdfrwt beam="2">  1       21 0.17199486E+00 0.43561632E+03</pdfrwt>
<totfact> 0.35514517E+02</totfact>
</mgrwt>
</event>
<event>
 4    1  0.4716816E-002  0.5590288E+03  0.7818608E-02  0.9994254E-01
         21   -1    0    0  503  502  0.00000000000E+00  0.00000000000E+00  0.28954546472E+04  0.28954546472E+04  0.00000000000E+00 0.  1.
         21   -1    0    0  501  503 -0.00000000000E+00 -0.00000000000E+00 -0.32802408680E+03  0.32802408680E+03  0.00000000000E+00 0.  1.
    9000007    1    1    2  501    0 -0.19457363006E+03 -0.33860649235E+03 -0.36497111631E+02  0.56021896909E+03  0.40000000000E+03 0.  1.
   -9000007    1    1    2    0  502  0.19457363006E+03  0.33860649235E+03  0.26039276720E+04  0.26632597649E+04  0.40000000000E+03 0.  1.
<mgrwt>
<rscale>  2 0.55902885E+03</rscale>
<asrwt>0</asrwt>
<pdfrwt beam="1">  1       21 0.44545454E+00 0.55902885E+03</pdfrwt>
<pdfrwt beam="2">  1       21 0.50465246E-01 0.55902885E+03</pdfrwt>
<totfact> 0.11087619E+01</totfact>
</mgrwt>
</event>
<event>
 4    1  0.4716816E-002  0.4155784E+03  0.7818608E-02  0.1038515E+00
         21   -1    0    0  501  502  0.00000000000E+00  0.00000000000E+00  0.66012105604E+03  0.66012105604E+03  0.00000000000E+00 0.  1.
         21   -1    0    0  502  503 -0.00000000000E+00 -0.00000000000E+00 -0.26186127178E+03  0.26186127178E+03  0.00000000000E+00 0. -1.
    9000007    1    1    2  501    0 -0.10867284771E+03  0.29927463299E+02  0.21292064724E+03  0.46694822294E+03  0.40000000000E+03 0.  1.
   -9000007    1    1    2    0  503  0.10867284771E+03 -0.29927463299E+02  0.18533913702E+03  0.45503410488E+03  0.40000000000E+03 0. -1.
<mgrwt>
<rscale>  2 0.41557844E+03</rscale>
<asrwt>0</asrwt>
<pdfrwt beam="1">  1       21 0.10155708E+00 0.41557844E+03</pdfrwt>
<pdfrwt beam="2">  1       21 0.40286350E-01 0.41557844E+03</pdfrwt>
<totfact> 0.41602476E+03</totfact>
</mgrwt>
</event>
<event>
 4    1  0.4716816E-002  0.5083175E+03  0.7818608E-02  0.1011630E+00
         21   -1    0    0  503  502  0.00000000000E+00  0.00000000000E+00  0.81071047071E+03  0.81071047071E+03  0.00000000000E+00 0.  1.
         21   -1    0    0  501  503 -0.00000000000E+00 -0.00000000000E+00 -0.35337187532E+03  0.35337187532E+03  0.00000000000E+00 0. -1.
    9000007    1    1    2  501    0  0.31896009511E+02 -0.31204055461E+03  0.41094303846E+03  0.65365192878E+03  0.40000000000E+03 0.  1.
   -9000007    1    1    2    0  502 -0.31896009511E+02  0.31204055461E+03  0.46395556933E+02  0.51043041725E+03  0.40000000000E+03 0. -1.
<mgrwt>
<rscale>  2 0.50831748E+03</rscale>
<asrwt>0</asrwt>
<pdfrwt beam="1">  1       21 0.12472469E+00 0.50831748E+03</pdfrwt>
<pdfrwt beam="2">  1       21 0.54364904E-01 0.50831748E+03</pdfrwt>
<totfact> 0.12788750E+03</totfact>
</mgrwt>
</event>
<event>
 4    1  0.4716816E-002  0.4697913E+03  0.7818608E-02  0.1021979E+00
         21   -1    0    0  503  502  0.00000000000E+00  0.00000000000E+00  0.10591776064E+04  0.10591776064E+04  0.00000000000E+00 0. -1.
         21   -1    0    0  501  503 -0.00000000000E+00 -0.00000000000E+00 -0.30391601609E+03  0.30391601609E+03  0.00000000000E+00 0.  1.
    9000007    1    1    2  501    0 -0.16799691810E+03 -0.18022453218E+03 -0.45058902393E+01  0.46981288779E+03  0.40000000000E+03 0.  1.
   -9000007    1    1    2    0  502  0.16799691810E+03  0.18022453218E+03  0.75976748059E+03  0.89328073474E+03  0.40000000000E+03 0. -1.
<mgrwt>
<rscale>  2 0.46979128E+03</rscale>
<asrwt>0</asrwt>
<pdfrwt beam="1">  1       21 0.16295040E+00 0.46979128E+03</pdfrwt>
<pdfrwt beam="2">  1       21 0.46756311E-01 0.46979128E+03</pdfrwt>
<totfact> 0.87402299E+02</totfact>
</mgrwt>
</event>
<event>
 4    1  0.4716816E-002  0.5671403E+03  0.7818608E-02  0.9976027E-01
         21   -1    0    0  501  502  0.00000000000E+00  0.00000000000E+00  0.13827749976E+03  0.13827749976E+03  0.00000000000E+00 0.  1.
         21   -1    0    0  502  503 -0.00000000000E+00 -0.00000000000E+00 -0.23996480693E+04  0.23996480693E+04  0.00000000000E+00 0. -1.
    9000007    1    1    2  501    0  0.23296857058E+03  0.32767928245E+03 -0.90853636653E+03  0.10710211932E+04  0.40000000000E+03 0.  1.
   -9000007    1    1    2    0  503 -0.23296857058E+03 -0.32767928245E+03 -0.13528342030E+04  0.14669043759E+04  0.40000000000E+03 0.  1.
<mgrwt>
<rscale>  2 0.56714025E+03</rscale>
<asrwt>0</asrwt>
<pdfrwt beam="1">  1       21 0.21273463E-01 0.56714025E+03</pdfrwt>
<pdfrwt beam="2">  1       21 0.36917661E+00 0.56714025E+03</pdfrwt>
<totfact> 0.19863615E+02</totfact>
</mgrwt>
</event>
<event>
 4    1  0.4716816E-002  0.4013500E+03  0.7818608E-02  0.1043313E+00
         21   -1    0    0  503  502  0.00000000000E+00  0.00000000000E+00  0.15231072832E+04  0.15231072832E+04  0.00000000000E+00 0. -1.
         21   -1    0    0  501  503 -0.00000000000E+00 -0.00000000000E+00 -0.23835653131E+03  0.23835653131E+03  0.00000000000E+00 0. -1.
    9000007    1    1    2  501    0  0.31708710380E+02 -0.87412992332E+01 -0.14523328882E+02  0.40161272354E+03  0.40000000000E+03 0.  1.
   -9000007    1    1    2    0  502 -0.31708710380E+02  0.87412992332E+01  0.12992740808E+04  0.13598510909E+04  0.40000000000E+03 0.  1.
<mgrwt>
<rscale>  2 0.40135004E+03</rscale>
<asrwt>0</asrwt>
<pdfrwt beam="1">  1       21 0.23432419E+00 0.40135004E+03</pdfrwt>
<pdfrwt beam="2">  1       21 0.36670236E-01 0.40135004E+03</pdfrwt>
<totfact> 0.49404999E+02</totfact>
</mgrwt>
</event>
<event>
 4    1  0.4716816E-002  0.5634546E+03  0.7818608E-02  0.9984268E-01
         21   -1    0    0  501  502  0.00000000000E+00  0.00000000000E+00  0.18736585252E+04  0.18736585252E+04  0.00000000000E+00 0. -1.
         21   -1    0    0  502  503 -0.00000000000E+00 -0.00000000000E+00 -0.19218499903E+03  0.19218499903E+03  0.00000000000E+00 0. -1.
    9000007    1    1    2  501    0 -0.29551535962E+03 -0.26486177033E+03  0.11960471622E+04  0.13221232542E+04  0.40000000000E+03 0. -1.
   -9000007    1    1    2    0  503  0.29551535962E+03  0.26486177033E+03  0.48542636390E+03  0.74372026994E+03  0.40000000000E+03 0. -1.
<mgrwt>
<rscale>  2 0.56345460E+03</rscale>
<asrwt>0</asrwt>
<pdfrwt beam="1">  1       21 0.28825515E+00 0.56345460E+03</pdfrwt>
<pdfrwt beam="2">  1       21 0.29566924E-01 0.56345460E+03</pdfrwt>
<totfact> 0.32796269E+02</totfact>
</mgrwt>
</event>
<event>
 4    1  0.4716816E-002  0.5303118E+03  0.7818608E-02  0.1006157E+00
         21   -1    0    0  503  502  0.00000000000E+00  0.00000000000E+00  0.53396203739E+03  0.53396203739E+03  0.00000000000E+00 0. -1.
         21   -1    0    0  501  503 -0.00000000000E+00 -0.00000000000E+00 -0.66460964179E+03  0.66460964179E+03  0.00000000000E+00 0. -1.
    9000007    1    1    2  501    0  0.34124106504E+03 -0.69174564878E+02 -0.33832798588E+03  0.62904404530E+03  0.40000000000E+03 0. -1.
   -9000007    1    1    2    0  502 -0.34124106504E+03  0.69174564878E+02  0.20768038148E+03  0.56952763388E+03  0.40000000000E+03 0. -1.
<mgrwt>
<rscale>  2 0.53031178E+03</rscale>
<asrwt>0</asrwt>
<pdfrwt beam="1">  1       21 0.82148006E-01 0.53031178E+03</pdfrwt>
<pdfrwt beam="2">  1       21 0.10224764E+00 0.53031178E+03</pdfrwt>
<totfact> 0.82821612E+02</totfact>
</mgrwt>
</event>
<event>
 4    1  0.4716816E-002  0.4146546E+03  0.7818608E-02  0.1038820E+00
         21   -1    0    0  503  502  0.00000000000E+00  0.00000000000E+00  0.28727836268E+03  0.28727836268E+03  0.00000000000E+00 0. -1.
         21   -1    0    0  501  503 -0.00000000000E+00 -0.00000000000E+00 -0.59854516315E+03  0.59854516315E+03  0.00000000000E+00 0. -1.
    9000007    1    1    2  501    0 -0.10036088290E+03  0.43198479280E+02 -0.15214620553E+03  0.44168640831E+03  0.40000000000E+03 0. -1.
   -9000007    1    1    2    0  502  0.10036088290E+03 -0.43198479280E+02 -0.15912059494E+03  0.44413711752E+03  0.40000000000E+03 0. -1.
<mgrwt>
<rscale>  2 0.41465457E+03</rscale>
<asrwt>0</asrwt>
<pdfrwt beam="1">  1       21 0.44196672E-01 0.41465457E+03</pdfrwt>
<pdfrwt beam="2">  1       21 0.92083870E-01 0.41465457E+03</pdfrwt>
<totfact> 0.43461164E+03</totfact>
</mgrwt>
</event>
<event>
 4    1  0.4716816E-002  0.6391049E+03  0.7818608E-02  0.9827441E-01
         21   -1    0    0  503  502  0.00000000000E+00  0.00000000000E+00  0.23111765250E+03  0.23111765250E+03  0.00000000000E+00 0.  1.
         21   -1    0    0  501  503 -0.00000000000E+00 -0.00000000000E+00 -0.18286551785E+04  0.18286551785E+04  0.00000000000E+00 0. -1.
    9000007    1    1    2  501    0  0.49390727877E+03  0.67161631524E+02 -0.98740968032E+03  0.11761942703E+04  0.40000000000E+03 0.  1.
   -9000007    1    1    2    0  502 -0.49390727877E+03 -0.67161631524E+02 -0.61012784563E+03  0.88357856062E+03  0.40000000000E+03 0. -1.
<mgrwt>
<rscale>  2 0.63910491E+03</rscale>
<asrwt>0</asrwt>
<pdfrwt beam="1">  1       21 0.35556560E-01 0.63910491E+03</pdfrwt>
<pdfrwt beam="2">  1       21 0.28133158E+00 0.63910491E+03</pdfrwt>
<totfact> 0.24128767E+02</totfact>
</mgrwt>
</event>
<event>
 4    1  0.4716816E-002  0.4723921E+03  0.7818608E-02  0.1021247E+00
         21   -1    0    0  501  502  0.00000000000E+00  0.00000000000E+00  0.14136261264E+04  0.14136261264E+04  0.00000000000E+00 0.  1.
         21   -1    0    0  502  503 -0.00000000000E+00 -0.00000000000E+00 -0.52667555429E+03  0.52667555429E+03  0.00000000000E+00 0. -1.
    9000007    1    1    2  501    0 -0.24861049870E+03 -0.36702573652E+02  0.12553193416E+04  0.13412609397E+04  0.40000000000E+03 0.  1.
   -9000007    1    1    2    0  503  0.24861049870E+03  0.36702573652E+02 -0.36836876951E+03  0.59904074096E+03  0.40000000000E+03 0. -1.
<mgrwt>
<rscale>  2 0.47239206E+03</rscale>
<asrwt>0</asrwt>
<pdfrwt beam="1">  1       21 0.21748094E+00 0.47239206E+03</pdfrwt>
<pdfrwt beam="2">  1       21 0.81027009E-01 0.47239206E+03</pdfrwt>
<totfact> 0.10927046E+02</totfact>
</mgrwt>
</event>
<event>
 4    1  0.4716816E-002  0.4873574E+03  0.7818608E-02  0.1017133E+00
         21   -1    0    0  503  502  0.00000000000E+00  0.00000000000E+00  0.47450565082E+03  0.47450565082E+03  0.00000000000E+00 0.  1.
         21   -1    0    0  501  503 -0.00000000000E+00 -0.00000000000E+00 -0.53078655196E+03  0.53078655196E+03  0.00000000000E+00 0. -1.
    9000007    1    1    2  501    0  0.68933306854E+02 -0.26975062204E+03 -0.14809510405E+03  0.50936171698E+03  0.40000000000E+03 0. -1.
   -9000007    1    1    2    0  502 -0.68933306854E+02  0.26975062204E+03  0.91814202906E+02  0.49593048580E+03  0.40000000000E+03 0.  1.
<mgrwt>
<rscale>  2 0.48735736E+03</rscale>
<asrwt>0</asrwt>
<pdfrwt beam="1">  1       21 0.73000869E-01 0.48735736E+03</pdfrwt>
<pdfrwt beam="2">  1       21 0.81659470E-01 0.48735736E+03</pdfrwt>
<totfact> 0.18864484E+03</totfact>
</mgrwt>
</event>
<event>
 4    1  0.4716816E-002  0.5792932E+03  0.7818608E-02  0.9949322E-01
         21   -1    0    0  501  502  0.00000000000E+00  0.00000000000E+00  0.55026527197E+03  0.55026527197E+03  0.00000000000E+00 0.  1.
         21   -1    0    0  502  503 -0.00000000000E+00 -0.00000000000E+00 -0.61366357247E+03  0.61366357247E+03  0.00000000000E+00 0. -1.
    9000007    1    1    2  501    0 -0.28135806293E+03  0.31051292987E+03  0.14163185583E+02  0.57946633640E+03  0.40000000000E+03 0.  1.
   -9000007    1    1    2    0  503  0.28135806293E+03 -0.31051292987E+03 -0.77561486080E+02  0.58446250805E+03  0.40000000000E+03 0.  1.
<mgrwt>
<rscale>  2 0.57929322E+03</rscale>
<asrwt>0</asrwt>
<pdfrwt beam="1">  1       21 0.84656196E-01 0.57929322E+03</pdfrwt>
<pdfrwt beam="2">  1       21 0.94409780E-01 0.57929322E+03</pdfrwt>
<totfact> 0.92179214E+02</totfact>
</mgrwt>
</event>
<event>
 4    1  0.4716816E-002  0.5992420E+03  0.7818608E-02  0.9906980E-01
         21   -1    0    0  503  502  0.00000000000E+00  0.00000000000E+00  0.88389701519E+03  0.88389701519E+03  0.00000000000E+00 0.  1.
         21   -1    0    0  501  503 -0.00000000000E+00 -0.00000000000E+00 -0.41612633393E+03  0.41612633393E+03  0.00000000000E+00 0.  1.
    9000007    1    1    2  501    0  0.40749007020E+03  0.18177668981E+03  0.13379012254E+03  0.61399569963E+03  0.40000000000E+03 0.  1.
   -9000007    1    1    2    0  502 -0.40749007020E+03 -0.18177668981E+03  0.33398055872E+03  0.68602764950E+03  0.40000000000E+03 0.  1.
<mgrwt>
<rscale>  2 0.59924196E+03</rscale>
<asrwt>0</asrwt>
<pdfrwt beam="1">  1       21 0.13598416E+00 0.59924196E+03</pdfrwt>
<pdfrwt beam="2">  1       21 0.64019436E-01 0.59924196E+03</pdfrwt>
<totfact> 0.69107965E+02</totfact>
</mgrwt>
</event>
<event>
 4    1  0.4716816E-002  0.4328077E+03  0.7818608E-02  0.1032977E+00
         21   -1    0    0  503  502  0.00000000000E+00  0.00000000000E+00  0.13023898701E+04  0.13023898701E+04  0.00000000000E+00 0. -1.
         21   -1    0    0  501  503 -0.00000000000E+00 -0.00000000000E+00 -0.22088196882E+03  0.22088196882E+03  0.00000000000E+00 0. -1.
    9000007    1    1    2  501    0  0.14456948536E+03 -0.80138609056E+02  0.90912373636E+02  0.44225286029E+03  0.40000000000E+03 0. -1.
   -9000007    1    1    2    0  502 -0.14456948536E+03  0.80138609056E+02  0.99059552760E+03  0.10810189786E+04  0.40000000000E+03 0. -1.
<mgrwt>
<rscale>  2 0.43280773E+03</rscale>
<asrwt>0</asrwt>
<pdfrwt beam="1">  1       21 0.20036767E+00 0.43280773E+03</pdfrwt>
<pdfrwt beam="2">  1       21 0.33981842E-01 0.43280773E+03</pdfrwt>
<totfact> 0.93591191E+02</totfact>
</mgrwt>
</event>
<event>
 4    1  0.4716816E-002  0.5539428E+03  0.7818608E-02  0.1000585E+00
         21   -1    0    0  501  502  0.00000000000E+00  0.00000000000E+00  0.27603518460E+03  0.27603518460E+03  0.00000000000E+00 0.  1.
         21   -1    0    0  502  503 -0.00000000000E+00 -0.00000000000E+00 -0.15870922200E+04  0.15870922200E+04  0.00000000000E+00 0.  1.
    9000007    1    1    2  501    0  0.22212454764E+03 -0.31227114454E+03 -0.14565372266E+03  0.57277184751E+03  0.40000000000E+03 0.  1.
   -9000007    1    1    2    0  503 -0.22212454764E+03  0.31227114454E+03 -0.11654033128E+04  0.12903555571E+04  0.40000000000E+03 0.  1.
<mgrwt>
<rscale>  2 0.55394276E+03</rscale>
<asrwt>0</asrwt>
<pdfrwt beam="1">  1       21 0.42466951E-01 0.55394276E+03</pdfrwt>
<pdfrwt beam="2">  1       21 0.24416804E+00 0.55394276E+03</pdfrwt>
<totfact> 0.29366072E+02</totfact>
</mgrwt>
</event>
<event>
 4    1  0.4716816E-002  0.4294771E+03  0.7818608E-02  0.1034025E+00
         21   -1    0    0  501  502  0.00000000000E+00  0.00000000000E+00  0.58529996975E+03  0.58529996975E+03  0.00000000000E+00 0.  1.
         21   -1    0    0  502  503 -0.00000000000E+00 -0.00000000000E+00 -0.35701501866E+03  0.35701501866E+03  0.00000000000E+00 0.  1.
    9000007    1    1    2  501    0  0.10644090028E+03 -0.11454648230E+03  0.27550700666E+03  0.51024961791E+03  0.40000000000E+03 0. -1.
   -9000007    1    1    2    0  503 -0.10644090028E+03  0.11454648230E+03 -0.47222055570E+02  0.43206537051E+03  0.40000000000E+03 0. -1.
<mgrwt>
<rscale>  2 0.42947708E+03</rscale>
<asrwt>0</asrwt>
<pdfrwt beam="1">  1       21 0.90046149E-01 0.42947708E+03</pdfrwt>
<pdfrwt beam="2">  1       21 0.54925388E-01 0.42947708E+03</pdfrwt>
<totfact> 0.28751844E+03</totfact>
</mgrwt>
</event>
<event>
 4    1  0.4716816E-002  0.4250957E+03  0.7818608E-02  0.1035420E+00
         21   -1    0    0  501  502  0.00000000000E+00  0.00000000000E+00  0.52481149748E+03  0.52481149748E+03  0.00000000000E+00 0.  1.
         21   -1    0    0  502  503 -0.00000000000E+00 -0.00000000000E+00 -0.34435511877E+03  0.34435511877E+03  0.00000000000E+00 0.  1.
    9000007    1    1    2  501    0  0.14279404229E+03  0.17782186581E+02  0.94211245786E+02  0.43541027033E+03  0.40000000000E+03 0.  1.
   -9000007    1    1    2    0  503 -0.14279404229E+03 -0.17782186581E+02  0.86245132927E+02  0.43375634592E+03  0.40000000000E+03 0.  1.
<mgrwt>
<rscale>  2 0.42509569E+03</rscale>
<asrwt>0</asrwt>
<pdfrwt beam="1">  1       21 0.80740231E-01 0.42509569E+03</pdfrwt>
<pdfrwt beam="2">  1       21 0.52977710E-01 0.42509569E+03</pdfrwt>
<totfact> 0.40165493E+03</totfact>
</mgrwt>
</event>
<event>
 4    1  0.4716816E-002  0.5080869E+03  0.7818608E-02  0.1011689E+00
         21   -1    0    0  503  502  0.00000000000E+00  0.00000000000E+00  0.66466245686E+03  0.66466245686E+03  0.00000000000E+00 0.  1.
         21   -1    0    0  501  503 -0.00000000000E+00 -0.00000000000E+00 -0.41961065474E+03  0.41961065474E+03  0.00000000000E+00 0.  1.
    9000007    1    1    2  501    0 -0.11279013176E+03 -0.29228525081E+03  0.27039051927E+03  0.57555478851E+03  0.40000000000E+03 0.  1.
   -9000007    1    1    2    0  502  0.11279013176E+03  0.29228525081E+03 -0.25338717150E+02  0.50871832309E+03  0.40000000000E+03 0.  1.
<mgrwt>
<rscale>  2 0.50808688E+03</rscale>
<asrwt>0</asrwt>
<pdfrwt beam="1">  1       21 0.10225576E+00 0.50808688E+03</pdfrwt>
<pdfrwt beam="2">  1       21 0.64555485E-01 0.50808688E+03</pdfrwt>
<totfact> 0.14445140E+03</totfact>
</mgrwt>
</event>
<event>
 4    1  0.4716816E-002  0.4504025E+03  0.7818608E-02  0.1027602E+00
         21   -1    0    0  503  502  0.00000000000E+00  0.00000000000E+00  0.14861090105E+04  0.14861090105E+04  0.00000000000E+00 0.  1.
         21   -1    0    0  501  503 -0.00000000000E+00 -0.00000000000E+00 -0.16431089524E+03  0.16431089524E+03  0.00000000000E+00 0. -1.
    9000007    1    1    2  501    0 -0.11541469527E+03 -0.17187734945E+03  0.10003633691E+04  0.10970821507E+04  0.40000000000E+03 0.  1.
   -9000007    1    1    2    0  502  0.11541469527E+03  0.17187734945E+03  0.32143474622E+03  0.55333775509E+03  0.40000000000E+03 0. -1.
<mgrwt>
<rscale>  2 0.45040246E+03</rscale>
<asrwt>0</asrwt>
<pdfrwt beam="1">  1       21 0.22863215E+00 0.45040246E+03</pdfrwt>
<pdfrwt beam="2">  1       21 0.25278600E-01 0.45040246E+03</pdfrwt>
<totfact> 0.10951243E+03</totfact>
</mgrwt>
</event>
<event>
 4    1  0.4716816E-002  0.4040921E+03  0.7818608E-02  0.1042372E+00
         21   -1    0    0  501  502  0.00000000000E+00  0.00000000000E+00  0.28963049933E+03  0.28963049933E+03  0.00000000000E+00 0.  1.
         21   -1    0    0  502  503 -0.00000000000E+00 -0.00000000000E+00 -0.64326224014E+03  0.64326224014E+03  0.00000000000E+00 0.  1.
    9000007    1    1    2  501    0 -0.42368317061E+02  0.38669590374E+02 -0.12863052902E+02  0.40429675937E+03  0.40000000000E+03 0.  1.
   -9000007    1    1    2    0  503  0.42368317061E+02 -0.38669590374E+02 -0.34076868791E+03  0.52859598009E+03  0.40000000000E+03 0.  1.
<mgrwt>
<rscale>  2 0.40409208E+03</rscale>
<asrwt>0</asrwt>
<pdfrwt beam="1">  1       21 0.44558538E-01 0.40409208E+03</pdfrwt>
<pdfrwt beam="2">  1       21 0.98963421E-01 0.40409208E+03</pdfrwt>
<totfact> 0.36104038E+03</totfact>
</mgrwt>
</event>
<event>
 4    1  0.4716816E-002  0.4407025E+03  0.7818608E-02  0.1030531E+00
         21   -1    0    0  503  502  0.00000000000E+00  0.00000000000E+00  0.24099130709E+03  0.24099130709E+03  0.00000000000E+00 0.  1.
         21   -1    0    0  501  503 -0.00000000000E+00 -0.00000000000E+00 -0.86584283065E+03  0.86584283065E+03  0.00000000000E+00 0.  1.
    9000007    1    1    2  501    0  0.13501724742E+03  0.12644786639E+03 -0.16683154429E+03  0.47122339096E+03  0.40000000000E+03 0. -1.
   -9000007    1    1    2    0  502 -0.13501724742E+03 -0.12644786639E+03 -0.45801997927E+03  0.63561074678E+03  0.40000000000E+03 0. -1.
<mgrwt>
<rscale>  2 0.44070253E+03</rscale>
<asrwt>0</asrwt>
<pdfrwt beam="1">  1       21 0.37075586E-01 0.44070253E+03</pdfrwt>
<pdfrwt beam="2">  1       21 0.13320659E+00 0.44070253E+03</pdfrwt>
<totfact> 0.24675706E+03</totfact>
</mgrwt>
</event>
