<event>
 6    1  0.9022793E-004  0.1195112E+04  0.7818608E-02  0.9117146E-01
          2   -1    0    0  502    0  0.00000000000E+00  0.00000000000E+00  0.13881115268E+04  0.13881115268E+04  0.00000000000E+00 0.  1.
         -2   -1    0    0    0  501 -0.00000000000E+00 -0.00000000000E+00 -0.11744181302E+04  0.11744181302E+04  0.00000000000E+00 0. -1.
    9000007    2    1    2  502    0  0.27979119962E+03  0.10912047145E+04  0.55776130131E+03  0.13185869061E+04  0.39819959256E+03 0.  0.
    9000005    1    3    3    0    0 -0.87042722366E+02  0.32440505299E+03  0.87257942986E+02  0.34703029051E+03  0.99999687468E+00 0.  0.
          4    1    3    3  502    0  0.36683392199E+03  0.76679966150E+03  0.47050335832E+03  0.97155661564E+03  0.00000000000E+00 0.  1.
   -9000007    1    1    2    0  501 -0.27979119962E+03 -0.10912047145E+04 -0.34406790470E+03  0.12439427508E+04  0.40000000000E+03 0. -1.
<mgrwt>
<rscale>  2 0.11951118E+04</rscale>
<asrwt>0</asrwt>
<pdfrwt beam="1">  1        2 0.21355562E+00 0.11951118E+04</pdfrwt>
<pdfrwt beam="2">  1       -2 0.18067971E+00 0.11951118E+04</pdfrwt>
<totfact> 0.25604992E+00</totfact>
</mgrwt>
</event>
<event>
 6    1  0.9022793E-004  0.4051300E+03  0.7818608E-02  0.1042018E+00
          2   -1    0    0  502    0  0.00000000000E+00  0.00000000000E+00  0.22840916454E+03  0.22840916454E+03  0.00000000000E+00 0. -1.
         -2   -1    0    0    0  501 -0.00000000000E+00 -0.00000000000E+00 -0.83564715916E+03  0.83564715916E+03  0.00000000000E+00 0.  1.
    9000007    2    1    2  502    0 -0.64331753990E+01 -0.38695489729E+02 -0.10660923903E+03  0.42205330377E+03  0.40647845540E+03 0.  0.
    9000005    1    3    3    0    0  0.98695092979E+02 -0.11790034607E+03 -0.20604306789E+03  0.25709134330E+03  0.99999687468E+00 0.  0.
          4    1    3    3  502    0 -0.10512826838E+03  0.79204856340E+02  0.99433828859E+02  0.16496196047E+03  0.00000000000E+00 0.  1.
   -9000007    1    1    2    0  501  0.64331753990E+01  0.38695489729E+02 -0.50062875559E+03  0.64200301993E+03  0.40000000000E+03 0.  1.
<mgrwt>
<rscale>  2 0.40512999E+03</rscale>
<asrwt>0</asrwt>
<pdfrwt beam="1">  1        2 0.35139871E-01 0.40512999E+03</pdfrwt>
<pdfrwt beam="2">  1       -2 0.12856110E+00 0.40512999E+03</pdfrwt>
<totfact> 0.68656325E+01</totfact>
</mgrwt>
</event>
<event>
 6    1  0.9022793E-004  0.4048905E+03  0.7818608E-02  0.1042099E+00
         -1   -1    0    0    0  501 -0.00000000000E+00  0.00000000000E+00  0.22436472238E+03  0.22436472238E+03  0.00000000000E+00 0. -1.
          1   -1    0    0  502    0  0.00000000000E+00 -0.00000000000E+00 -0.74184622651E+03  0.74184622651E+03  0.00000000000E+00 0.  1.
    9000007    2    1    2  502    0  0.57868785180E+02 -0.39121277652E+01 -0.19989216253E+03  0.45218070566E+03  0.40143045835E+03 0.  0.
    9000005    1    3    3    0    0 -0.34707002924E+02  0.18705484740E+03 -0.66599698358E+02  0.20157036440E+03  0.99999687468E+00 0.  0.
          4    1    3    3  502    0  0.92575788104E+02 -0.19096697516E+03 -0.13329246417E+03  0.25061034127E+03  0.00000000000E+00 0.  1.
   -9000007    1    1    2    0  501 -0.57868785180E+02  0.39121277652E+01 -0.31758934161E+03  0.51403024322E+03  0.40000000000E+03 0.  1.
<mgrwt>
<rscale>  2 0.40489049E+03</rscale>
<asrwt>0</asrwt>
<pdfrwt beam="1">  1        1 0.11413019E+00 0.40489049E+03</pdfrwt>
<pdfrwt beam="2">  1       -1 0.34517649E-01 0.40489049E+03</pdfrwt>
<totfact> 0.20598308E+02</totfact>
</mgrwt>
</event>
<event>
 6    1  0.9022793E-004  0.4232539E+03  0.7818608E-02  0.1036012E+00
          1   -1    0    0  502    0  0.00000000000E+00  0.00000000000E+00  0.36953338334E+03  0.36953338334E+03  0.00000000000E+00 0.  1.
         -1   -1    0    0    0  501 -0.00000000000E+00 -0.00000000000E+00 -0.68919805547E+03  0.68919805547E+03  0.00000000000E+00 0. -1.
    9000007    2    1    2  502    0  0.73249886825E+02 -0.11873778689E+03 -0.44802790407E+03  0.61607883544E+03  0.39919909906E+03 0.  0.
    9000005    1    3    3    0    0  0.14508363121E+03 -0.24085743989E+03 -0.29545319210E+03  0.40786658984E+03  0.99999687468E+00 0.  0.
          4    1    3    3  502    0 -0.71833744390E+02  0.12211965300E+03 -0.15257471198E+03  0.20821224560E+03  0.00000000000E+00 0.  1.
   -9000007    1    1    2    0  501 -0.73249886825E+02  0.11873778689E+03  0.12836323194E+03  0.44265260337E+03  0.40000000000E+03 0.  1.
<mgrwt>
<rscale>  2 0.42325392E+03</rscale>
<asrwt>0</asrwt>
<pdfrwt beam="1">  1        1 0.56851290E-01 0.42325392E+03</pdfrwt>
<pdfrwt beam="2">  1       -1 0.10603047E+00 0.42325392E+03</pdfrwt>
<totfact> 0.58473555E+01</totfact>
</mgrwt>
</event>
<event>
 6    1  0.9022793E-004  0.4230978E+03  0.7818608E-02  0.1036063E+00
          2   -1    0    0  502    0  0.00000000000E+00  0.00000000000E+00  0.11880733984E+04  0.11880733984E+04  0.00000000000E+00 0. -1.
         -2   -1    0    0    0  501 -0.00000000000E+00 -0.00000000000E+00 -0.15125972450E+03  0.15125972450E+03  0.00000000000E+00 0.  1.
    9000007    2    1    2  502    0 -0.17027357151E+02  0.13610568285E+03  0.47701940444E+03  0.63777463502E+03  0.40049255307E+03 0.  0.
    9000005    1    3    3    0    0  0.15378631722E+03 -0.58299104360E+02  0.19124100985E+03  0.25223627966E+03  0.99999687468E+00 0.  0.
          4    1    3    3  502    0 -0.17081367437E+03  0.19440478721E+03  0.28577839459E+03  0.38553835536E+03  0.00000000000E+00 0.  1.
   -9000007    1    1    2    0  501  0.17027357151E+02 -0.13610568285E+03  0.55979426950E+03  0.70155848791E+03  0.40000000000E+03 0.  1.
<mgrwt>
<rscale>  2 0.42309777E+03</rscale>
<asrwt>0</asrwt>
<pdfrwt beam="1">  1        2 0.18278052E+00 0.42309777E+03</pdfrwt>
<pdfrwt beam="2">  1       -2 0.23270728E-01 0.42309777E+03</pdfrwt>
<totfact> 0.32438099E+02</totfact>
</mgrwt>
</event>
<event>
 6    1  0.9022793E-004  0.5449894E+03  0.7818608E-02  0.1002660E+00
          2   -1    0    0  502    0  0.00000000000E+00  0.00000000000E+00  0.18637783281E+04  0.18637783281E+04  0.00000000000E+00 0.  1.
         -2   -1    0    0    0  501 -0.00000000000E+00 -0.00000000000E+00 -0.16545878189E+03  0.16545878189E+03  0.00000000000E+00 0. -1.
    9000007    2    1    2  502    0 -0.34114297287E+03 -0.14353689123E+03  0.65442275386E+03  0.85165404278E+03  0.40008011790E+03 0.  0.
    9000005    1    3    3    0    0 -0.29311880808E+03  0.17654664603E+02  0.17100998979E+03  0.33981721474E+03  0.99999687468E+00 0.  0.
          4    1    3    3  502    0 -0.48024164788E+02 -0.16119155584E+03  0.48341276407E+03  0.51183682804E+03  0.00000000000E+00 0.  1.
   -9000007    1    1    2    0  501  0.34114297287E+03  0.14353689123E+03  0.10438967923E+04  0.11775830672E+04  0.40000000000E+03 0.  1.
<mgrwt>
<rscale>  2 0.54498937E+03</rscale>
<asrwt>0</asrwt>
<pdfrwt beam="1">  1        2 0.28673511E+00 0.54498937E+03</pdfrwt>
<pdfrwt beam="2">  1       -2 0.25455198E-01 0.54498937E+03</pdfrwt>
<totfact> 0.11557814E+02</totfact>
</mgrwt>
</event>
<event>
 6    1  0.9022793E-004  0.5567883E+03  0.7818608E-02  0.9999348E-01
         -1   -1    0    0    0  501 -0.00000000000E+00  0.00000000000E+00  0.10356894060E+04  0.10356894060E+04  0.00000000000E+00 0.  1.
          1   -1    0    0  502    0  0.00000000000E+00 -0.00000000000E+00 -0.30096820302E+03  0.30096820302E+03  0.00000000000E+00 0. -1.
    9000007    2    1    2  502    0  0.38409201520E+03  0.46727666807E+02  0.31823638853E+03  0.64155347893E+03  0.40075717879E+03 0.  0.
    9000005    1    3    3    0    0  0.29792386666E+03  0.14454068320E+03  0.39046298159E+02  0.33343103158E+03  0.99999687468E+00 0.  0.
          4    1    3    3  502    0  0.86168148540E+02 -0.97813016392E+02  0.27919009037E+03  0.30812244735E+03  0.00000000000E+00 0.  1.
   -9000007    1    1    2    0  501 -0.38409201520E+03 -0.46727666807E+02  0.41648481443E+03  0.69510413007E+03  0.40000000000E+03 0.  1.
<mgrwt>
<rscale>  2 0.55678826E+03</rscale>
<asrwt>0</asrwt>
<pdfrwt beam="1">  1        1 0.46302801E-01 0.55678826E+03</pdfrwt>
<pdfrwt beam="2">  1       -1 0.15933683E+00 0.55678826E+03</pdfrwt>
<totfact> 0.26990164E+01</totfact>
</mgrwt>
</event>
<event>
 6    1  0.9022793E-004  0.4646043E+03  0.7818608E-02  0.1023454E+00
         -1   -1    0    0    0  501 -0.00000000000E+00  0.00000000000E+00  0.31076864597E+03  0.31076864597E+03  0.00000000000E+00 0. -1.
          1   -1    0    0  502    0  0.00000000000E+00 -0.00000000000E+00 -0.78969675632E+03  0.78969675632E+03  0.00000000000E+00 0.  1.
    9000007    2    1    2  502    0 -0.23670732647E+03 -0.20980046327E+02 -0.48216999131E+02  0.46644443886E+03  0.39846582637E+03 0.  0.
    9000005    1    3    3    0    0 -0.24217980766E+02 -0.53355570352E+02  0.15803583114E+03  0.16855162829E+03  0.99999687468E+00 0.  0.
          4    1    3    3  502    0 -0.21248934571E+03  0.32375524026E+02 -0.20625283027E+03  0.29789281057E+03  0.00000000000E+00 0.  1.
   -9000007    1    1    2    0  501  0.23670732647E+03  0.20980046327E+02 -0.43071111122E+03  0.63402096343E+03  0.40000000000E+03 0.  1.
<mgrwt>
<rscale>  2 0.46460430E+03</rscale>
<asrwt>0</asrwt>
<pdfrwt beam="1">  1        1 0.12149181E+00 0.46460430E+03</pdfrwt>
<pdfrwt beam="2">  1       -1 0.47810560E-01 0.46460430E+03</pdfrwt>
<totfact> 0.10320255E+02</totfact>
</mgrwt>
</event>
<event>
 6    1  0.9022793E-004  0.4610978E+03  0.7818608E-02  0.1024463E+00
         -2   -1    0    0    0  501 -0.00000000000E+00  0.00000000000E+00  0.26855316303E+03  0.26855316303E+03  0.00000000000E+00 0.  1.
          2   -1    0    0  502    0  0.00000000000E+00 -0.00000000000E+00 -0.84595454228E+03  0.84595454228E+03  0.00000000000E+00 0. -1.
    9000007    2    1    2  502    0 -0.16808050488E+03 -0.15990308664E+03 -0.42906047529E+03  0.62888946325E+03  0.39697482577E+03 0.  0.
    9000005    1    3    3    0    0 -0.22726992107E+02 -0.24732397851E+03 -0.37700545285E+03  0.45146403843E+03  0.99999687468E+00 0.  0.
          4    1    3    3  502    0 -0.14535351278E+03  0.87420891875E+02 -0.52055022434E+02  0.17742542482E+03  0.00000000000E+00 0.  1.
   -9000007    1    1    2    0  501  0.16808050488E+03  0.15990308664E+03 -0.14834090397E+03  0.48561824207E+03  0.40000000000E+03 0.  1.
<mgrwt>
<rscale>  2 0.46109776E+03</rscale>
<asrwt>0</asrwt>
<pdfrwt beam="1">  1        2 0.13014685E+00 0.46109776E+03</pdfrwt>
<pdfrwt beam="2">  1       -2 0.41315872E-01 0.46109776E+03</pdfrwt>
<totfact> 0.18271611E+02</totfact>
</mgrwt>
</event>
<event>
 6    1  0.9022793E-004  0.5300980E+03  0.7818608E-02  0.1006208E+00
          2   -1    0    0  502    0  0.00000000000E+00  0.00000000000E+00  0.99790172686E+03  0.99790172686E+03  0.00000000000E+00 0.  1.
         -2   -1    0    0    0  501 -0.00000000000E+00 -0.00000000000E+00 -0.31661262392E+03  0.31661262392E+03  0.00000000000E+00 0. -1.
    9000007    2    1    2  502    0  0.30116173590E+03  0.17425726402E+03  0.12202921731E+03  0.54390705461E+03  0.39984968293E+03 0.  0.
    9000005    1    3    3    0    0  0.27266696423E+03  0.57544793422E+02 -0.96184308849E+02  0.29480688238E+03  0.99999687468E+00 0.  0.
          4    1    3    3  502    0  0.28494771670E+02  0.11671247060E+03  0.21821352616E+03  0.24910017223E+03  0.00000000000E+00 0.  1.
   -9000007    1    1    2    0  501 -0.30116173590E+03 -0.17425726402E+03  0.55925988563E+03  0.77060729617E+03  0.40000000000E+03 0.  1.
<mgrwt>
<rscale>  2 0.53009798E+03</rscale>
<asrwt>0</asrwt>
<pdfrwt beam="1">  1        2 0.15352334E+00 0.53009798E+03</pdfrwt>
<pdfrwt beam="2">  1       -2 0.48709635E-01 0.53009798E+03</pdfrwt>
<totfact> 0.10415199E+02</totfact>
</mgrwt>
</event>
<event>
 6    1  0.9022793E-004  0.4282034E+03  0.7818608E-02  0.1034429E+00
          2   -1    0    0  502    0  0.00000000000E+00  0.00000000000E+00  0.25305972292E+04  0.25305972292E+04  0.00000000000E+00 0.  1.
         -2   -1    0    0    0  501 -0.00000000000E+00 -0.00000000000E+00 -0.15941947804E+03  0.15941947804E+03  0.00000000000E+00 0. -1.
    9000007    2    1    2  502    0 -0.38646375565E+02  0.15220925393E+03  0.19029476229E+03  0.46720051816E+03  0.39674050498E+03 0.  0.
    9000005    1    3    3    0    0  0.86680204710E+02  0.22681293909E+03  0.20965863636E+02  0.24371732532E+03  0.99999687468E+00 0.  0.
          4    1    3    3  502    0 -0.12532658027E+03 -0.74603685163E+02  0.16932889865E+03  0.22348319284E+03  0.00000000000E+00 0.  1.
   -9000007    1    1    2    0  501  0.38646375565E+02 -0.15220925393E+03  0.21808829889E+04  0.22228161891E+04  0.40000000000E+03 0.  1.
<mgrwt>
<rscale>  2 0.42820336E+03</rscale>
<asrwt>0</asrwt>
<pdfrwt beam="1">  1        2 0.38932262E+00 0.42820336E+03</pdfrwt>
<pdfrwt beam="2">  1       -2 0.24526075E-01 0.42820336E+03</pdfrwt>
<totfact> 0.54638222E+01</totfact>
</mgrwt>
</event>
<event>
 6    1  0.9022793E-004  0.4188151E+03  0.7818608E-02  0.1037453E+00
         -1   -1    0    0    0  501 -0.00000000000E+00  0.00000000000E+00  0.40202769211E+03  0.40202769211E+03  0.00000000000E+00 0. -1.
          1   -1    0    0  502    0  0.00000000000E+00 -0.00000000000E+00 -0.46054700495E+03  0.46054700495E+03  0.00000000000E+00 0.  1.
    9000007    2    1    2  502    0  0.12087517588E+03 -0.23425211499E+02 -0.12823144425E+03  0.43828784841E+03  0.40061625789E+03 0.  0.
    9000005    1    3    3    0    0  0.15339151622E+03  0.61896023808E+02 -0.24155150244E+03  0.29275963406E+03  0.99999687468E+00 0.  0.
          4    1    3    3  502    0 -0.32516340338E+02 -0.85321235307E+02  0.11332005818E+03  0.14552821434E+03  0.00000000000E+00 0.  1.
   -9000007    1    1    2    0  501 -0.12087517588E+03  0.23425211499E+02  0.69712131413E+02  0.42428684866E+03  0.40000000000E+03 0. -1.
<mgrwt>
<rscale>  2 0.41881508E+03</rscale>
<asrwt>0</asrwt>
<pdfrwt beam="1">  1        1 0.70853385E-01 0.41881508E+03</pdfrwt>
<pdfrwt beam="2">  1       -1 0.61850414E-01 0.41881508E+03</pdfrwt>
<totfact> 0.13705136E+02</totfact>
</mgrwt>
</event>
<event>
 6    1  0.9022793E-004  0.4128563E+03  0.7818608E-02  0.1039417E+00
         -1   -1    0    0    0  501 -0.00000000000E+00  0.00000000000E+00  0.49062967991E+03  0.49062967991E+03  0.00000000000E+00 0. -1.
          1   -1    0    0  502    0  0.00000000000E+00 -0.00000000000E+00 -0.82067053073E+03  0.82067053073E+03  0.00000000000E+00 0.  1.
    9000007    2    1    2  502    0  0.16896114235E+02 -0.99159854811E+02 -0.66298265157E+03  0.78123568799E+03  0.40083044848E+03 0.  0.
    9000005    1    3    3    0    0  0.32421394402E+02  0.52992447620E+02  0.31815246541E+02  0.69803697796E+02  0.99999687468E+00 0.  0.
          4    1    3    3  502    0 -0.15525280167E+02 -0.15215230243E+03 -0.69479789811E+03  0.71143199020E+03  0.00000000000E+00 0.  1.
   -9000007    1    1    2    0  501 -0.16896114235E+02  0.99159854811E+02  0.33294180075E+03  0.53006452265E+03  0.40000000000E+03 0. -1.
<mgrwt>
<rscale>  2 0.41285634E+03</rscale>
<asrwt>0</asrwt>
<pdfrwt beam="1">  1        1 0.12625700E+00 0.41285634E+03</pdfrwt>
<pdfrwt beam="2">  1       -1 0.75481489E-01 0.41285634E+03</pdfrwt>
<totfact> 0.40103624E+01</totfact>
</mgrwt>
</event>
<event>
 6    1  0.9022793E-004  0.4155153E+03  0.7818608E-02  0.1038536E+00
          2   -1    0    0  502    0  0.00000000000E+00  0.00000000000E+00  0.19435282385E+04  0.19435282385E+04  0.00000000000E+00 0. -1.
         -2   -1    0    0    0  501 -0.00000000000E+00 -0.00000000000E+00 -0.16521073693E+03  0.16521073693E+03  0.00000000000E+00 0.  1.
    9000007    2    1    2  502    0 -0.10472746961E+03  0.84152292986E+02  0.16505554945E+03  0.44120679360E+03  0.38648499196E+03 0.  0.
    9000005    1    3    3    0    0 -0.10181046886E+03 -0.92856071392E+02 -0.63815414389E+02  0.15185858116E+03  0.99999687468E+00 0.  0.
          4    1    3    3  502    0 -0.29170007480E+01  0.17700836438E+03  0.22887096384E+03  0.28934821244E+03  0.00000000000E+00 0.  1.
   -9000007    1    1    2    0  501  0.10472746961E+03 -0.84152292986E+02  0.16132619521E+04  0.16675321818E+04  0.40000000000E+03 0. -1.
<mgrwt>
<rscale>  2 0.41551534E+03</rscale>
<asrwt>0</asrwt>
<pdfrwt beam="1">  1        2 0.29900433E+00 0.41551534E+03</pdfrwt>
<pdfrwt beam="2">  1       -2 0.25417038E-01 0.41551534E+03</pdfrwt>
<totfact> 0.10719244E+02</totfact>
</mgrwt>
</event>
<event>
 6    1  0.9022793E-004  0.4087241E+03  0.7818608E-02  0.1040800E+00
          2   -1    0    0  502    0  0.00000000000E+00  0.00000000000E+00  0.30213100940E+04  0.30213100940E+04  0.00000000000E+00 0.  1.
         -2   -1    0    0    0  501 -0.00000000000E+00 -0.00000000000E+00 -0.79234751898E+02  0.79234751898E+02  0.00000000000E+00 0. -1.
    9000007    2    1    2  502    0  0.83664412413E+02  0.19741752400E+02  0.61782838078E+03  0.74056319175E+03  0.39916470559E+03 0.  0.
    9000005    1    3    3    0    0  0.19641989631E+02 -0.17381791439E+03  0.15072185202E+03  0.23090377171E+03  0.99999687468E+00 0.  0.
          4    1    3    3  502    0  0.64022422782E+02  0.19355966679E+03  0.46710652876E+03  0.50965942004E+03  0.00000000000E+00 0.  1.
   -9000007    1    1    2    0  501 -0.83664412413E+02 -0.19741752400E+02  0.23242469613E+04  0.23599816542E+04  0.40000000000E+03 0.  1.
<mgrwt>
<rscale>  2 0.40872407E+03</rscale>
<asrwt>0</asrwt>
<pdfrwt beam="1">  1        2 0.46481685E+00 0.40872407E+03</pdfrwt>
<pdfrwt beam="2">  1       -2 0.12189964E-01 0.40872407E+03</pdfrwt>
<totfact> 0.93889185E+01</totfact>
</mgrwt>
</event>
<event>
 6    1  0.9022793E-004  0.4568324E+03  0.7818608E-02  0.1025704E+00
         -2   -1    0    0    0  501 -0.00000000000E+00  0.00000000000E+00  0.38766452032E+03  0.38766452032E+03  0.00000000000E+00 0.  1.
          2   -1    0    0  502    0  0.00000000000E+00 -0.00000000000E+00 -0.66661306934E+03  0.66661306934E+03  0.00000000000E+00 0. -1.
    9000007    2    1    2  502    0  0.28215365273E+02 -0.21864416622E+03  0.91735125800E+02  0.46605334241E+03  0.40023618828E+03 0.  0.
    9000005    1    3    3    0    0 -0.43734382572E+02 -0.39922878487E+02 -0.14746518936E+03  0.15891354415E+03  0.99999687468E+00 0.  0.
          4    1    3    3  502    0  0.71949747845E+02 -0.17872128774E+03  0.23920031516E+03  0.30713979827E+03  0.00000000000E+00 0.  1.
   -9000007    1    1    2    0  501 -0.28215365273E+02  0.21864416622E+03 -0.37068367482E+03  0.58822424724E+03  0.40000000000E+03 0. -1.
<mgrwt>
<rscale>  2 0.45683242E+03</rscale>
<asrwt>0</asrwt>
<pdfrwt beam="1">  1        2 0.10255586E+00 0.45683242E+03</pdfrwt>
<pdfrwt beam="2">  1       -2 0.59640696E-01 0.45683242E+03</pdfrwt>
<totfact> 0.11805449E+02</totfact>
</mgrwt>
</event>
<event>
 6    1  0.9022793E-004  0.6449756E+03  0.7818608E-02  0.9816253E-01
          2   -1    0    0  502    0  0.00000000000E+00  0.00000000000E+00  0.16725605255E+04  0.16725605255E+04  0.00000000000E+00 0.  1.
         -2   -1    0    0    0  501 -0.00000000000E+00 -0.00000000000E+00 -0.25132641044E+03  0.25132641044E+03  0.00000000000E+00 0. -1.
    9000007    2    1    2  502    0  0.27859706321E+03 -0.42222207925E+03  0.80873133823E+03  0.10344784474E+04  0.40026425384E+03 0.  0.
    9000005    1    3    3    0    0  0.53042019799E+02 -0.27137944643E+03  0.13409025214E+03  0.30731328563E+03  0.99999687468E+00 0.  0.
          4    1    3    3  502    0  0.22555504341E+03 -0.15084263282E+03  0.67464108609E+03  0.72716516179E+03  0.00000000000E+00 0.  1.
   -9000007    1    1    2    0  501 -0.27859706321E+03  0.42222207925E+03  0.61250277684E+03  0.88940848854E+03  0.40000000000E+03 0. -1.
<mgrwt>
<rscale>  2 0.64497560E+03</rscale>
<asrwt>0</asrwt>
<pdfrwt beam="1">  1        2 0.25731700E+00 0.64497560E+03</pdfrwt>
<pdfrwt beam="2">  1       -2 0.38665603E-01 0.64497560E+03</pdfrwt>
<totfact> 0.66451948E+01</totfact>
</mgrwt>
</event>
<event>
 6    1  0.9022793E-004  0.7232843E+03  0.7818608E-02  0.9678221E-01
          1   -1    0    0  502    0  0.00000000000E+00  0.00000000000E+00  0.95545739818E+03  0.95545739818E+03  0.00000000000E+00 0. -1.
         -1   -1    0    0    0  501 -0.00000000000E+00 -0.00000000000E+00 -0.61413316527E+03  0.61413316527E+03  0.00000000000E+00 0.  1.
    9000007    2    1    2  502    0  0.40992043739E+03 -0.44145415255E+03 -0.87755877629E+02  0.72874201878E+03  0.40055873737E+03 0.  0.
    9000005    1    3    3    0    0  0.30166908317E+03 -0.40642526938E+03 -0.22206345957E+03  0.55271956307E+03  0.99999687468E+00 0.  0.
          4    1    3    3  502    0  0.10825135423E+03 -0.35028883171E+02  0.13430758194E+03  0.17602245572E+03  0.00000000000E+00 0.  1.
   -9000007    1    1    2    0  501 -0.40992043739E+03  0.44145415255E+03  0.42908011054E+03  0.84084854466E+03  0.40000000000E+03 0. -1.
<mgrwt>
<rscale>  2 0.72328427E+03</rscale>
<asrwt>0</asrwt>
<pdfrwt beam="1">  1        1 0.14699345E+00 0.72328427E+03</pdfrwt>
<pdfrwt beam="2">  1       -1 0.94482025E-01 0.72328427E+03</pdfrwt>
<totfact> 0.18366772E+01</totfact>
</mgrwt>
</event>
<event>
 6    1  0.9022793E-004  0.4439991E+03  0.7818608E-02  0.1029527E+00
          2   -1    0    0  502    0  0.00000000000E+00  0.00000000000E+00  0.17431520126E+04  0.17431520126E+04  0.00000000000E+00 0.  1.
         -2   -1    0    0    0  501 -0.00000000000E+00 -0.00000000000E+00 -0.12238566817E+03  0.12238566817E+03  0.00000000000E+00 0. -1.
    9000007    2    1    2  502    0 -0.18893376377E+03  0.38545642222E+02  0.55324299952E+03  0.70934227102E+03  0.39988361720E+03 0.  0.
    9000005    1    3    3    0    0 -0.25371554048E+03 -0.10907200679E+02  0.14374313120E+03  0.29181094953E+03  0.99999687468E+00 0.  0.
          4    1    3    3  502    0  0.64781776713E+02  0.49452842900E+02  0.40949986832E+03  0.41753132148E+03  0.00000000000E+00 0.  1.
   -9000007    1    1    2    0  501  0.18893376377E+03 -0.38545642222E+02  0.10675233449E+04  0.11561954098E+04  0.40000000000E+03 0.  1.
<mgrwt>
<rscale>  2 0.44399908E+03</rscale>
<asrwt>0</asrwt>
<pdfrwt beam="1">  1        2 0.26817721E+00 0.44399908E+03</pdfrwt>
<pdfrwt beam="2">  1       -2 0.18828566E-01 0.44399908E+03</pdfrwt>
<totfact> 0.23119043E+02</totfact>
</mgrwt>
</event>
<event>
 6    1  0.9022793E-004  0.4043013E+03  0.7818608E-02  0.1042300E+00
          1   -1    0    0  502    0  0.00000000000E+00  0.00000000000E+00  0.18819062595E+04  0.18819062595E+04  0.00000000000E+00 0. -1.
         -1   -1    0    0    0  501 -0.00000000000E+00 -0.00000000000E+00 -0.25571153184E+03  0.25571153184E+03  0.00000000000E+00 0.  1.
    9000007    2    1    2  502    0 -0.27805237987E+02  0.50608356059E+02 -0.55315875868E+02  0.40822129350E+03  0.40031292932E+03 0.  0.
    9000005    1    3    3    0    0 -0.10017177759E+03 -0.68310522204E+02  0.12913379877E+03  0.17713624826E+03  0.99999687468E+00 0.  0.
          4    1    3    3  502    0  0.72366539599E+02  0.11891887826E+03 -0.18444967463E+03  0.23108504524E+03  0.00000000000E+00 0.  1.
   -9000007    1    1    2    0  501  0.27805237987E+02 -0.50608356059E+02  0.16815106035E+04  0.17293964978E+04  0.40000000000E+03 0. -1.
<mgrwt>
<rscale>  2 0.40430126E+03</rscale>
<asrwt>0</asrwt>
<pdfrwt beam="1">  1        1 0.28952403E+00 0.40430126E+03</pdfrwt>
<pdfrwt beam="2">  1       -1 0.39340237E-01 0.40430126E+03</pdfrwt>
<totfact> 0.24888004E+01</totfact>
</mgrwt>
</event>
<event>
 6    1  0.9022793E-004  0.4487320E+03  0.7818608E-02  0.1028101E+00
         -2   -1    0    0    0  501 -0.00000000000E+00  0.00000000000E+00  0.12239299132E+04  0.12239299132E+04  0.00000000000E+00 0. -1.
          2   -1    0    0  502    0  0.00000000000E+00 -0.00000000000E+00 -0.33169479163E+03  0.33169479163E+03  0.00000000000E+00 0.  1.
    9000007    2    1    2  502    0 -0.70068811954E+02 -0.19074138854E+03  0.99834892782E+03  0.10945910232E+04  0.40017122669E+03 0.  0.
    9000005    1    3    3    0    0 -0.19086322424E+03  0.27547964020E+02  0.52902991538E+03  0.56308197631E+03  0.99999687468E+00 0.  0.
          4    1    3    3  502    0  0.12079441229E+03 -0.21828935256E+03  0.46931901245E+03  0.53150904689E+03  0.00000000000E+00 0.  1.
   -9000007    1    1    2    0  501  0.70068811954E+02  0.19074138854E+03 -0.10611380626E+03  0.46103368162E+03  0.40000000000E+03 0.  1.
<mgrwt>
<rscale>  2 0.44873200E+03</rscale>
<asrwt>0</asrwt>
<pdfrwt beam="1">  1        2 0.51029969E-01 0.44873200E+03</pdfrwt>
<pdfrwt beam="2">  1       -2 0.18829691E+00 0.44873200E+03</pdfrwt>
<totfact> 0.16420705E+01</totfact>
</mgrwt>
</event>
<event>
 6    1  0.9022793E-004  0.4467248E+03  0.7818608E-02  0.1028703E+00
          2   -1    0    0  502    0  0.00000000000E+00  0.00000000000E+00  0.35951841736E+03  0.35951841736E+03  0.00000000000E+00 0.  1.
         -2   -1    0    0    0  501 -0.00000000000E+00 -0.00000000000E+00 -0.11113973631E+04  0.11113973631E+04  0.00000000000E+00 0. -1.
    9000007    2    1    2  502    0  0.11115194977E+03  0.16664674070E+03  0.14465884044E+03  0.46896473667E+03  0.39859233811E+03 0.  0.
    9000005    1    3    3    0    0 -0.14477462055E+03  0.25004292209E+02  0.87251955252E+02  0.17087659018E+03  0.99999687468E+00 0.  0.
          4    1    3    3  502    0  0.25592657032E+03  0.14164244849E+03  0.57406885191E+02  0.29808814649E+03  0.00000000000E+00 0.  1.
   -9000007    1    1    2    0  501 -0.11115194977E+03 -0.16664674070E+03 -0.89653778621E+03  0.10019510438E+04  0.40000000000E+03 0. -1.
<mgrwt>
<rscale>  2 0.44672478E+03</rscale>
<asrwt>0</asrwt>
<pdfrwt beam="1">  1        2 0.55310526E-01 0.44672478E+03</pdfrwt>
<pdfrwt beam="2">  1       -2 0.17098421E+00 0.44672478E+03</pdfrwt>
<totfact> 0.19706042E+01</totfact>
</mgrwt>
</event>
<event>
 6    1  0.9022793E-004  0.4059743E+03  0.7818608E-02  0.1041730E+00
         -2   -1    0    0    0  501 -0.00000000000E+00  0.00000000000E+00  0.43447032071E+02  0.43447032071E+02  0.00000000000E+00 0.  1.
          2   -1    0    0  502    0  0.00000000000E+00 -0.00000000000E+00 -0.38044742623E+04  0.38044742623E+04  0.00000000000E+00 0. -1.
    9000007    2    1    2  502    0  0.16481776949E+02 -0.68655274210E+02 -0.17760870174E+04  0.18218480370E+04  0.39957475016E+03 0.  0.
    9000005    1    3    3    0    0  0.19683999536E+03 -0.67818624598E+02 -0.12082228786E+04  0.12260297198E+04  0.99999687468E+00 0.  0.
          4    1    3    3  502    0 -0.18035821841E+03 -0.83664961252E+00 -0.56786413884E+03  0.59581831720E+03  0.00000000000E+00 0.  1.
   -9000007    1    1    2    0  501 -0.16481776949E+02  0.68655274210E+02 -0.19849402128E+04  0.20260732573E+04  0.40000000000E+03 0. -1.
<mgrwt>
<rscale>  2 0.40597426E+03</rscale>
<asrwt>0</asrwt>
<pdfrwt beam="1">  1        2 0.58530380E+00 0.40597426E+03</pdfrwt>
<pdfrwt beam="2">  1       -2 0.66841581E-02 0.40597426E+03</pdfrwt>
<totfact> 0.74722536E+01</totfact>
</mgrwt>
</event>
<event>
 6    1  0.9022793E-004  0.5012696E+03  0.7818608E-02  0.1013448E+00
          2   -1    0    0  502    0  0.00000000000E+00  0.00000000000E+00  0.19667223090E+04  0.19667223090E+04  0.00000000000E+00 0. -1.
         -2   -1    0    0    0  501 -0.00000000000E+00 -0.00000000000E+00 -0.13642669564E+03  0.13642669564E+03  0.00000000000E+00 0.  1.
    9000007    2    1    2  502    0 -0.18734017862E+03 -0.23726603890E+03  0.11799647324E+04  0.12819780295E+04  0.39969911505E+03 0.  0.
    9000005    1    3    3    0    0 -0.14272113005E+03 -0.29847352134E+03  0.11561841695E+04  0.12025882910E+04  0.99999687468E+00 0.  0.
          4    1    3    3  502    0 -0.44619048576E+02  0.61207482442E+02  0.23780562945E+02  0.79389738485E+02  0.00000000000E+00 0.  1.
   -9000007    1    1    2    0  501  0.18734017862E+03  0.23726603890E+03  0.65033088098E+03  0.82117097519E+03  0.40000000000E+03 0.  1.
<mgrwt>
<rscale>  2 0.50126957E+03</rscale>
<asrwt>0</asrwt>
<pdfrwt beam="1">  1        2 0.30257264E+00 0.50126957E+03</pdfrwt>
<pdfrwt beam="2">  1       -2 0.20988724E-01 0.50126957E+03</pdfrwt>
<totfact> 0.14411220E+02</totfact>
</mgrwt>
</event>
<event>
 6    1  0.9022793E-004  0.4472824E+03  0.7818608E-02  0.1028536E+00
          4   -1    0    0  502    0  0.00000000000E+00  0.00000000000E+00  0.38431402061E+03  0.38431402061E+03  0.00000000000E+00 0. -1.
         -4   -1    0    0    0  501 -0.00000000000E+00 -0.00000000000E+00 -0.73269770009E+03  0.73269770009E+03  0.00000000000E+00 0.  1.
    9000007    2    1    2  502    0 -0.12659993449E+03  0.15558233684E+03 -0.47465359164E+03  0.65206280129E+03  0.39957034152E+03 0.  0.
    9000005    1    3    3    0    0 -0.18058315621E+03  0.26391955041E+03 -0.39004912615E+03  0.50438390756E+03  0.99999687468E+00 0.  0.
          4    1    3    3  502    0  0.53983221724E+02 -0.10833721357E+03 -0.84604465487E+02  0.14767889373E+03  0.00000000000E+00 0.  1.
   -9000007    1    1    2    0  501  0.12659993449E+03 -0.15558233684E+03  0.12626991215E+03  0.46494891941E+03  0.40000000000E+03 0. -1.
<mgrwt>
<rscale>  2 0.44728242E+03</rscale>
<asrwt>0</asrwt>
<pdfrwt beam="1">  1        4 0.59125234E-01 0.44728242E+03</pdfrwt>
<pdfrwt beam="2">  1       -4 0.11272272E+00 0.44728242E+03</pdfrwt>
<totfact> 0.32474660E+00</totfact>
</mgrwt>
</event>
<event>
 6    1  0.9022793E-004  0.4355701E+03  0.7818608E-02  0.1032115E+00
          2   -1    0    0  502    0  0.00000000000E+00  0.00000000000E+00  0.80663453065E+03  0.80663453065E+03  0.00000000000E+00 0. -1.
         -2   -1    0    0    0  501 -0.00000000000E+00 -0.00000000000E+00 -0.25939940759E+03  0.25939940759E+03  0.00000000000E+00 0.  1.
    9000007    2    1    2  502    0  0.56528850784E+02  0.16282130267E+03  0.43642553618E+03  0.61660646676E+03  0.40003749655E+03 0.  0.
    9000005    1    3    3    0    0  0.20692520053E+03  0.11880573631E+02  0.29623786470E+03  0.36154814219E+03  0.99999687468E+00 0.  0.
          4    1    3    3  502    0 -0.15039634974E+03  0.15094072904E+03  0.14018767148E+03  0.25505832457E+03  0.00000000000E+00 0.  1.
   -9000007    1    1    2    0  501 -0.56528850784E+02 -0.16282130267E+03  0.11080958689E+03  0.44942747148E+03  0.40000000000E+03 0.  1.
<mgrwt>
<rscale>  2 0.43557007E+03</rscale>
<asrwt>0</asrwt>
<pdfrwt beam="1">  1        2 0.12409762E+00 0.43557007E+03</pdfrwt>
<pdfrwt beam="2">  1       -2 0.39907602E-01 0.43557007E+03</pdfrwt>
<totfact> 0.20855587E+02</totfact>
</mgrwt>
</event>
<event>
 6    1  0.9022793E-004  0.4554031E+03  0.7818608E-02  0.1026123E+00
         -1   -1    0    0    0  501 -0.00000000000E+00  0.00000000000E+00  0.39792033199E+03  0.39792033199E+03  0.00000000000E+00 0. -1.
          1   -1    0    0  502    0  0.00000000000E+00 -0.00000000000E+00 -0.78420157405E+03  0.78420157405E+03  0.00000000000E+00 0.  1.
    9000007    2    1    2  502    0  0.38033596817E+02  0.21472105165E+03  0.14920812577E+03  0.47905679698E+03  0.39960063242E+03 0.  0.
    9000005    1    3    3    0    0  0.24264768209E+02  0.33411294116E+03  0.10666764685E+03  0.35156681201E+03  0.99999687468E+00 0.  0.
          4    1    3    3  502    0  0.13768828608E+02 -0.11939188951E+03  0.42540478921E+02  0.12748998498E+03  0.00000000000E+00 0.  1.
   -9000007    1    1    2    0  501 -0.38033596817E+02 -0.21472105165E+03 -0.53548936783E+03  0.70306510905E+03  0.40000000000E+03 0.  1.
<mgrwt>
<rscale>  2 0.45540307E+03</rscale>
<asrwt>0</asrwt>
<pdfrwt beam="1">  1        1 0.12064639E+00 0.45540307E+03</pdfrwt>
<pdfrwt beam="2">  1       -1 0.61218513E-01 0.45540307E+03</pdfrwt>
<totfact> 0.65176712E+01</totfact>
</mgrwt>
</event>
<event>
 6    1  0.9022793E-004  0.4971318E+03  0.7818608E-02  0.1014530E+00
          1   -1    0    0  502    0  0.00000000000E+00  0.00000000000E+00  0.32335252624E+03  0.32335252624E+03  0.00000000000E+00 0.  1.
         -1   -1    0    0    0  501 -0.00000000000E+00 -0.00000000000E+00 -0.91414261237E+03  0.91414261237E+03  0.00000000000E+00 0. -1.
    9000007    2    1    2  502    0  0.14010841136E+02  0.29524987826E+03 -0.44775691792E+02  0.49891507315E+03  0.39942783248E+03 0.  0.
    9000005    1    3    3    0    0 -0.13492292523E+02  0.77865936535E+01 -0.17955688494E+03  0.18023414749E+03  0.99999687468E+00 0.  0.
          4    1    3    3  502    0  0.27503133659E+02  0.28746328460E+03  0.13478119314E+03  0.31868092566E+03  0.00000000000E+00 0.  1.
   -9000007    1    1    2    0  501 -0.14010841136E+02 -0.29524987826E+03 -0.54601439433E+03  0.73858006546E+03  0.40000000000E+03 0. -1.
<mgrwt>
<rscale>  2 0.49713176E+03</rscale>
<asrwt>0</asrwt>
<pdfrwt beam="1">  1        1 0.49746543E-01 0.49713176E+03</pdfrwt>
<pdfrwt beam="2">  1       -1 0.14063732E+00 0.49713176E+03</pdfrwt>
<totfact> 0.34590700E+01</totfact>
</mgrwt>
</event>
<event>
 6    1  0.9022793E-004  0.4204572E+03  0.7818608E-02  0.1036918E+00
         -1   -1    0    0    0  501 -0.00000000000E+00  0.00000000000E+00  0.22088477165E+03  0.22088477165E+03  0.00000000000E+00 0.  1.
          1   -1    0    0  502    0  0.00000000000E+00 -0.00000000000E+00 -0.99863327283E+03  0.99863327283E+03  0.00000000000E+00 0. -1.
    9000007    2    1    2  502    0 -0.11871518210E+03 -0.50635460965E+02 -0.11727814637E+03  0.43665258097E+03  0.40031745963E+03 0.  0.
    9000005    1    3    3    0    0 -0.58166607726E+02 -0.22186845384E+03 -0.19023942961E+02  0.23015619797E+03  0.99999687468E+00 0.  0.
          4    1    3    3  502    0 -0.60548574371E+02  0.17123299287E+03 -0.98254203413E+02  0.20649638301E+03  0.00000000000E+00 0.  1.
   -9000007    1    1    2    0  501  0.11871518210E+03  0.50635460965E+02 -0.66047035481E+03  0.78286546351E+03  0.40000000000E+03 0. -1.
<mgrwt>
<rscale>  2 0.42045717E+03</rscale>
<asrwt>0</asrwt>
<pdfrwt beam="1">  1        1 0.15363589E+00 0.42045717E+03</pdfrwt>
<pdfrwt beam="2">  1       -1 0.33982273E-01 0.42045717E+03</pdfrwt>
<totfact> 0.13037063E+02</totfact>
</mgrwt>
</event>
<event>
 6    1  0.9022793E-004  0.5113450E+03  0.7818608E-02  0.1010859E+00
         -2   -1    0    0    0  501 -0.00000000000E+00  0.00000000000E+00  0.14970949169E+04  0.14970949169E+04  0.00000000000E+00 0. -1.
          2   -1    0    0  502    0  0.00000000000E+00 -0.00000000000E+00 -0.18053986296E+03  0.18053986296E+03  0.00000000000E+00 0.  1.
    9000007    2    1    2  502    0  0.57305290002E+02  0.31320722338E+03  0.80984309701E+03  0.95781558844E+03  0.40022768351E+03 0.  0.
    9000005    1    3    3    0    0 -0.13257593454E+03  0.13982467706E+03  0.58612063373E+03  0.61698113100E+03  0.99999687468E+00 0.  0.
          4    1    3    3  502    0  0.18988122454E+03  0.17338254633E+03  0.22372246328E+03  0.34083445744E+03  0.00000000000E+00 0.  1.
   -9000007    1    1    2    0  501 -0.57305290002E+02 -0.31320722338E+03  0.50671195697E+03  0.71981919145E+03  0.40000000000E+03 0. -1.
<mgrwt>
<rscale>  2 0.51134503E+03</rscale>
<asrwt>0</asrwt>
<pdfrwt beam="1">  1        2 0.27775364E-01 0.51134503E+03</pdfrwt>
<pdfrwt beam="2">  1       -2 0.23032229E+00 0.51134503E+03</pdfrwt>
<totfact> 0.17318675E+01</totfact>
</mgrwt>
</event>
<event>
 6    1  0.9022793E-004  0.4456094E+03  0.7818608E-02  0.1029039E+00
         -2   -1    0    0    0  501 -0.00000000000E+00  0.00000000000E+00  0.22084039916E+03  0.22084039916E+03  0.00000000000E+00 0.  1.
          2   -1    0    0  502    0  0.00000000000E+00 -0.00000000000E+00 -0.91303568443E+03  0.91303568443E+03  0.00000000000E+00 0. -1.
    9000007    2    1    2  502    0  0.11588810555E+03  0.15913539859E+03 -0.41586292863E+03  0.60936326256E+03  0.39953408148E+03 0.  0.
    9000005    1    3    3    0    0 -0.13575034979E+02  0.15403056294E+03 -0.44962596411E+03  0.47547261066E+03  0.99999687468E+00 0.  0.
          4    1    3    3  502    0  0.12946314052E+03  0.51048356573E+01  0.33763035481E+02  0.13389065190E+03  0.00000000000E+00 0.  1.
   -9000007    1    1    2    0  501 -0.11588810555E+03 -0.15913539859E+03 -0.27633235665E+03  0.52451282103E+03  0.40000000000E+03 0.  1.
<mgrwt>
<rscale>  2 0.44560945E+03</rscale>
<asrwt>0</asrwt>
<pdfrwt beam="1">  1        2 0.14046703E+00 0.44560945E+03</pdfrwt>
<pdfrwt beam="2">  1       -2 0.33975446E-01 0.44560945E+03</pdfrwt>
<totfact> 0.23979534E+02</totfact>
</mgrwt>
</event>
<event>
 6    1  0.9022793E-004  0.5229115E+03  0.7818608E-02  0.1007966E+00
          2   -1    0    0  502    0  0.00000000000E+00  0.00000000000E+00  0.10612002997E+04  0.10612002997E+04  0.00000000000E+00 0. -1.
         -2   -1    0    0    0  501 -0.00000000000E+00 -0.00000000000E+00 -0.54418039507E+03  0.54418039507E+03  0.00000000000E+00 0.  1.
    9000007    2    1    2  502    0  0.10033150620E+03 -0.32199972246E+03  0.84087659666E+03  0.99004876040E+03  0.39921531128E+03 0.  0.
    9000005    1    3    3    0    0 -0.99191591192E+01 -0.32692692045E+03  0.81284520371E+03  0.87618372857E+03  0.99999687468E+00 0.  0.
          4    1    3    3  502    0  0.11025066532E+03  0.49271979871E+01  0.28031392954E+02  0.11386503183E+03  0.00000000000E+00 0.  1.
   -9000007    1    1    2    0  501 -0.10033150620E+03  0.32199972246E+03 -0.32385669208E+03  0.61533193433E+03  0.40000000000E+03 0.  1.
<mgrwt>
<rscale>  2 0.52291155E+03</rscale>
<asrwt>0</asrwt>
<pdfrwt beam="1">  1        2 0.16326158E+00 0.52291155E+03</pdfrwt>
<pdfrwt beam="2">  1       -2 0.83720061E-01 0.52291155E+03</pdfrwt>
<totfact> 0.30009782E+01</totfact>
</mgrwt>
</event>
<event>
 6    1  0.9022793E-004  0.4059191E+03  0.7818608E-02  0.1041749E+00
          1   -1    0    0  502    0  0.00000000000E+00  0.00000000000E+00  0.30747041013E+03  0.30747041013E+03  0.00000000000E+00 0. -1.
         -1   -1    0    0    0  501 -0.00000000000E+00 -0.00000000000E+00 -0.57588030114E+03  0.57588030114E+03  0.00000000000E+00 0.  1.
    9000007    2    1    2  502    0  0.67722766816E+02  0.19580738330E+02 -0.17739921608E+02  0.40606126866E+03  0.39950127738E+03 0.  0.
    9000005    1    3    3    0    0  0.16628231919E+02  0.76389374641E+02  0.17882449835E+03  0.19516924926E+03  0.99999687468E+00 0.  0.
          4    1    3    3  502    0  0.51094534896E+02 -0.56808636311E+02 -0.19656441995E+03  0.21089201940E+03  0.00000000000E+00 0.  1.
   -9000007    1    1    2    0  501 -0.67722766816E+02 -0.19580738330E+02 -0.25066996940E+03  0.47728944260E+03  0.40000000000E+03 0.  1.
<mgrwt>
<rscale>  2 0.40591907E+03</rscale>
<asrwt>0</asrwt>
<pdfrwt beam="1">  1        1 0.47303140E-01 0.40591907E+03</pdfrwt>
<pdfrwt beam="2">  1       -1 0.88596969E-01 0.40591907E+03</pdfrwt>
<totfact> 0.11082425E+02</totfact>
</mgrwt>
</event>
<event>
 6    1  0.9022793E-004  0.5135913E+03  0.7818608E-02  0.1010291E+00
          3   -1    0    0  502    0  0.00000000000E+00  0.00000000000E+00  0.70041314020E+03  0.70041314020E+03  0.00000000000E+00 0. -1.
         -3   -1    0    0    0  501 -0.00000000000E+00 -0.00000000000E+00 -0.67105298416E+03  0.67105298416E+03  0.00000000000E+00 0.  1.
    9000007    2    1    2  502    0 -0.28543957108E+03 -0.14845586332E+03 -0.43955447220E+03  0.67619939808E+03  0.40065271725E+03 0.  0.
    9000005    1    3    3    0    0 -0.30853414909E+03  0.15777403122E+02 -0.40050759906E+03  0.50581576142E+03  0.99999687468E+00 0.  0.
          4    1    3    3  502    0  0.23094578012E+02 -0.16423326644E+03 -0.39046873145E+02  0.17038363666E+03  0.00000000000E+00 0.  1.
   -9000007    1    1    2    0  501  0.28543957108E+03  0.14845586332E+03  0.46891462824E+03  0.69526672628E+03  0.40000000000E+03 0. -1.
<mgrwt>
<rscale>  2 0.51359134E+03</rscale>
<asrwt>0</asrwt>
<pdfrwt beam="1">  1        3 0.10775587E+00 0.51359134E+03</pdfrwt>
<pdfrwt beam="2">  1       -3 0.10323892E+00 0.51359134E+03</pdfrwt>
<totfact> 0.15566658E+00</totfact>
</mgrwt>
</event>
<event>
 6    1  0.9022793E-004  0.4417829E+03  0.7818608E-02  0.1030201E+00
          1   -1    0    0  502    0  0.00000000000E+00  0.00000000000E+00  0.50176578042E+03  0.50176578042E+03  0.00000000000E+00 0.  1.
         -1   -1    0    0    0  501 -0.00000000000E+00 -0.00000000000E+00 -0.49339627878E+03  0.49339627878E+03  0.00000000000E+00 0. -1.
    9000007    2    1    2  502    0 -0.18615891524E+03 -0.21637965265E+02 -0.22472736054E+03  0.49570486342E+03  0.40012195863E+03 0.  0.
    9000005    1    3    3    0    0 -0.15236697921E+03 -0.19924119871E+03 -0.18209911405E+03  0.30995780188E+03  0.99999687468E+00 0.  0.
          4    1    3    3  502    0 -0.33791936024E+02  0.17760323344E+03 -0.42628246492E+02  0.18574706153E+03  0.00000000000E+00 0.  1.
   -9000007    1    1    2    0  501  0.18615891524E+03  0.21637965265E+02  0.23309686218E+03  0.49945719579E+03  0.40000000000E+03 0.  1.
<mgrwt>
<rscale>  2 0.44178290E+03</rscale>
<asrwt>0</asrwt>
<pdfrwt beam="1">  1        1 0.77194735E-01 0.44178290E+03</pdfrwt>
<pdfrwt beam="2">  1       -1 0.75907120E-01 0.44178290E+03</pdfrwt>
<totfact> 0.80649725E+01</totfact>
</mgrwt>
</event>
<event>
 6    1  0.9022793E-004  0.4228875E+03  0.7818608E-02  0.1036131E+00
          2   -1    0    0  502    0  0.00000000000E+00  0.00000000000E+00  0.19456298593E+04  0.19456298593E+04  0.00000000000E+00 0. -1.
         -2   -1    0    0    0  501 -0.00000000000E+00 -0.00000000000E+00 -0.12511763412E+03  0.12511763412E+03  0.00000000000E+00 0.  1.
    9000007    2    1    2  502    0  0.52727919536E+02 -0.12578309844E+03  0.14440495187E+04  0.15047741807E+04  0.40058045517E+03 0.  0.
    9000005    1    3    3    0    0  0.22389346257E+03 -0.63564426381E+02  0.95388473555E+03  0.98186852867E+03  0.99999687468E+00 0.  0.
          4    1    3    3  502    0 -0.17116554304E+03 -0.62218672060E+02  0.49016478318E+03  0.52290565205E+03  0.00000000000E+00 0.  1.
   -9000007    1    1    2    0  501 -0.52727919536E+02  0.12578309844E+03  0.37646270646E+03  0.56597331272E+03  0.40000000000E+03 0.  1.
<mgrwt>
<rscale>  2 0.42288748E+03</rscale>
<asrwt>0</asrwt>
<pdfrwt beam="1">  1        2 0.29932765E+00 0.42288748E+03</pdfrwt>
<pdfrwt beam="2">  1       -2 0.19248868E-01 0.42288748E+03</pdfrwt>
<totfact> 0.17397136E+02</totfact>
</mgrwt>
</event>
<event>
 6    1  0.9022793E-004  0.6704819E+03  0.7818608E-02  0.9769088E-01
          2   -1    0    0  502    0  0.00000000000E+00  0.00000000000E+00  0.70109942694E+03  0.70109942694E+03  0.00000000000E+00 0.  1.
         -2   -1    0    0    0  501 -0.00000000000E+00 -0.00000000000E+00 -0.68023920630E+03  0.68023920630E+03  0.00000000000E+00 0. -1.
    9000007    2    1    2  502    0 -0.51643791643E+03  0.15385234148E+03  0.17587563951E+03  0.69256548873E+03  0.39791462792E+03 0.  0.
    9000005    1    3    3    0    0 -0.51743759442E+03  0.15256685511E+03  0.23283109511E+02  0.53996426973E+03  0.99999687468E+00 0.  0.
          4    1    3    3  502    0  0.99967799528E+00  0.12854863668E+01  0.15259253000E+03  0.15260121900E+03  0.00000000000E+00 0.  1.
   -9000007    1    1    2    0  501  0.51643791643E+03 -0.15385234148E+03 -0.15501541887E+03  0.68877314450E+03  0.40000000000E+03 0.  1.
<mgrwt>
<rscale>  2 0.67048186E+03</rscale>
<asrwt>0</asrwt>
<pdfrwt beam="1">  1        2 0.10786145E+00 0.67048186E+03</pdfrwt>
<pdfrwt beam="2">  1       -2 0.10465218E+00 0.67048186E+03</pdfrwt>
<totfact> 0.30924749E+01</totfact>
</mgrwt>
</event>
<event>
 6    1  0.9022793E-004  0.4057858E+03  0.7818608E-02  0.1041794E+00
          1   -1    0    0  502    0  0.00000000000E+00  0.00000000000E+00  0.18763754062E+03  0.18763754062E+03  0.00000000000E+00 0. -1.
         -1   -1    0    0    0  501 -0.00000000000E+00 -0.00000000000E+00 -0.10635940134E+04  0.10635940134E+04  0.00000000000E+00 0.  1.
    9000007    2    1    2  502    0 -0.66881461929E+02  0.14774433543E+02 -0.17629506642E+03  0.44239442740E+03  0.39992682470E+03 0.  0.
    9000005    1    3    3    0    0  0.23773890891E+02 -0.29696361840E+02  0.12182922829E+03  0.12763397923E+03  0.99999687468E+00 0.  0.
          4    1    3    3  502    0 -0.90655352820E+02  0.44470795383E+02 -0.29812429471E+03  0.31476044817E+03  0.00000000000E+00 0.  1.
   -9000007    1    1    2    0  501  0.66881461929E+02 -0.14774433543E+02 -0.69966140632E+03  0.80883712657E+03  0.40000000000E+03 0.  1.
<mgrwt>
<rscale>  2 0.40578583E+03</rscale>
<asrwt>0</asrwt>
<pdfrwt beam="1">  1        1 0.28867314E-01 0.40578583E+03</pdfrwt>
<pdfrwt beam="2">  1       -1 0.16362985E+00 0.40578583E+03</pdfrwt>
<totfact> 0.46906948E+01</totfact>
</mgrwt>
</event>
<event>
 6    1  0.9022793E-004  0.4511145E+03  0.7818608E-02  0.1027390E+00
          1   -1    0    0  502    0  0.00000000000E+00  0.00000000000E+00  0.27016830003E+03  0.27016830003E+03  0.00000000000E+00 0. -1.
         -1   -1    0    0    0  501 -0.00000000000E+00 -0.00000000000E+00 -0.76296166885E+03  0.76296166885E+03  0.00000000000E+00 0.  1.
    9000007    2    1    2  502    0 -0.11258249419E+03  0.17661986568E+03 -0.30445712107E+03  0.54390615796E+03  0.39908692680E+03 0.  0.
    9000005    1    3    3    0    0 -0.16472853463E+03 -0.83276624304E+02 -0.14335513449E+03  0.23371388674E+03  0.99999687468E+00 0.  0.
          4    1    3    3  502    0  0.52146040441E+02  0.25989648999E+03 -0.16110198658E+03  0.31019227122E+03  0.00000000000E+00 0.  1.
   -9000007    1    1    2    0  501  0.11258249419E+03 -0.17661986568E+03 -0.18833624775E+03  0.48922381092E+03  0.40000000000E+03 0. -1.
<mgrwt>
<rscale>  2 0.45111446E+03</rscale>
<asrwt>0</asrwt>
<pdfrwt beam="1">  1        1 0.41564354E-01 0.45111446E+03</pdfrwt>
<pdfrwt beam="2">  1       -1 0.11737872E+00 0.45111446E+03</pdfrwt>
<totfact> 0.68660876E+01</totfact>
</mgrwt>
</event>
<event>
 6    1  0.9022793E-004  0.4847357E+03  0.7818608E-02  0.1017842E+00
         -1   -1    0    0    0  501 -0.00000000000E+00  0.00000000000E+00  0.25419295066E+03  0.25419295066E+03  0.00000000000E+00 0.  1.
          1   -1    0    0  502    0  0.00000000000E+00 -0.00000000000E+00 -0.94551053367E+03  0.94551053367E+03  0.00000000000E+00 0. -1.
    9000007    2    1    2  502    0 -0.24104786657E+03  0.13037193946E+03 -0.43525555849E+03  0.65137085082E+03  0.39966944784E+03 0.  0.
    9000005    1    3    3    0    0 -0.22150824358E+03 -0.59235587367E+01 -0.30305169261E+02  0.22365239503E+03  0.99999687468E+00 0.  0.
          4    1    3    3  502    0 -0.19539622984E+02  0.13629549819E+03 -0.40495038923E+03  0.42771845580E+03  0.00000000000E+00 0.  1.
   -9000007    1    1    2    0  501  0.24104786657E+03 -0.13037193946E+03 -0.25606202452E+03  0.54833263351E+03  0.40000000000E+03 0.  1.
<mgrwt>
<rscale>  2 0.48473571E+03</rscale>
<asrwt>0</asrwt>
<pdfrwt beam="1">  1        1 0.14546316E+00 0.48473571E+03</pdfrwt>
<pdfrwt beam="2">  1       -1 0.39106607E-01 0.48473571E+03</pdfrwt>
<totfact> 0.11079595E+02</totfact>
</mgrwt>
</event>
<event>
 6    1  0.9022793E-004  0.4770686E+03  0.7818608E-02  0.1019944E+00
         -2   -1    0    0    0  501 -0.00000000000E+00  0.00000000000E+00  0.51470647316E+03  0.51470647316E+03  0.00000000000E+00 0. -1.
          2   -1    0    0  502    0  0.00000000000E+00 -0.00000000000E+00 -0.44505711536E+03  0.44505711536E+03  0.00000000000E+00 0.  1.
    9000007    2    1    2  502    0  0.25722848807E+03 -0.34493814736E+02  0.73405875311E+02  0.48292983368E+03  0.40059516148E+03 0.  0.
    9000005    1    3    3    0    0  0.34055700535E+03 -0.11550497951E+03  0.71749448298E+02  0.36670077380E+03  0.99999687468E+00 0.  0.
          4    1    3    3  502    0 -0.83328517279E+02  0.81011164777E+02  0.16564270131E+01  0.11622905988E+03  0.00000000000E+00 0.  1.
   -9000007    1    1    2    0  501 -0.25722848807E+03  0.34493814736E+02 -0.37565175078E+01  0.47683375484E+03  0.40000000000E+03 0. -1.
<mgrwt>
<rscale>  2 0.47706859E+03</rscale>
<asrwt>0</asrwt>
<pdfrwt beam="1">  1        2 0.68470325E-01 0.47706859E+03</pdfrwt>
<pdfrwt beam="2">  1       -2 0.79185611E-01 0.47706859E+03</pdfrwt>
<totfact> 0.10240765E+02</totfact>
</mgrwt>
</event>
<event>
 6    1  0.9022793E-004  0.4068727E+03  0.7818608E-02  0.1041426E+00
          2   -1    0    0  502    0  0.00000000000E+00  0.00000000000E+00  0.14542176507E+04  0.14542176507E+04  0.00000000000E+00 0.  1.
         -2   -1    0    0    0  501 -0.00000000000E+00 -0.00000000000E+00 -0.16644810107E+03  0.16644810107E+03  0.00000000000E+00 0. -1.
    9000007    2    1    2  502    0  0.31414701001E+02 -0.66343316883E+02  0.10996667780E+04  0.11725910127E+04  0.40039273371E+03 0.  0.
    9000005    1    3    3    0    0 -0.14685466395E+03  0.13711789005E+02  0.18158287994E+03  0.23393941045E+03  0.99999687468E+00 0.  0.
          4    1    3    3  502    0  0.17826936495E+03 -0.80055105888E+02  0.91808389806E+03  0.93865160221E+03  0.00000000000E+00 0.  1.
   -9000007    1    1    2    0  501 -0.31414701001E+02  0.66343316883E+02  0.18810277164E+03  0.44807473912E+03  0.40000000000E+03 0. -1.
<mgrwt>
<rscale>  2 0.40687273E+03</rscale>
<asrwt>0</asrwt>
<pdfrwt beam="1">  1        2 0.22372578E+00 0.40687273E+03</pdfrwt>
<pdfrwt beam="2">  1       -2 0.25607401E-01 0.40687273E+03</pdfrwt>
<totfact> 0.19411600E+02</totfact>
</mgrwt>
</event>
<event>
 6    1  0.9022793E-004  0.4282089E+03  0.7818608E-02  0.1034427E+00
          2   -1    0    0  502    0  0.00000000000E+00  0.00000000000E+00  0.48536888697E+03  0.48536888697E+03  0.00000000000E+00 0.  1.
         -2   -1    0    0    0  501 -0.00000000000E+00 -0.00000000000E+00 -0.37877102954E+03  0.37877102954E+03  0.00000000000E+00 0. -1.
    9000007    2    1    2  502    0 -0.29595732685E+02 -0.14617302594E+03  0.31404617979E+02  0.43066963591E+03  0.40279973233E+03 0.  0.
    9000005    1    3    3    0    0  0.29028584995E+02  0.13616086456E+03 -0.89089112098E+01  0.13950916987E+03  0.99999687468E+00 0.  0.
          4    1    3    3  502    0 -0.58624317679E+02 -0.28233389050E+03  0.40313529189E+02  0.29116046604E+03  0.00000000000E+00 0.  1.
   -9000007    1    1    2    0  501  0.29595732685E+02  0.14617302594E+03  0.75193239445E+02  0.43347028060E+03  0.40000000000E+03 0.  1.
<mgrwt>
<rscale>  2 0.42820886E+03</rscale>
<asrwt>0</asrwt>
<pdfrwt beam="1">  1        2 0.74672136E-01 0.42820886E+03</pdfrwt>
<pdfrwt beam="2">  1       -2 0.58272466E-01 0.42820886E+03</pdfrwt>
<totfact> 0.18032371E+02</totfact>
</mgrwt>
</event>
<event>
 6    1  0.9022793E-004  0.4980844E+03  0.7818608E-02  0.1014280E+00
         -2   -1    0    0    0  501 -0.00000000000E+00  0.00000000000E+00  0.37102688382E+03  0.37102688382E+03  0.00000000000E+00 0. -1.
          2   -1    0    0  502    0  0.00000000000E+00 -0.00000000000E+00 -0.81861407685E+03  0.81861407685E+03  0.00000000000E+00 0.  1.
    9000007    2    1    2  502    0  0.10437587948E+03  0.27795009222E+03 -0.47835758187E+03  0.69054438203E+03  0.39984370626E+03 0.  0.
    9000005    1    3    3    0    0  0.79588084281E+02  0.27791854452E+03 -0.91978651033E+02  0.30337114692E+03  0.99999687468E+00 0.  0.
          4    1    3    3  502    0  0.24787795200E+02  0.31547698374E-01 -0.38637893084E+03  0.38717323511E+03  0.00000000000E+00 0.  1.
   -9000007    1    1    2    0  501 -0.10437587948E+03 -0.27795009222E+03  0.30770388850E+02  0.49909657864E+03  0.40000000000E+03 0. -1.
<mgrwt>
<rscale>  2 0.49808440E+03</rscale>
<asrwt>0</asrwt>
<pdfrwt beam="1">  1        2 0.12594063E+00 0.49808440E+03</pdfrwt>
<pdfrwt beam="2">  1       -2 0.57081059E-01 0.49808440E+03</pdfrwt>
<totfact> 0.99298604E+01</totfact>
</mgrwt>
</event>
<event>
 6    1  0.9022793E-004  0.5255278E+03  0.7818608E-02  0.1007323E+00
          2   -1    0    0  502    0  0.00000000000E+00  0.00000000000E+00  0.40769616262E+03  0.40769616262E+03  0.00000000000E+00 0. -1.
         -2   -1    0    0    0  501 -0.00000000000E+00 -0.00000000000E+00 -0.68928246811E+03  0.68928246811E+03  0.00000000000E+00 0.  1.
    9000007    2    1    2  502    0 -0.27377708135E+03 -0.20268026104E+03 -0.68860216380E+02  0.53015805289E+03  0.40036564932E+03 0.  0.
    9000005    1    3    3    0    0  0.64796299225E+02 -0.12055275607E+03  0.71663847456E+02  0.15449347694E+03  0.99999687468E+00 0.  0.
          4    1    3    3  502    0 -0.33857338058E+03 -0.82127504964E+02 -0.14052406384E+03  0.37566457595E+03  0.00000000000E+00 0.  1.
   -9000007    1    1    2    0  501  0.27377708135E+03  0.20268026104E+03 -0.21272608911E+03  0.56682057785E+03  0.40000000000E+03 0.  1.
<mgrwt>
<rscale>  2 0.52552780E+03</rscale>
<asrwt>0</asrwt>
<pdfrwt beam="1">  1        2 0.62722486E-01 0.52552780E+03</pdfrwt>
<pdfrwt beam="2">  1       -2 0.10604346E+00 0.52552780E+03</pdfrwt>
<totfact> 0.57390642E+01</totfact>
</mgrwt>
</event>
<event>
 6    1  0.9022793E-004  0.4983003E+03  0.7818608E-02  0.1014224E+00
         -2   -1    0    0    0  501 -0.00000000000E+00  0.00000000000E+00  0.22347326366E+03  0.22347326366E+03  0.00000000000E+00 0. -1.
          2   -1    0    0  502    0  0.00000000000E+00 -0.00000000000E+00 -0.11310616149E+04  0.11310616149E+04  0.00000000000E+00 0.  1.
    9000007    2    1    2  502    0  0.82964188115E+02 -0.28446274258E+03 -0.54419489756E+03  0.73820955001E+03  0.40125197167E+03 0.  0.
    9000005    1    3    3    0    0  0.18800072683E+03 -0.24838964218E+03 -0.54431235663E+03  0.62715120123E+03  0.99999687468E+00 0.  0.
          4    1    3    3  502    0 -0.10503653871E+03 -0.36073100399E+02  0.11745907322E+00  0.11105834878E+03  0.00000000000E+00 0.  1.
   -9000007    1    1    2    0  501 -0.82964188115E+02  0.28446274258E+03 -0.36339345366E+03  0.61632532853E+03  0.40000000000E+03 0.  1.
<mgrwt>
<rscale>  2 0.49830029E+03</rscale>
<asrwt>0</asrwt>
<pdfrwt beam="1">  1        2 0.17400948E+00 0.49830029E+03</pdfrwt>
<pdfrwt beam="2">  1       -2 0.34380503E-01 0.49830029E+03</pdfrwt>
<totfact> 0.17068054E+02</totfact>
</mgrwt>
</event>
<event>
 6    1  0.9022793E-004  0.4209457E+03  0.7818608E-02  0.1036759E+00
          2   -1    0    0  502    0  0.00000000000E+00  0.00000000000E+00  0.11121638390E+04  0.11121638390E+04  0.00000000000E+00 0. -1.
         -2   -1    0    0    0  501 -0.00000000000E+00 -0.00000000000E+00 -0.16419812710E+03  0.16419812710E+03  0.00000000000E+00 0.  1.
    9000007    2    1    2  502    0  0.32033896212E+02  0.12254388797E+03  0.58540722172E+03  0.72184250407E+03  0.40287939939E+03 0.  0.
    9000005    1    3    3    0    0 -0.27321749231E+02 -0.56129706954E+02  0.51817649305E+03  0.52192422814E+03  0.99999687468E+00 0.  0.
          4    1    3    3  502    0  0.59355645443E+02  0.17867359493E+03  0.67230728673E+02  0.19991827592E+03  0.00000000000E+00 0.  1.
   -9000007    1    1    2    0  501 -0.32033896212E+02 -0.12254388797E+03  0.36255849021E+03  0.55451946207E+03  0.40000000000E+03 0.  1.
<mgrwt>
<rscale>  2 0.42094573E+03</rscale>
<asrwt>0</asrwt>
<pdfrwt beam="1">  1        2 0.17110212E+00 0.42094573E+03</pdfrwt>
<pdfrwt beam="2">  1       -2 0.25261251E-01 0.42094573E+03</pdfrwt>
<totfact> 0.31079007E+02</totfact>
</mgrwt>
</event>
<event>
 6    1  0.9022793E-004  0.6790090E+03  0.7818608E-02  0.9753819E-01
         -3   -1    0    0    0  501 -0.00000000000E+00  0.00000000000E+00  0.36606146076E+03  0.36606146076E+03  0.00000000000E+00 0.  1.
          3   -1    0    0  502    0  0.00000000000E+00 -0.00000000000E+00 -0.14884510581E+04  0.14884510581E+04  0.00000000000E+00 0. -1.
    9000007    2    1    2  502    0 -0.48316078747E+03  0.26095000346E+03 -0.19727541167E+03  0.70674272165E+03  0.39878369538E+03 0.  0.
    9000005    1    3    3    0    0 -0.24202210154E+03  0.25344540614E+03 -0.28327633553E+03  0.45061708112E+03  0.99999687468E+00 0.  0.
          4    1    3    3  502    0 -0.24113868593E+03  0.75045973204E+01  0.86000923864E+02  0.25612564054E+03  0.00000000000E+00 0.  1.
   -9000007    1    1    2    0  501  0.48316078747E+03 -0.26095000346E+03 -0.92511418569E+03  0.11477697972E+04  0.40000000000E+03 0. -1.
<mgrwt>
<rscale>  2 0.67900899E+03</rscale>
<asrwt>0</asrwt>
<pdfrwt beam="1">  1        3 0.22899246E+00 0.67900899E+03</pdfrwt>
<pdfrwt beam="2">  1       -3 0.56317150E-01 0.67900899E+03</pdfrwt>
<totfact> 0.80137793E-01</totfact>
</mgrwt>
</event>
<event>
 6    1  0.9022793E-004  0.4311036E+03  0.7818608E-02  0.1033512E+00
         -2   -1    0    0    0  501 -0.00000000000E+00  0.00000000000E+00  0.54739472205E+03  0.54739472205E+03  0.00000000000E+00 0. -1.
          2   -1    0    0  502    0  0.00000000000E+00 -0.00000000000E+00 -0.97710673767E+03  0.97710673767E+03  0.00000000000E+00 0.  1.
    9000007    2    1    2  502    0  0.15631463598E+03  0.36808033903E+02 -0.83060804203E+03  0.93585324493E+03  0.40015307043E+03 0.  0.
    9000005    1    3    3    0    0 -0.80675837972E+02 -0.10238296264E+03 -0.13379859635E+03  0.18679916020E+03  0.99999687468E+00 0.  0.
          4    1    3    3  502    0  0.23699047395E+03  0.13919099654E+03 -0.69680944568E+03  0.74905408473E+03  0.00000000000E+00 0.  1.
   -9000007    1    1    2    0  501 -0.15631463598E+03 -0.36808033903E+02  0.40089602641E+03  0.58864821479E+03  0.40000000000E+03 0. -1.
<mgrwt>
<rscale>  2 0.43110361E+03</rscale>
<asrwt>0</asrwt>
<pdfrwt beam="1">  1        2 0.15032411E+00 0.43110361E+03</pdfrwt>
<pdfrwt beam="2">  1       -2 0.84214574E-01 0.43110361E+03</pdfrwt>
<totfact> 0.33882054E+01</totfact>
</mgrwt>
</event>
<event>
 6    1  0.9022793E-004  0.4122681E+03  0.7818608E-02  0.1039613E+00
          2   -1    0    0  502    0  0.00000000000E+00  0.00000000000E+00  0.48991956788E+03  0.48991956788E+03  0.00000000000E+00 0.  1.
         -2   -1    0    0    0  501 -0.00000000000E+00 -0.00000000000E+00 -0.44229622054E+03  0.44229622054E+03  0.00000000000E+00 0. -1.
    9000007    2    1    2  502    0  0.10547821976E+03  0.34332576334E+02 -0.19273499078E+03  0.45255287414E+03  0.39414838142E+03 0.  0.
    9000005    1    3    3    0    0  0.22810165642E+03 -0.58933946112E+02 -0.46501172200E+02  0.24013940676E+03  0.99999687468E+00 0.  0.
          4    1    3    3  502    0 -0.12262343667E+03  0.93266522446E+02 -0.14623381858E+03  0.21241346738E+03  0.00000000000E+00 0.  1.
   -9000007    1    1    2    0  501 -0.10547821976E+03 -0.34332576334E+02  0.24035833812E+03  0.47966291429E+03  0.40000000000E+03 0.  1.
<mgrwt>
<rscale>  2 0.41226808E+03</rscale>
<asrwt>0</asrwt>
<pdfrwt beam="1">  1        2 0.75372242E-01 0.41226808E+03</pdfrwt>
<pdfrwt beam="2">  1       -2 0.68045572E-01 0.41226808E+03</pdfrwt>
<totfact> 0.12868548E+02</totfact>
</mgrwt>
</event>
<event>
 6    1  0.9022793E-004  0.5672039E+03  0.7818608E-02  0.9975885E-01
          1   -1    0    0  502    0  0.00000000000E+00  0.00000000000E+00  0.96669292683E+03  0.96669292683E+03  0.00000000000E+00 0. -1.
         -1   -1    0    0    0  501 -0.00000000000E+00 -0.00000000000E+00 -0.70341541666E+03  0.70341541666E+03  0.00000000000E+00 0.  1.
    9000007    2    1    2  502    0  0.84081617095E+02  0.39031350469E+03 -0.47426424251E+03  0.74092473019E+03  0.40574441932E+03 0.  0.
    9000005    1    3    3    0    0  0.19443047795E+02  0.39647293970E+02  0.74428659379E+02  0.86548052302E+02  0.99999687468E+00 0.  0.
          4    1    3    3  502    0  0.64638569300E+02  0.35066621072E+03 -0.54869290189E+03  0.65437667789E+03  0.00000000000E+00 0.  1.
   -9000007    1    1    2    0  501 -0.84081617095E+02 -0.39031350469E+03  0.73754175268E+03  0.92918361329E+03  0.40000000000E+03 0. -1.
<mgrwt>
<rscale>  2 0.56720393E+03</rscale>
<asrwt>0</asrwt>
<pdfrwt beam="1">  1        1 0.14872199E+00 0.56720393E+03</pdfrwt>
<pdfrwt beam="2">  1       -1 0.10821776E+00 0.56720393E+03</pdfrwt>
<totfact> 0.13511044E+01</totfact>
</mgrwt>
</event>
<event>
 6    1  0.9022793E-004  0.4013964E+03  0.7818608E-02  0.1043297E+00
          2   -1    0    0  502    0  0.00000000000E+00  0.00000000000E+00  0.33375670027E+03  0.33375670027E+03  0.00000000000E+00 0.  1.
         -2   -1    0    0    0  501 -0.00000000000E+00 -0.00000000000E+00 -0.60890915932E+03  0.60890915932E+03  0.00000000000E+00 0. -1.
    9000007    2    1    2  502    0 -0.35169272044E+02 -0.45060778280E+01  0.77016705999E+02  0.40854948346E+03  0.39965475726E+03 0.  0.
    9000005    1    3    3    0    0 -0.16619921834E+03 -0.13247665091E+03  0.75799821983E+01  0.21267510276E+03  0.99999687468E+00 0.  0.
          4    1    3    3  502    0  0.13102994630E+03  0.12797057308E+03  0.69436723801E+02  0.19587438069E+03  0.00000000000E+00 0.  1.
   -9000007    1    1    2    0  501  0.35169272044E+02  0.45060778280E+01 -0.35216916506E+03  0.53411637613E+03  0.40000000000E+03 0. -1.
<mgrwt>
<rscale>  2 0.40139642E+03</rscale>
<asrwt>0</asrwt>
<pdfrwt beam="1">  1        2 0.51347184E-01 0.40139642E+03</pdfrwt>
<pdfrwt beam="2">  1       -2 0.93678333E-01 0.40139642E+03</pdfrwt>
<totfact> 0.96825527E+01</totfact>
</mgrwt>
</event>
<event>
 6    1  0.9022793E-004  0.4634598E+03  0.7818608E-02  0.1023783E+00
         -2   -1    0    0    0  501 -0.00000000000E+00  0.00000000000E+00  0.14116108502E+03  0.14116108502E+03  0.00000000000E+00 0.  1.
          2   -1    0    0  502    0  0.00000000000E+00 -0.00000000000E+00 -0.18331786311E+04  0.18331786311E+04  0.00000000000E+00 0. -1.
    9000007    2    1    2  502    0  0.13634929339E+03  0.19056171631E+03 -0.12527896503E+04  0.13357271246E+04  0.39972508823E+03 0.  0.
    9000005    1    3    3    0    0  0.22638958450E+03 -0.19960798017E+02 -0.50765014813E+03  0.55620171729E+03  0.99999687468E+00 0.  0.
          4    1    3    3  502    0 -0.90040291111E+02  0.21052251433E+03 -0.74513950212E+03  0.77952540734E+03  0.00000000000E+00 0.  1.
   -9000007    1    1    2    0  501 -0.13634929339E+03 -0.19056171631E+03 -0.43922789582E+03  0.63861259148E+03  0.40000000000E+03 0.  1.
<mgrwt>
<rscale>  2 0.46345975E+03</rscale>
<asrwt>0</asrwt>
<pdfrwt beam="1">  1        2 0.28202748E+00 0.46345975E+03</pdfrwt>
<pdfrwt beam="2">  1       -2 0.21717090E-01 0.46345975E+03</pdfrwt>
<totfact> 0.16100352E+02</totfact>
</mgrwt>
</event>
<event>
 6    1  0.9022793E-004  0.4361255E+03  0.7818608E-02  0.1031942E+00
          3   -1    0    0  502    0  0.00000000000E+00  0.00000000000E+00  0.22312624192E+03  0.22312624192E+03  0.00000000000E+00 0. -1.
         -3   -1    0    0    0  501 -0.00000000000E+00 -0.00000000000E+00 -0.86734323753E+03  0.86734323753E+03  0.00000000000E+00 0.  1.
    9000007    2    1    2  502    0 -0.69625729803E+02  0.15352395709E+03 -0.25221924798E+03  0.50559378171E+03  0.40446653187E+03 0.  0.
    9000005    1    3    3    0    0  0.90898733406E+02 -0.99487726107E+02 -0.48340098328E+02  0.14317175867E+03  0.99999687468E+00 0.  0.
          4    1    3    3  502    0 -0.16052446321E+03  0.25301168319E+03 -0.20387914965E+03  0.36242202304E+03  0.00000000000E+00 0.  1.
   -9000007    1    1    2    0  501  0.69625729803E+02 -0.15352395709E+03 -0.39199774764E+03  0.58487569774E+03  0.40000000000E+03 0. -1.
<mgrwt>
<rscale>  2 0.43612550E+03</rscale>
<asrwt>0</asrwt>
<pdfrwt beam="1">  1        3 0.34327115E-01 0.43612550E+03</pdfrwt>
<pdfrwt beam="2">  1       -3 0.13343742E+00 0.43612550E+03</pdfrwt>
<totfact> 0.95159866E+00</totfact>
</mgrwt>
</event>
<event>
 6    1  0.9022793E-004  0.4737369E+03  0.7818608E-02  0.1020871E+00
          1   -1    0    0  502    0  0.00000000000E+00  0.00000000000E+00  0.99378202493E+03  0.99378202493E+03  0.00000000000E+00 0.  1.
         -1   -1    0    0    0  501 -0.00000000000E+00 -0.00000000000E+00 -0.44088358112E+03  0.44088358112E+03  0.00000000000E+00 0. -1.
    9000007    2    1    2  502    0  0.24801624168E+03  0.43619785784E+02 -0.22422123444E+03  0.52508892639E+03  0.40252760998E+03 0.  0.
    9000005    1    3    3    0    0  0.58722861777E+02  0.19394008936E+03 -0.11279282447E+02  0.20295160744E+03  0.99999687468E+00 0.  0.
          4    1    3    3  502    0  0.18929337990E+03 -0.15032030357E+03 -0.21294195200E+03  0.32213731895E+03  0.00000000000E+00 0.  1.
   -9000007    1    1    2    0  501 -0.24801624168E+03 -0.43619785784E+02  0.77711967826E+03  0.90957667966E+03  0.40000000000E+03 0.  1.
<mgrwt>
<rscale>  2 0.47373694E+03</rscale>
<asrwt>0</asrwt>
<pdfrwt beam="1">  1        1 0.15288954E+00 0.47373694E+03</pdfrwt>
<pdfrwt beam="2">  1       -1 0.67828243E-01 0.47373694E+03</pdfrwt>
<totfact> 0.35867183E+01</totfact>
</mgrwt>
</event>
<event>
 6    1  0.9022793E-004  0.3997212E+03  0.7818608E-02  0.1043876E+00
         -2   -1    0    0    0  501 -0.00000000000E+00  0.00000000000E+00  0.85403354903E+02  0.85403354903E+02  0.00000000000E+00 0.  1.
          2   -1    0    0  502    0  0.00000000000E+00 -0.00000000000E+00 -0.28506358035E+04  0.28506358035E+04  0.00000000000E+00 0. -1.
    9000007    2    1    2  502    0  0.64343568541E+01  0.21740024263E+02 -0.22411715079E+04  0.22763772002E+04  0.39815750637E+03 0.  0.
    9000005    1    3    3    0    0  0.15402395319E+03  0.11935931821E+03 -0.75632846444E+03  0.78102738180E+03  0.99999687468E+00 0.  0.
          4    1    3    3  502    0 -0.14758959634E+03 -0.97619293948E+02 -0.14848430435E+04  0.14953498184E+04  0.00000000000E+00 0.  1.
   -9000007    1    1    2    0  501 -0.64343568541E+01 -0.21740024263E+02 -0.52406094064E+03  0.65966195821E+03  0.40000000000E+03 0.  1.
<mgrwt>
<rscale>  2 0.39972120E+03</rscale>
<asrwt>0</asrwt>
<pdfrwt beam="1">  1        2 0.43855936E+00 0.39972120E+03</pdfrwt>
<pdfrwt beam="2">  1       -2 0.13138978E-01 0.39972120E+03</pdfrwt>
<totfact> 0.10504847E+02</totfact>
</mgrwt>
</event>
<event>
 6    1  0.9022793E-004  0.4866266E+03  0.7818608E-02  0.1017330E+00
         -2   -1    0    0    0  501 -0.00000000000E+00  0.00000000000E+00  0.46215862383E+03  0.46215862383E+03  0.00000000000E+00 0.  1.
          2   -1    0    0  502    0  0.00000000000E+00 -0.00000000000E+00 -0.58504789839E+03  0.58504789839E+03  0.00000000000E+00 0. -1.
    9000007    2    1    2  502    0 -0.25618174690E+03 -0.10635177300E+03  0.12309253157E+03  0.50181965401E+03  0.39966411743E+03 0.  0.
    9000005    1    3    3    0    0 -0.25465989764E+02 -0.14307929265E+03 -0.10188243723E+03  0.17748586318E+03  0.99999687468E+00 0.  0.
          4    1    3    3  502    0 -0.23071575713E+03  0.36727519654E+02  0.22497496880E+03  0.32433379083E+03  0.00000000000E+00 0.  1.
   -9000007    1    1    2    0  501  0.25618174690E+03  0.10635177300E+03 -0.24598180613E+03  0.54538686820E+03  0.40000000000E+03 0. -1.
<mgrwt>
<rscale>  2 0.48662660E+03</rscale>
<asrwt>0</asrwt>
<pdfrwt beam="1">  1        2 0.90007369E-01 0.48662660E+03</pdfrwt>
<pdfrwt beam="2">  1       -2 0.71101327E-01 0.48662660E+03</pdfrwt>
<totfact> 0.94663635E+01</totfact>
</mgrwt>
</event>
<event>
 6    1  0.9022793E-004  0.4617616E+03  0.7818608E-02  0.1024272E+00
         -1   -1    0    0    0  501 -0.00000000000E+00  0.00000000000E+00  0.76425272188E+03  0.76425272188E+03  0.00000000000E+00 0. -1.
          1   -1    0    0  502    0  0.00000000000E+00 -0.00000000000E+00 -0.35735221066E+03  0.35735221066E+03  0.00000000000E+00 0.  1.
    9000007    2    1    2  502    0  0.20703091727E+03  0.10223035031E+03 -0.59184499195E+02  0.46544330447E+03  0.39977721233E+03 0.  0.
    9000005    1    3    3    0    0  0.25604770703E+03 -0.64937452083E+02  0.36537934047E+02  0.26667081125E+03  0.99999687468E+00 0.  0.
          4    1    3    3  502    0 -0.49016789753E+02  0.16716780239E+03 -0.95722433242E+02  0.19877249321E+03  0.00000000000E+00 0.  1.
   -9000007    1    1    2    0  501 -0.20703091727E+03 -0.10223035031E+03  0.46608501041E+03  0.65616162808E+03  0.40000000000E+03 0. -1.
<mgrwt>
<rscale>  2 0.46176156E+03</rscale>
<asrwt>0</asrwt>
<pdfrwt beam="1">  1        1 0.54977264E-01 0.46176156E+03</pdfrwt>
<pdfrwt beam="2">  1       -1 0.11757734E+00 0.46176156E+03</pdfrwt>
<totfact> 0.47679444E+01</totfact>
</mgrwt>
</event>
<event>
 6    1  0.9022793E-004  0.4150081E+03  0.7818608E-02  0.1038703E+00
         -2   -1    0    0    0  501 -0.00000000000E+00  0.00000000000E+00  0.23451769744E+03  0.23451769744E+03  0.00000000000E+00 0.  1.
          2   -1    0    0  502    0  0.00000000000E+00 -0.00000000000E+00 -0.95329023043E+03  0.95329023043E+03  0.00000000000E+00 0. -1.
    9000007    2    1    2  502    0  0.10155554500E+03  0.43872755720E+02 -0.64396379618E+03  0.76610341696E+03  0.39998340875E+03 0.  0.
    9000005    1    3    3    0    0  0.23078569056E+03  0.83579869675E+02 -0.54756029059E+03  0.60005908159E+03  0.99999687468E+00 0.  0.
          4    1    3    3  502    0 -0.12923014555E+03 -0.39707113955E+02 -0.96403505591E+02  0.16604433537E+03  0.00000000000E+00 0.  1.
   -9000007    1    1    2    0  501 -0.10155554500E+03 -0.43872755720E+02 -0.74808736807E+02  0.42170451091E+03  0.40000000000E+03 0.  1.
<mgrwt>
<rscale>  2 0.41500809E+03</rscale>
<asrwt>0</asrwt>
<pdfrwt beam="1">  1        2 0.14666003E+00 0.41500809E+03</pdfrwt>
<pdfrwt beam="2">  1       -2 0.36079646E-01 0.41500809E+03</pdfrwt>
<totfact> 0.20218237E+02</totfact>
</mgrwt>
</event>
<event>
 6    1  0.9022793E-004  0.4742452E+03  0.7818608E-02  0.1020729E+00
          1   -1    0    0  502    0  0.00000000000E+00  0.00000000000E+00  0.59088982848E+03  0.59088982848E+03  0.00000000000E+00 0. -1.
         -1   -1    0    0    0  501 -0.00000000000E+00 -0.00000000000E+00 -0.60575318655E+03  0.60575318655E+03  0.00000000000E+00 0.  1.
    9000007    2    1    2  502    0  0.25288676119E+03  0.25968162446E+02  0.35731907621E+03  0.59402719726E+03  0.40070603865E+03 0.  0.
    9000005    1    3    3    0    0 -0.56370610965E+02 -0.11941831561E+03  0.84793025637E+02  0.15693704812E+03  0.99999687468E+00 0.  0.
          4    1    3    3  502    0  0.30925737216E+03  0.14538647805E+03  0.27252605057E+03  0.43709014914E+03  0.00000000000E+00 0.  1.
   -9000007    1    1    2    0  501 -0.25288676119E+03 -0.25968162446E+02 -0.37218243427E+03  0.60261581777E+03  0.40000000000E+03 0.  1.
<mgrwt>
<rscale>  2 0.47424524E+03</rscale>
<asrwt>0</asrwt>
<pdfrwt beam="1">  1        1 0.90906128E-01 0.47424524E+03</pdfrwt>
<pdfrwt beam="2">  1       -1 0.93192798E-01 0.47424524E+03</pdfrwt>
<totfact> 0.41330630E+01</totfact>
</mgrwt>
</event>
<event>
 6    1  0.9022793E-004  0.4744811E+03  0.7818608E-02  0.1020663E+00
          2   -1    0    0  502    0  0.00000000000E+00  0.00000000000E+00  0.61020773924E+03  0.61020773924E+03  0.00000000000E+00 0.  1.
         -2   -1    0    0    0  501 -0.00000000000E+00 -0.00000000000E+00 -0.37263446814E+03  0.37263446814E+03  0.00000000000E+00 0. -1.
    9000007    2    1    2  502    0 -0.17487566777E+03  0.18574815742E+03  0.16770591652E+03  0.50329520823E+03  0.40012112544E+03 0.  0.
    9000005    1    3    3    0    0  0.13590242819E+02 -0.11700524570E+03  0.46435629541E+02  0.12661828425E+03  0.99999687468E+00 0.  0.
          4    1    3    3  502    0 -0.18846591059E+03  0.30275340312E+03  0.12127028698E+03  0.37667692398E+03  0.00000000000E+00 0.  1.
   -9000007    1    1    2    0  501  0.17487566777E+03 -0.18574815742E+03  0.69867354577E+02  0.47954699916E+03  0.40000000000E+03 0. -1.
<mgrwt>
<rscale>  2 0.47448112E+03</rscale>
<asrwt>0</asrwt>
<pdfrwt beam="1">  1        2 0.93878114E-01 0.47448112E+03</pdfrwt>
<pdfrwt beam="2">  1       -2 0.57328380E-01 0.47448112E+03</pdfrwt>
<totfact> 0.14245547E+02</totfact>
</mgrwt>
</event>
<event>
 6    1  0.9022793E-004  0.4153288E+03  0.7818608E-02  0.1038597E+00
         -1   -1    0    0    0  501 -0.00000000000E+00  0.00000000000E+00  0.93932426735E+03  0.93932426735E+03  0.00000000000E+00 0.  1.
          1   -1    0    0  502    0  0.00000000000E+00 -0.00000000000E+00 -0.18773509479E+03  0.18773509479E+03  0.00000000000E+00 0. -1.
    9000007    2    1    2  502    0 -0.11227962846E+02  0.11069042392E+03  0.29269878612E+03  0.50822269236E+03  0.40029899892E+03 0.  0.
    9000005    1    3    3    0    0  0.12502862336E+02 -0.61111306911E+02 -0.77454021297E+02  0.99453701830E+02  0.99999687468E+00 0.  0.
          4    1    3    3  502    0 -0.23730825181E+02  0.17180173083E+03  0.37015280742E+03  0.40876899053E+03  0.00000000000E+00 0.  1.
   -9000007    1    1    2    0  501  0.11227962846E+02 -0.11069042392E+03  0.45889038645E+03  0.61883666978E+03  0.40000000000E+03 0.  1.
<mgrwt>
<rscale>  2 0.41532883E+03</rscale>
<asrwt>0</asrwt>
<pdfrwt beam="1">  1        1 0.28882323E-01 0.41532883E+03</pdfrwt>
<pdfrwt beam="2">  1       -1 0.14451142E+00 0.41532883E+03</pdfrwt>
<totfact> 0.65372932E+01</totfact>
</mgrwt>
</event>
<event>
 6    1  0.9022793E-004  0.3999360E+03  0.7818608E-02  0.1043802E+00
         -2   -1    0    0    0  501 -0.00000000000E+00  0.00000000000E+00  0.87490304765E+02  0.87490304765E+02  0.00000000000E+00 0. -1.
          2   -1    0    0  502    0  0.00000000000E+00 -0.00000000000E+00 -0.18909370717E+04  0.18909370717E+04  0.00000000000E+00 0.  1.
    9000007    2    1    2  502    0  0.11079748799E+02 -0.29982451950E+01 -0.10814227335E+04  0.11529272521E+04  0.39954270112E+03 0.  0.
    9000005    1    3    3    0    0 -0.18643349044E+03 -0.37820366810E+02 -0.40602657210E+03  0.44838198419E+03  0.99999687468E+00 0.  0.
          4    1    3    3  502    0  0.19751323924E+03  0.34822121615E+02 -0.67539616135E+03  0.70454526796E+03  0.00000000000E+00 0.  1.
   -9000007    1    1    2    0  501 -0.11079748799E+02  0.29982451950E+01 -0.72202403343E+03  0.82550012427E+03  0.40000000000E+03 0. -1.
<mgrwt>
<rscale>  2 0.39993603E+03</rscale>
<asrwt>0</asrwt>
<pdfrwt beam="1">  1        2 0.29091338E+00 0.39993603E+03</pdfrwt>
<pdfrwt beam="2">  1       -2 0.13460048E-01 0.39993603E+03</pdfrwt>
<totfact> 0.34137812E+02</totfact>
</mgrwt>
</event>
<event>
 6    1  0.9022793E-004  0.4408103E+03  0.7818608E-02  0.1030498E+00
          1   -1    0    0  502    0  0.00000000000E+00  0.00000000000E+00  0.55940046851E+03  0.55940046851E+03  0.00000000000E+00 0. -1.
         -1   -1    0    0    0  501 -0.00000000000E+00 -0.00000000000E+00 -0.35209796287E+03  0.35209796287E+03  0.00000000000E+00 0.  1.
    9000007    2    1    2  502    0  0.34704171927E+02 -0.18292851141E+03  0.50695616298E+02  0.44331797726E+03  0.39911597764E+03 0.  0.
    9000005    1    3    3    0    0  0.95507504559E+01 -0.27945239254E+03  0.13703723189E+03  0.31139213133E+03  0.99999687468E+00 0.  0.
          4    1    3    3  502    0  0.25153421471E+02  0.96523881132E+02 -0.86341615596E+02  0.13192584593E+03  0.00000000000E+00 0.  1.
   -9000007    1    1    2    0  501 -0.34704171927E+02  0.18292851141E+03  0.15660688934E+03  0.46818045413E+03  0.40000000000E+03 0. -1.
<mgrwt>
<rscale>  2 0.44081025E+03</rscale>
<asrwt>0</asrwt>
<pdfrwt beam="1">  1        1 0.86061610E-01 0.44081025E+03</pdfrwt>
<pdfrwt beam="2">  1       -1 0.54168917E-01 0.44081025E+03</pdfrwt>
<totfact> 0.13567718E+02</totfact>
</mgrwt>
</event>
<event>
 6    1  0.9022793E-004  0.4351950E+03  0.7818608E-02  0.1032231E+00
          1   -1    0    0  502    0  0.00000000000E+00  0.00000000000E+00  0.83736570503E+03  0.83736570503E+03  0.00000000000E+00 0. -1.
         -1   -1    0    0    0  501 -0.00000000000E+00 -0.00000000000E+00 -0.26974422069E+03  0.26974422069E+03  0.00000000000E+00 0.  1.
    9000007    2    1    2  502    0 -0.86853850033E+00 -0.17262079626E+03  0.50601739180E+03  0.66711701909E+03  0.39898975263E+03 0.  0.
    9000005    1    3    3    0    0  0.40207060314E+02  0.11304215960E+03  0.26579270644E+03  0.29161944437E+03  0.99999687468E+00 0.  0.
          4    1    3    3  502    0 -0.41075598814E+02 -0.28566295586E+03  0.24022468536E+03  0.37549757472E+03  0.00000000000E+00 0.  1.
   -9000007    1    1    2    0  501  0.86853850033E+00  0.17262079626E+03  0.61604092547E+02  0.43999290662E+03  0.40000000000E+03 0.  1.
<mgrwt>
<rscale>  2 0.43519499E+03</rscale>
<asrwt>0</asrwt>
<pdfrwt beam="1">  1        1 0.12882549E+00 0.43519499E+03</pdfrwt>
<pdfrwt beam="2">  1       -1 0.41499111E-01 0.43519499E+03</pdfrwt>
<totfact> 0.12240564E+02</totfact>
</mgrwt>
</event>
<event>
 6    1  0.9022793E-004  0.6906670E+03  0.7818608E-02  0.9733327E-01
         -4   -1    0    0    0  501 -0.00000000000E+00  0.00000000000E+00  0.69984244957E+03  0.69984244957E+03  0.00000000000E+00 0.  1.
          4   -1    0    0  502    0  0.00000000000E+00 -0.00000000000E+00 -0.17181941730E+04  0.17181941730E+04  0.00000000000E+00 0. -1.
    9000007    2    1    2  502    0 -0.55958674733E+03 -0.62656582818E+02  0.42990455633E+03  0.81350883315E+03  0.39989438468E+03 0.  0.
    9000005    1    3    3    0    0 -0.25463353247E+03  0.14809492597E+03  0.83552712152E+02  0.30619013482E+03  0.99999687468E+00 0.  0.
          4    1    3    3  502    0 -0.30495321486E+03 -0.21075150879E+03  0.34635184418E+03  0.50731869833E+03  0.00000000000E+00 0.  1.
   -9000007    1    1    2    0  501  0.55958674733E+03  0.62656582818E+02 -0.14482562798E+04  0.16045277894E+04  0.40000000000E+03 0. -1.
<mgrwt>
<rscale>  2 0.69066702E+03</rscale>
<asrwt>0</asrwt>
<pdfrwt beam="1">  1        4 0.26433756E+00 0.69066702E+03</pdfrwt>
<pdfrwt beam="2">  1       -4 0.10766807E+00 0.69066702E+03</pdfrwt>
<totfact> 0.70759691E-02</totfact>
</mgrwt>
</event>
<event>
 6    1  0.9022793E-004  0.4436238E+03  0.7818608E-02  0.1029641E+00
         -2   -1    0    0    0  501 -0.00000000000E+00  0.00000000000E+00  0.19638334023E+03  0.19638334023E+03  0.00000000000E+00 0. -1.
          2   -1    0    0  502    0  0.00000000000E+00 -0.00000000000E+00 -0.10361494729E+04  0.10361494729E+04  0.00000000000E+00 0.  1.
    9000007    2    1    2  502    0 -0.18017747193E+03 -0.66465261538E+02 -0.30813861759E+03  0.54006666436E+03  0.39980125303E+03 0.  0.
    9000005    1    3    3    0    0  0.58628698283E+02  0.45258652910E+01  0.67369694835E+02  0.89428650302E+02  0.99999687468E+00 0.  0.
          4    1    3    3  502    0 -0.23880617021E+03 -0.70991126829E+02 -0.37550831242E+03  0.45063801406E+03  0.00000000000E+00 0.  1.
   -9000007    1    1    2    0  501  0.18017747193E+03  0.66465261538E+02 -0.53162751507E+03  0.69246614875E+03  0.40000000000E+03 0. -1.
<mgrwt>
<rscale>  2 0.44362378E+03</rscale>
<asrwt>0</asrwt>
<pdfrwt beam="1">  1        2 0.15940761E+00 0.44362378E+03</pdfrwt>
<pdfrwt beam="2">  1       -2 0.30212822E-01 0.44362378E+03</pdfrwt>
<totfact> 0.24920585E+02</totfact>
</mgrwt>
</event>
<event>
 6    1  0.9022793E-004  0.5160509E+03  0.7818608E-02  0.1009672E+00
          2   -1    0    0  502    0  0.00000000000E+00  0.00000000000E+00  0.69200725747E+03  0.69200725747E+03  0.00000000000E+00 0.  1.
         -2   -1    0    0    0  501 -0.00000000000E+00 -0.00000000000E+00 -0.45640020259E+03  0.45640020259E+03  0.00000000000E+00 0. -1.
    9000007    2    1    2  502    0 -0.22369150217E+03 -0.23819700283E+03  0.34509173840E+03  0.62042772917E+03  0.39883149189E+03 0.  0.
    9000005    1    3    3    0    0  0.30892529983E+02 -0.23819031285E+03  0.25516731203E+03  0.35042878116E+03  0.99999687468E+00 0.  0.
          4    1    3    3  502    0 -0.25458403215E+03 -0.66899816994E-02  0.89924426363E+02  0.26999894801E+03  0.00000000000E+00 0.  1.
   -9000007    1    1    2    0  501  0.22369150217E+03  0.23819700283E+03 -0.10948468353E+03  0.52797973088E+03  0.40000000000E+03 0. -1.
<mgrwt>
<rscale>  2 0.51605094E+03</rscale>
<asrwt>0</asrwt>
<pdfrwt beam="1">  1        2 0.10646265E+00 0.51605094E+03</pdfrwt>
<pdfrwt beam="2">  1       -2 0.70215416E-01 0.51605094E+03</pdfrwt>
<totfact> 0.79156208E+01</totfact>
</mgrwt>
</event>
<event>
 6    1  0.9022793E-004  0.4406691E+03  0.7818608E-02  0.1030542E+00
          2   -1    0    0  502    0  0.00000000000E+00  0.00000000000E+00  0.90394847250E+03  0.90394847250E+03  0.00000000000E+00 0.  1.
         -2   -1    0    0    0  501 -0.00000000000E+00 -0.00000000000E+00 -0.23252599459E+03  0.23252599459E+03  0.00000000000E+00 0. -1.
    9000007    2    1    2  502    0 -0.67750919384E+02 -0.17185213464E+03  0.49255191055E+03  0.66095577858E+03  0.40016473283E+03 0.  0.
    9000005    1    3    3    0    0  0.32043196593E+02 -0.11001404775E+03 -0.35537498451E+02  0.11997404278E+03  0.99999687468E+00 0.  0.
          4    1    3    3  502    0 -0.99794115977E+02 -0.61838086884E+02  0.52808940900E+03  0.54098173580E+03  0.00000000000E+00 0.  1.
   -9000007    1    1    2    0  501  0.67750919384E+02  0.17185213464E+03  0.17887056736E+03  0.47551868851E+03  0.40000000000E+03 0. -1.
<mgrwt>
<rscale>  2 0.44066908E+03</rscale>
<asrwt>0</asrwt>
<pdfrwt beam="1">  1        2 0.13906899E+00 0.44066908E+03</pdfrwt>
<pdfrwt beam="2">  1       -2 0.35773230E-01 0.44066908E+03</pdfrwt>
<totfact> 0.22067391E+02</totfact>
</mgrwt>
</event>
<event>
 6    1  0.9022793E-004  0.5168169E+03  0.7818608E-02  0.1009480E+00
          2   -1    0    0  502    0  0.00000000000E+00  0.00000000000E+00  0.44357636122E+03  0.44357636122E+03  0.00000000000E+00 0.  1.
         -2   -1    0    0    0  501 -0.00000000000E+00 -0.00000000000E+00 -0.66698152556E+03  0.66698152556E+03  0.00000000000E+00 0. -1.
    9000007    2    1    2  502    0 -0.22528598063E+03  0.23645478151E+03 -0.28490373713E+03  0.59051297408E+03  0.40108701844E+03 0.  0.
    9000005    1    3    3    0    0 -0.76045447535E+02 -0.94816246565E+02 -0.17089027016E+03  0.20970816659E+03  0.99999687468E+00 0.  0.
          4    1    3    3  502    0 -0.14924053310E+03  0.33127102807E+03 -0.11401346697E+03  0.38080480749E+03  0.00000000000E+00 0.  1.
   -9000007    1    1    2    0  501  0.22528598063E+03 -0.23645478151E+03  0.61498572790E+02  0.52004491270E+03  0.40000000000E+03 0. -1.
<mgrwt>
<rscale>  2 0.51681687E+03</rscale>
<asrwt>0</asrwt>
<pdfrwt beam="1">  1        2 0.68242517E-01 0.51681687E+03</pdfrwt>
<pdfrwt beam="2">  1       -2 0.10261254E+00 0.51681687E+03</pdfrwt>
<totfact> 0.56504754E+01</totfact>
</mgrwt>
</event>
<event>
 6    1  0.9022793E-004  0.4118614E+03  0.7818608E-02  0.1039748E+00
         -1   -1    0    0    0  501 -0.00000000000E+00  0.00000000000E+00  0.11627873513E+04  0.11627873513E+04  0.00000000000E+00 0. -1.
          1   -1    0    0  502    0  0.00000000000E+00 -0.00000000000E+00 -0.15689571235E+03  0.15689571235E+03  0.00000000000E+00 0.  1.
    9000007    2    1    2  502    0 -0.92269992018E+01  0.98595805170E+02  0.67752571452E+03  0.79277657226E+03  0.39955891854E+03 0.  0.
    9000005    1    3    3    0    0  0.52095769041E+02  0.24061245580E+03  0.32427824022E+03  0.40714334099E+03  0.99999687468E+00 0.  0.
          4    1    3    3  502    0 -0.61322768242E+02 -0.14201665063E+03  0.35324747430E+03  0.38563323127E+03  0.00000000000E+00 0.  1.
   -9000007    1    1    2    0  501  0.92269992018E+01 -0.98595805170E+02  0.32836592438E+03  0.52690649133E+03  0.40000000000E+03 0.  1.
<mgrwt>
<rscale>  2 0.41186144E+03</rscale>
<asrwt>0</asrwt>
<pdfrwt beam="1">  1        1 0.24137803E-01 0.41186144E+03</pdfrwt>
<pdfrwt beam="2">  1       -1 0.17889036E+00 0.41186144E+03</pdfrwt>
<totfact> 0.45828005E+01</totfact>
</mgrwt>
</event>
<event>
 6    1  0.9022793E-004  0.4970631E+03  0.7818608E-02  0.1014548E+00
          2   -1    0    0  502    0  0.00000000000E+00  0.00000000000E+00  0.10091739569E+04  0.10091739569E+04  0.00000000000E+00 0.  1.
         -2   -1    0    0    0  501 -0.00000000000E+00 -0.00000000000E+00 -0.25922992426E+03  0.25922992426E+03  0.00000000000E+00 0. -1.
    9000007    2    1    2  502    0 -0.82627759062E+02 -0.28306285162E+03  0.52455386957E+03  0.72273672054E+03  0.40029948863E+03 0.  0.
    9000005    1    3    3    0    0  0.10891018529E+03 -0.89627085850E+02  0.10980546651E+02  0.14147796781E+03  0.99999687468E+00 0.  0.
          4    1    3    3  502    0 -0.19153794435E+03 -0.19343576578E+03  0.51357332292E+03  0.58125875273E+03  0.00000000000E+00 0.  1.
   -9000007    1    1    2    0  501  0.82627759062E+02  0.28306285162E+03  0.22539016302E+03  0.54566716057E+03  0.40000000000E+03 0.  1.
<mgrwt>
<rscale>  2 0.49706311E+03</rscale>
<asrwt>0</asrwt>
<pdfrwt beam="1">  1        2 0.15525753E+00 0.49706311E+03</pdfrwt>
<pdfrwt beam="2">  1       -2 0.39881527E-01 0.49706311E+03</pdfrwt>
<totfact> 0.15257959E+02</totfact>
</mgrwt>
</event>
<event>
 6    1  0.9022793E-004  0.6322250E+03  0.7818608E-02  0.9840716E-01
          2   -1    0    0  502    0  0.00000000000E+00  0.00000000000E+00  0.25210269141E+04  0.25210269141E+04  0.00000000000E+00 0.  1.
         -2   -1    0    0    0  501 -0.00000000000E+00 -0.00000000000E+00 -0.16008885616E+03  0.16008885616E+03  0.00000000000E+00 0. -1.
    9000007    2    1    2  502    0  0.31609014960E+03 -0.37748057190E+03  0.10451783989E+04  0.12204213994E+04  0.39322505218E+03 0.  0.
    9000005    1    3    3    0    0  0.40290128083E+03 -0.25443690554E+03  0.84252977955E+03  0.96794886766E+03  0.99999687468E+00 0.  0.
          4    1    3    3  502    0 -0.86811131230E+02 -0.12304366636E+03  0.20264861936E+03  0.25247253170E+03  0.00000000000E+00 0.  1.
   -9000007    1    1    2    0  501 -0.31609014960E+03  0.37748057190E+03  0.13157596591E+04  0.14606943709E+04  0.40000000000E+03 0.  1.
<mgrwt>
<rscale>  2 0.63222504E+03</rscale>
<asrwt>0</asrwt>
<pdfrwt beam="1">  1        2 0.38785026E+00 0.63222504E+03</pdfrwt>
<pdfrwt beam="2">  1       -2 0.24629057E-01 0.63222504E+03</pdfrwt>
<totfact> 0.52789116E+01</totfact>
</mgrwt>
</event>
<event>
 6    1  0.9022793E-004  0.4133685E+03  0.7818608E-02  0.1039247E+00
          3   -1    0    0  502    0  0.00000000000E+00  0.00000000000E+00  0.10514154217E+03  0.10514154217E+03  0.00000000000E+00 0. -1.
         -3   -1    0    0    0  501 -0.00000000000E+00 -0.00000000000E+00 -0.19571296099E+04  0.19571296099E+04  0.00000000000E+00 0.  1.
    9000007    2    1    2  502    0 -0.44964132405E+02 -0.95684831500E+02 -0.50064854472E+03  0.64901396860E+03  0.39924028595E+03 0.  0.
    9000005    1    3    3    0    0  0.26154654427E+02  0.13288066888E+03 -0.61244027442E+02  0.14863771056E+03  0.99999687468E+00 0.  0.
          4    1    3    3  502    0 -0.71118786832E+02 -0.22856550038E+03 -0.43940451728E+03  0.50037625804E+03  0.00000000000E+00 0.  1.
   -9000007    1    1    2    0  501  0.44964132405E+02  0.95684831500E+02 -0.13513395231E+04  0.14132571835E+04  0.40000000000E+03 0.  1.
<mgrwt>
<rscale>  2 0.41336847E+03</rscale>
<asrwt>0</asrwt>
<pdfrwt beam="1">  1        3 0.16175622E-01 0.41336847E+03</pdfrwt>
<pdfrwt beam="2">  1       -3 0.30109687E+00 0.41336847E+03</pdfrwt>
<totfact> 0.34462392E+00</totfact>
</mgrwt>
</event>
<event>
 6    1  0.9022793E-004  0.4276285E+03  0.7818608E-02  0.1034612E+00
         -1   -1    0    0    0  501 -0.00000000000E+00  0.00000000000E+00  0.32704771683E+03  0.32704771683E+03  0.00000000000E+00 0. -1.
          1   -1    0    0  502    0  0.00000000000E+00 -0.00000000000E+00 -0.59349226522E+03  0.59349226522E+03  0.00000000000E+00 0.  1.
    9000007    2    1    2  502    0 -0.15191547143E+03 -0.31761875987E+01 -0.24387696098E+03  0.49205696649E+03  0.39944422332E+03 0.  0.
    9000005    1    3    3    0    0 -0.73661680634E+02  0.19214945265E+03 -0.64789871767E+02  0.21574564382E+03  0.99999687468E+00 0.  0.
          4    1    3    3  502    0 -0.78253790799E+02 -0.19532564025E+03 -0.17908708921E+03  0.27631132267E+03  0.00000000000E+00 0.  1.
   -9000007    1    1    2    0  501  0.15191547143E+03  0.31761875987E+01 -0.22567587411E+02  0.42848301557E+03  0.40000000000E+03 0.  1.
<mgrwt>
<rscale>  2 0.42762847E+03</rscale>
<asrwt>0</asrwt>
<pdfrwt beam="1">  1        1 0.91306501E-01 0.42762847E+03</pdfrwt>
<pdfrwt beam="2">  1       -1 0.50315034E-01 0.42762847E+03</pdfrwt>
<totfact> 0.14378481E+02</totfact>
</mgrwt>
</event>
<event>
 6    1  0.9022793E-004  0.4971372E+03  0.7818608E-02  0.1014529E+00
          1   -1    0    0  502    0  0.00000000000E+00  0.00000000000E+00  0.50776885911E+03  0.50776885911E+03  0.00000000000E+00 0. -1.
         -1   -1    0    0    0  501 -0.00000000000E+00 -0.00000000000E+00 -0.49580244634E+03  0.49580244634E+03  0.00000000000E+00 0.  1.
    9000007    2    1    2  502    0 -0.27862357262E+03  0.99321564137E+02 -0.61904758287E+02  0.50062715524E+03  0.39912339087E+03 0.  0.
    9000005    1    3    3    0    0 -0.30644828425E+03  0.17502559899E+02 -0.17882022629E+03  0.35523874204E+03  0.99999687468E+00 0.  0.
          4    1    3    3  502    0  0.27824711636E+02  0.81819004238E+02  0.11691546800E+03  0.14538841319E+03  0.00000000000E+00 0.  1.
   -9000007    1    1    2    0  501  0.27862357262E+03 -0.99321564137E+02  0.73871171054E+02  0.50294415021E+03  0.40000000000E+03 0. -1.
<mgrwt>
<rscale>  2 0.49713716E+03</rscale>
<asrwt>0</asrwt>
<pdfrwt beam="1">  1        1 0.78118286E-01 0.49713716E+03</pdfrwt>
<pdfrwt beam="2">  1       -1 0.76277299E-01 0.49713716E+03</pdfrwt>
<totfact> 0.78055815E+01</totfact>
</mgrwt>
</event>
<event>
 6    1  0.9022793E-004  0.4740043E+03  0.7818608E-02  0.1020796E+00
         -2   -1    0    0    0  501 -0.00000000000E+00  0.00000000000E+00  0.17245340551E+04  0.17245340551E+04  0.00000000000E+00 0.  1.
          2   -1    0    0  502    0  0.00000000000E+00 -0.00000000000E+00 -0.15547333780E+03  0.15547333780E+03  0.00000000000E+00 0. -1.
    9000007    2    1    2  502    0 -0.15765230302E+03  0.19674585875E+03  0.11645216259E+04  0.12577413260E+04  0.40278957820E+03 0.  0.
    9000005    1    3    3    0    0  0.67790839702E+02  0.15139406007E+03  0.86159316242E+03  0.87741639881E+03  0.99999687468E+00 0.  0.
          4    1    3    3  502    0 -0.22544314272E+03  0.45351798677E+02  0.30292846347E+03  0.38032492716E+03  0.00000000000E+00 0.  1.
   -9000007    1    1    2    0  501  0.15765230302E+03 -0.19674585875E+03  0.40453909142E+03  0.62226606694E+03  0.40000000000E+03 0. -1.
<mgrwt>
<rscale>  2 0.47400434E+03</rscale>
<asrwt>0</asrwt>
<pdfrwt beam="1">  1        2 0.23918976E-01 0.47400434E+03</pdfrwt>
<pdfrwt beam="2">  1       -2 0.26531292E+00 0.47400434E+03</pdfrwt>
<totfact> 0.12717604E+01</totfact>
</mgrwt>
</event>
<event>
 6    1  0.9022793E-004  0.5578963E+03  0.7818608E-02  0.9996826E-01
          2   -1    0    0  502    0  0.00000000000E+00  0.00000000000E+00  0.17971946800E+04  0.17971946800E+04  0.00000000000E+00 0.  1.
         -2   -1    0    0    0  501 -0.00000000000E+00 -0.00000000000E+00 -0.17858470793E+03  0.17858470793E+03  0.00000000000E+00 0. -1.
    9000007    2    1    2  502    0 -0.32335233696E+03 -0.21575991346E+03  0.63771128917E+03  0.84738614964E+03  0.40034800387E+03 0.  0.
    9000005    1    3    3    0    0 -0.23911162247E+03 -0.12101086669E+03  0.86234237148E+02  0.28152325216E+03  0.99999687468E+00 0.  0.
          4    1    3    3  502    0 -0.84240714485E+02 -0.94749046769E+02  0.55147705202E+03  0.56586289748E+03  0.00000000000E+00 0.  1.
   -9000007    1    1    2    0  501  0.32335233696E+03  0.21575991346E+03  0.98089868291E+03  0.11283932383E+04  0.40000000000E+03 0. -1.
<mgrwt>
<rscale>  2 0.55789632E+03</rscale>
<asrwt>0</asrwt>
<pdfrwt beam="1">  1        2 0.27649148E+00 0.55789632E+03</pdfrwt>
<pdfrwt beam="2">  1       -2 0.27474572E-01 0.55789632E+03</pdfrwt>
<totfact> 0.10915196E+02</totfact>
</mgrwt>
</event>
<event>
 6    1  0.9022793E-004  0.4593898E+03  0.7818608E-02  0.1024958E+00
         -2   -1    0    0    0  501 -0.00000000000E+00  0.00000000000E+00  0.98377097105E+02  0.98377097105E+02  0.00000000000E+00 0. -1.
          2   -1    0    0  502    0  0.00000000000E+00 -0.00000000000E+00 -0.21724626850E+04  0.21724626850E+04  0.00000000000E+00 0.  1.
    9000007    2    1    2  502    0 -0.22466005613E+03  0.23060744162E+02 -0.90994554005E+03  0.10193502737E+04  0.40008768517E+03 0.  0.
    9000005    1    3    3    0    0 -0.14504566810E+03  0.69435053229E+02 -0.71726708162E+02  0.17608291544E+03  0.99999687468E+00 0.  0.
          4    1    3    3  502    0 -0.79614388029E+02 -0.46374309067E+02 -0.83821883189E+03  0.84326735823E+03  0.00000000000E+00 0.  1.
   -9000007    1    1    2    0  501  0.22466005613E+03 -0.23060744162E+02 -0.11641400479E+04  0.12514895085E+04  0.40000000000E+03 0. -1.
<mgrwt>
<rscale>  2 0.45938983E+03</rscale>
<asrwt>0</asrwt>
<pdfrwt beam="1">  1        2 0.33422503E+00 0.45938983E+03</pdfrwt>
<pdfrwt beam="2">  1       -2 0.15134938E-01 0.45938983E+03</pdfrwt>
<totfact> 0.19660390E+02</totfact>
</mgrwt>
</event>
<event>
 6    1  0.9022793E-004  0.4403883E+03  0.7818608E-02  0.1030628E+00
         -2   -1    0    0    0  501 -0.00000000000E+00  0.00000000000E+00  0.49236129781E+03  0.49236129781E+03  0.00000000000E+00 0.  1.
          2   -1    0    0  502    0  0.00000000000E+00 -0.00000000000E+00 -0.40374762668E+03  0.40374762668E+03  0.00000000000E+00 0. -1.
    9000007    2    1    2  502    0 -0.18273409403E+03 -0.68434999205E+02  0.11366104339E+03  0.45034837319E+03  0.38964050895E+03 0.  0.
    9000005    1    3    3    0    0 -0.30258133851E+03 -0.25991447042E+02  0.48713414200E+02  0.30757928807E+03  0.99999687468E+00 0.  0.
          4    1    3    3  502    0  0.11984724448E+03 -0.42443552163E+02  0.64947629188E+02  0.14276908512E+03  0.00000000000E+00 0.  1.
   -9000007    1    1    2    0  501  0.18273409403E+03  0.68434999205E+02 -0.25047372255E+02  0.44576055130E+03  0.40000000000E+03 0. -1.
<mgrwt>
<rscale>  2 0.44038828E+03</rscale>
<asrwt>0</asrwt>
<pdfrwt beam="1">  1        2 0.62115020E-01 0.44038828E+03</pdfrwt>
<pdfrwt beam="2">  1       -2 0.75747892E-01 0.44038828E+03</pdfrwt>
<totfact> 0.12633669E+02</totfact>
</mgrwt>
</event>
<event>
 6    1  0.9022793E-004  0.5416443E+03  0.7818608E-02  0.1003447E+00
          2   -1    0    0  502    0  0.00000000000E+00  0.00000000000E+00  0.61936121670E+03  0.61936121670E+03  0.00000000000E+00 0.  1.
         -2   -1    0    0    0  501 -0.00000000000E+00 -0.00000000000E+00 -0.47899166248E+03  0.47899166248E+03  0.00000000000E+00 0. -1.
    9000007    2    1    2  502    0 -0.34085298798E+03  0.13063017639E+03  0.12365290059E+02  0.54190872740E+03  0.40033381826E+03 0.  0.
    9000005    1    3    3    0    0 -0.21507599799E+03  0.22932125912E+03 -0.11780315080E+03  0.33574470529E+03  0.99999687468E+00 0.  0.
          4    1    3    3  502    0 -0.12577698998E+03 -0.98691082728E+02  0.13016844086E+03  0.20616402212E+03  0.00000000000E+00 0.  1.
   -9000007    1    1    2    0  501  0.34085298798E+03 -0.13063017639E+03  0.12800426417E+03  0.55644415177E+03  0.40000000000E+03 0.  1.
<mgrwt>
<rscale>  2 0.54164431E+03</rscale>
<asrwt>0</asrwt>
<pdfrwt beam="1">  1        2 0.95286342E-01 0.54164431E+03</pdfrwt>
<pdfrwt beam="2">  1       -2 0.73691025E-01 0.54164431E+03</pdfrwt>
<totfact> 0.81389897E+01</totfact>
</mgrwt>
</event>
<event>
 6    1  0.9022793E-004  0.4031999E+03  0.7818608E-02  0.1042677E+00
          4   -1    0    0  502    0  0.00000000000E+00  0.00000000000E+00  0.24089535037E+03  0.24089535037E+03  0.00000000000E+00 0. -1.
         -4   -1    0    0    0  501 -0.00000000000E+00 -0.00000000000E+00 -0.71417729313E+03  0.71417729313E+03  0.00000000000E+00 0.  1.
    9000007    2    1    2  502    0 -0.50678735409E+02  0.26049644952E+00 -0.12459351150E+03  0.42201352466E+03  0.40000433723E+03 0.  0.
    9000005    1    3    3    0    0 -0.11505745784E+03  0.16951876636E+03 -0.12673985925E+03  0.24091247927E+03  0.99999687468E+00 0.  0.
          4    1    3    3  502    0  0.64378722427E+02 -0.16925826991E+03  0.21463477517E+01  0.18110104539E+03  0.00000000000E+00 0.  1.
   -9000007    1    1    2    0  501  0.50678735409E+02 -0.26049644952E+00 -0.34868843126E+03  0.53305911884E+03  0.40000000000E+03 0.  1.
<mgrwt>
<rscale>  2 0.40319987E+03</rscale>
<asrwt>0</asrwt>
<pdfrwt beam="1">  1        4 0.37060824E-01 0.40319987E+03</pdfrwt>
<pdfrwt beam="2">  1       -4 0.10987343E+00 0.40319987E+03</pdfrwt>
<totfact> 0.90109738E+00</totfact>
</mgrwt>
</event>
<event>
 6    1  0.9022793E-004  0.1093722E+04  0.7818608E-02  0.9211332E-01
          2   -1    0    0  502    0  0.00000000000E+00  0.00000000000E+00  0.17889681932E+04  0.17889681932E+04  0.00000000000E+00 0.  1.
         -2   -1    0    0    0  501 -0.00000000000E+00 -0.00000000000E+00 -0.73510145596E+03  0.73510145596E+03  0.00000000000E+00 0. -1.
    9000007    2    1    2  502    0  0.77051140050E+03  0.66566549336E+03  0.90621023768E+03  0.14201671131E+04  0.39857153285E+03 0.  0.
    9000005    1    3    3    0    0  0.21863968159E+03  0.43247685753E+02  0.54111462394E+02  0.22935283527E+03  0.99999687468E+00 0.  0.
          4    1    3    3  502    0  0.55187171891E+03  0.62241780761E+03  0.85209877528E+03  0.11908142778E+04  0.00000000000E+00 0.  1.
   -9000007    1    1    2    0  501 -0.77051140050E+03 -0.66566549336E+03  0.14765649956E+03  0.11039025361E+04  0.40000000000E+03 0.  1.
<mgrwt>
<rscale>  2 0.10937220E+04</rscale>
<asrwt>0</asrwt>
<pdfrwt beam="1">  1        2 0.27522587E+00 0.10937220E+04</pdfrwt>
<pdfrwt beam="2">  1       -2 0.11309253E+00 0.10937220E+04</pdfrwt>
<totfact> 0.53037513E+00</totfact>
</mgrwt>
</event>
<event>
 6    1  0.9022793E-004  0.1288316E+04  0.7818608E-02  0.9038882E-01
          2   -1    0    0  502    0  0.00000000000E+00  0.00000000000E+00  0.30447200965E+04  0.30447200965E+04  0.00000000000E+00 0. -1.
         -2   -1    0    0    0  501 -0.00000000000E+00 -0.00000000000E+00 -0.55528388394E+03  0.55528388394E+03  0.00000000000E+00 0.  1.
    9000007    2    1    2  502    0 -0.19642985984E+03 -0.12087184296E+04  0.10013371703E+04  0.16317500102E+04  0.40043355883E+03 0.  0.
    9000005    1    3    3    0    0 -0.24900028025E+03 -0.12057304985E+04  0.98472065887E+03  0.15765351092E+04  0.99999687468E+00 0.  0.
          4    1    3    3  502    0  0.52570420414E+02 -0.29879311363E+01  0.16616511453E+02  0.55214900958E+02  0.00000000000E+00 0.  1.
   -9000007    1    1    2    0  501  0.19642985984E+03  0.12087184296E+04  0.14880990423E+04  0.19682539703E+04  0.40000000000E+03 0.  1.
<mgrwt>
<rscale>  2 0.12883161E+04</rscale>
<asrwt>0</asrwt>
<pdfrwt beam="1">  1        2 0.46841847E+00 0.12883161E+04</pdfrwt>
<pdfrwt beam="2">  1       -2 0.85428291E-01 0.12883161E+04</pdfrwt>
<totfact> 0.19099746E+00</totfact>
</mgrwt>
</event>
<event>
 6    1  0.9022793E-004  0.4669517E+03  0.7818608E-02  0.1022784E+00
         -1   -1    0    0    0  501 -0.00000000000E+00  0.00000000000E+00  0.55856957545E+02  0.55856957545E+02  0.00000000000E+00 0.  1.
          1   -1    0    0  502    0  0.00000000000E+00 -0.00000000000E+00 -0.39120156148E+04  0.39120156148E+04  0.00000000000E+00 0. -1.
    9000007    2    1    2  502    0 -0.13995551985E+03 -0.19487322268E+03 -0.18382815106E+04  0.18967880016E+04  0.40120155796E+03 0.  0.
    9000005    1    3    3    0    0 -0.12894003905E+03  0.66980990206E+02 -0.11694041985E+04  0.11783968628E+04  0.99999687468E+00 0.  0.
          4    1    3    3  502    0 -0.11015480797E+02 -0.26185421288E+03 -0.66887731214E+03  0.71839113881E+03  0.00000000000E+00 0.  1.
   -9000007    1    1    2    0  501  0.13995551985E+03  0.19487322268E+03 -0.20178771466E+04  0.20710845708E+04  0.40000000000E+03 0. -1.
<mgrwt>
<rscale>  2 0.46695175E+03</rscale>
<asrwt>0</asrwt>
<pdfrwt beam="1">  1        1 0.60184847E+00 0.46695175E+03</pdfrwt>
<pdfrwt beam="2">  1       -1 0.85933793E-02 0.46695175E+03</pdfrwt>
<totfact> 0.10661697E+01</totfact>
</mgrwt>
</event>
<event>
 6    1  0.9022793E-004  0.4219496E+03  0.7818608E-02  0.1036434E+00
         -1   -1    0    0    0  501 -0.00000000000E+00  0.00000000000E+00  0.50322711927E+03  0.50322711927E+03  0.00000000000E+00 0. -1.
          1   -1    0    0  502    0  0.00000000000E+00 -0.00000000000E+00 -0.38108874971E+03  0.38108874971E+03  0.00000000000E+00 0.  1.
    9000007    2    1    2  502    0 -0.27995903166E+02  0.13136498643E+03 -0.57251358725E+02  0.42581700871E+03  0.40000234572E+03 0.  0.
    9000005    1    3    3    0    0 -0.56586060097E+02 -0.12996189509E+03  0.37078433223E+02  0.14651923620E+03  0.99999687468E+00 0.  0.
          4    1    3    3  502    0  0.28590156932E+02  0.26132688152E+03 -0.94329791948E+02  0.27929777251E+03  0.00000000000E+00 0.  1.
   -9000007    1    1    2    0  501  0.27995903166E+02 -0.13136498643E+03  0.17938972828E+03  0.45849886027E+03  0.40000000000E+03 0. -1.
<mgrwt>
<rscale>  2 0.42194960E+03</rscale>
<asrwt>0</asrwt>
<pdfrwt beam="1">  1        1 0.58629038E-01 0.42194960E+03</pdfrwt>
<pdfrwt beam="2">  1       -1 0.77419557E-01 0.42194960E+03</pdfrwt>
<totfact> 0.11168252E+02</totfact>
</mgrwt>
</event>
<event>
 6    1  0.9022793E-004  0.4123581E+03  0.7818608E-02  0.1039583E+00
          1   -1    0    0  502    0  0.00000000000E+00  0.00000000000E+00  0.47473869688E+03  0.47473869688E+03  0.00000000000E+00 0. -1.
         -1   -1    0    0    0  501 -0.00000000000E+00 -0.00000000000E+00 -0.36774362106E+03  0.36774362106E+03  0.00000000000E+00 0.  1.
    9000007    2    1    2  502    0  0.62134236793E+02  0.79475370195E+02 -0.14474694120E+02  0.41244522319E+03  0.39965553607E+03 0.  0.
    9000005    1    3    3    0    0  0.14468675618E+02  0.38265238418E+01  0.18931229677E+03  0.18990558328E+03  0.99999687468E+00 0.  0.
          4    1    3    3  502    0  0.47665561175E+02  0.75648846353E+02 -0.20378699089E+03  0.22253963991E+03  0.00000000000E+00 0.  1.
   -9000007    1    1    2    0  501 -0.62134236793E+02 -0.79475370195E+02  0.12146976994E+03  0.43003709475E+03  0.40000000000E+03 0. -1.
<mgrwt>
<rscale>  2 0.41235812E+03</rscale>
<asrwt>0</asrwt>
<pdfrwt beam="1">  1        1 0.73036723E-01 0.41235812E+03</pdfrwt>
<pdfrwt beam="2">  1       -1 0.56575942E-01 0.41235812E+03</pdfrwt>
<totfact> 0.15657969E+02</totfact>
</mgrwt>
</event>
<event>
 6    1  0.9022793E-004  0.4092643E+03  0.7818608E-02  0.1040618E+00
          1   -1    0    0  502    0  0.00000000000E+00  0.00000000000E+00  0.13085116925E+04  0.13085116925E+04  0.00000000000E+00 0. -1.
         -1   -1    0    0    0  501 -0.00000000000E+00 -0.00000000000E+00 -0.13552978072E+03  0.13552978072E+03  0.00000000000E+00 0.  1.
    9000007    2    1    2  502    0  0.79618038966E+02 -0.40893448278E+02  0.41552747455E+03  0.58279323334E+03  0.39871489122E+03 0.  0.
    9000005    1    3    3    0    0 -0.15212435716E+02  0.14452845635E+03  0.35755545337E+02  0.14966413034E+03  0.99999687468E+00 0.  0.
          4    1    3    3  502    0  0.94830474681E+02 -0.18542190463E+03  0.37977192921E+03  0.43312910300E+03  0.00000000000E+00 0.  1.
   -9000007    1    1    2    0  501 -0.79618038966E+02  0.40893448278E+02  0.75745443726E+03  0.86124823992E+03  0.40000000000E+03 0. -1.
<mgrwt>
<rscale>  2 0.40926434E+03</rscale>
<asrwt>0</asrwt>
<pdfrwt beam="1">  1        1 0.20130948E+00 0.40926434E+03</pdfrwt>
<pdfrwt beam="2">  1       -1 0.20850736E-01 0.40926434E+03</pdfrwt>
<totfact> 0.17880211E+02</totfact>
</mgrwt>
</event>
<event>
 6    1  0.9022793E-004  0.4355530E+03  0.7818608E-02  0.1032120E+00
         -2   -1    0    0    0  501 -0.00000000000E+00  0.00000000000E+00  0.65606335646E+03  0.65606335646E+03  0.00000000000E+00 0.  1.
          2   -1    0    0  502    0  0.00000000000E+00 -0.00000000000E+00 -0.31700546648E+03  0.31700546648E+03  0.00000000000E+00 0. -1.
    9000007    2    1    2  502    0 -0.12879193519E+03  0.11329434183E+03  0.25444118304E+02  0.43662071899E+03  0.40070847088E+03 0.  0.
    9000005    1    3    3    0    0  0.12365867600E+03  0.11230727848E+03 -0.47807755413E+02  0.17375550184E+03  0.99999687468E+00 0.  0.
          4    1    3    3  502    0 -0.25245061118E+03  0.98706334962E+00  0.73251873717E+02  0.26286521714E+03  0.00000000000E+00 0.  1.
   -9000007    1    1    2    0  501  0.12879193519E+03 -0.11329434183E+03  0.31361377167E+03  0.53644810396E+03  0.40000000000E+03 0.  1.
<mgrwt>
<rscale>  2 0.43555298E+03</rscale>
<asrwt>0</asrwt>
<pdfrwt beam="1">  1        2 0.48770072E-01 0.43555298E+03</pdfrwt>
<pdfrwt beam="2">  1       -2 0.10093282E+00 0.43555298E+03</pdfrwt>
<totfact> 0.85873702E+01</totfact>
</mgrwt>
</event>
<event>
 6    1  0.9022793E-004  0.4527710E+03  0.7818608E-02  0.1026899E+00
         -2   -1    0    0    0  501 -0.00000000000E+00  0.00000000000E+00  0.42110668779E+03  0.42110668779E+03  0.00000000000E+00 0.  1.
          2   -1    0    0  502    0  0.00000000000E+00 -0.00000000000E+00 -0.10483604919E+04  0.10483604919E+04  0.00000000000E+00 0. -1.
    9000007    2    1    2  502    0  0.21051496362E+03  0.18888965765E+02 -0.85147621710E+03  0.96454239974E+03  0.40082034590E+03 0.  0.
    9000005    1    3    3    0    0  0.30905559509E+03  0.58114476132E+01 -0.41837805445E+03  0.52018297763E+03  0.99999687468E+00 0.  0.
          4    1    3    3  502    0 -0.98540631468E+02  0.13077518152E+02 -0.43309816265E+03  0.44435942212E+03  0.00000000000E+00 0.  1.
   -9000007    1    1    2    0  501 -0.21051496362E+03 -0.18888965765E+02  0.22422241297E+03  0.50492477996E+03  0.40000000000E+03 0.  1.
<mgrwt>
<rscale>  2 0.45277097E+03</rscale>
<asrwt>0</asrwt>
<pdfrwt beam="1">  1        2 0.16128623E+00 0.45277097E+03</pdfrwt>
<pdfrwt beam="2">  1       -2 0.64785645E-01 0.45277097E+03</pdfrwt>
<totfact> 0.54180253E+01</totfact>
</mgrwt>
</event>
<event>
 6    1  0.9022793E-004  0.4026645E+03  0.7818608E-02  0.1042861E+00
         -2   -1    0    0    0  501 -0.00000000000E+00  0.00000000000E+00  0.19202375823E+03  0.19202375823E+03  0.00000000000E+00 0. -1.
          2   -1    0    0  502    0  0.00000000000E+00 -0.00000000000E+00 -0.90623763987E+03  0.90623763987E+03  0.00000000000E+00 0.  1.
    9000007    2    1    2  502    0  0.36433163511E+02 -0.65719515030E+02 -0.21018522002E+03  0.45042552244E+03  0.39122742043E+03 0.  0.
    9000005    1    3    3    0    0 -0.10695755729E+02 -0.21958535481E+03 -0.54461676922E+02  0.22649327029E+03  0.99999687468E+00 0.  0.
          4    1    3    3  502    0  0.47128919239E+02  0.15386583978E+03 -0.15572354310E+03  0.22393225216E+03  0.00000000000E+00 0.  1.
   -9000007    1    1    2    0  501 -0.36433163511E+02  0.65719515030E+02 -0.50402866161E+03  0.64783587566E+03  0.40000000000E+03 0.  1.
<mgrwt>
<rscale>  2 0.40266455E+03</rscale>
<asrwt>0</asrwt>
<pdfrwt beam="1">  1        2 0.13942118E+00 0.40266455E+03</pdfrwt>
<pdfrwt beam="2">  1       -2 0.29542116E-01 0.40266455E+03</pdfrwt>
<totfact> 0.31512672E+02</totfact>
</mgrwt>
</event>
<event>
 6    1  0.9022793E-004  0.7460120E+03  0.7818608E-02  0.9641628E-01
         -1   -1    0    0    0  501 -0.00000000000E+00  0.00000000000E+00  0.10790770527E+04  0.10790770527E+04  0.00000000000E+00 0.  1.
          1   -1    0    0  502    0  0.00000000000E+00 -0.00000000000E+00 -0.52923612282E+03  0.52923612282E+03  0.00000000000E+00 0. -1.
    9000007    2    1    2  502    0 -0.25279911891E+03  0.57659585839E+03  0.14659056540E+03  0.76038568163E+03  0.40040905650E+03 0.  0.
    9000005    1    3    3    0    0  0.98665779349E+02  0.11707664227E+03 -0.28942003313E+02  0.15582206432E+03  0.99999687468E+00 0.  0.
          4    1    3    3  502    0 -0.35146489826E+03  0.45951921612E+03  0.17553256871E+03  0.60456361730E+03  0.00000000000E+00 0.  1.
   -9000007    1    1    2    0  501  0.25279911891E+03 -0.57659585839E+03  0.40325036447E+03  0.84792749388E+03  0.40000000000E+03 0. -1.
<mgrwt>
<rscale>  2 0.74601197E+03</rscale>
<asrwt>0</asrwt>
<pdfrwt beam="1">  1        1 0.81420942E-01 0.74601197E+03</pdfrwt>
<pdfrwt beam="2">  1       -1 0.16601185E+00 0.74601197E+03</pdfrwt>
<totfact> 0.11112637E+01</totfact>
</mgrwt>
</event>
<event>
 6    1  0.9022793E-004  0.4899685E+03  0.7818608E-02  0.1016431E+00
         -1   -1    0    0    0  501 -0.00000000000E+00  0.00000000000E+00  0.25928500601E+03  0.25928500601E+03  0.00000000000E+00 0.  1.
          1   -1    0    0  502    0  0.00000000000E+00 -0.00000000000E+00 -0.96555738220E+03  0.96555738220E+03  0.00000000000E+00 0. -1.
    9000007    2    1    2  502    0 -0.20756329851E+03 -0.19019191414E+03 -0.47783850499E+03  0.68499285305E+03  0.40203244245E+03 0.  0.
    9000005    1    3    3    0    0 -0.17274537297E+03  0.99278391252E+02 -0.19429223502E+03  0.27829415271E+03  0.99999687468E+00 0.  0.
          4    1    3    3  502    0 -0.34817925548E+02 -0.28947030539E+03 -0.28354626998E+03  0.40669870034E+03  0.00000000000E+00 0.  1.
   -9000007    1    1    2    0  501  0.20756329851E+03  0.19019191414E+03 -0.22843387120E+03  0.53984953515E+03  0.40000000000E+03 0.  1.
<mgrwt>
<rscale>  2 0.48996852E+03</rscale>
<asrwt>0</asrwt>
<pdfrwt beam="1">  1        1 0.14854729E+00 0.48996852E+03</pdfrwt>
<pdfrwt beam="2">  1       -1 0.39890000E-01 0.48996852E+03</pdfrwt>
<totfact> 0.10305955E+02</totfact>
</mgrwt>
</event>
<event>
 6    1  0.9022793E-004  0.4135996E+03  0.7818608E-02  0.1039170E+00
          1   -1    0    0  502    0  0.00000000000E+00  0.00000000000E+00  0.18568032082E+04  0.18568032082E+04  0.00000000000E+00 0.  1.
         -1   -1    0    0    0  501 -0.00000000000E+00 -0.00000000000E+00 -0.10930859840E+03  0.10930859840E+03  0.00000000000E+00 0. -1.
    9000007    2    1    2  502    0  0.88577194401E+02 -0.54923575835E+02  0.12639113097E+04  0.13299394033E+04  0.40050530483E+03 0.  0.
    9000005    1    3    3    0    0  0.17038301276E+03 -0.51675963162E+01  0.20458694871E+03  0.26629662909E+03  0.99999687468E+00 0.  0.
          4    1    3    3  502    0 -0.81805818354E+02 -0.49755979519E+02  0.10593243610E+04  0.10636427743E+04  0.00000000000E+00 0.  1.
   -9000007    1    1    2    0  501 -0.88577194401E+02  0.54923575835E+02  0.48358330011E+03  0.63617240328E+03  0.40000000000E+03 0. -1.
<mgrwt>
<rscale>  2 0.41359962E+03</rscale>
<asrwt>0</asrwt>
<pdfrwt beam="1">  1        1 0.28566201E+00 0.41359962E+03</pdfrwt>
<pdfrwt beam="2">  1       -1 0.16816709E-01 0.41359962E+03</pdfrwt>
<totfact> 0.10904672E+02</totfact>
</mgrwt>
</event>
<event>
 6    1  0.9022793E-004  0.4775836E+03  0.7818608E-02  0.1019801E+00
         -2   -1    0    0    0  501 -0.00000000000E+00  0.00000000000E+00  0.88301493416E+02  0.88301493416E+02  0.00000000000E+00 0.  1.
          2   -1    0    0  502    0  0.00000000000E+00 -0.00000000000E+00 -0.26403152050E+04  0.26403152050E+04  0.00000000000E+00 0. -1.
    9000007    2    1    2  502    0  0.13557714254E+03 -0.22380824724E+03 -0.10740121929E+04  0.11752462396E+04  0.39903664002E+03 0.  0.
    9000005    1    3    3    0    0 -0.98220719012E+02  0.16953012609E+02 -0.50412458057E+03  0.51388452692E+03  0.99999687468E+00 0.  0.
          4    1    3    3  502    0  0.23379786155E+03 -0.24076125985E+03 -0.56988761234E+03  0.66136171269E+03  0.00000000000E+00 0.  1.
   -9000007    1    1    2    0  501 -0.13557714254E+03  0.22380824724E+03 -0.14780015187E+04  0.15533704588E+04  0.40000000000E+03 0. -1.
<mgrwt>
<rscale>  2 0.47758359E+03</rscale>
<asrwt>0</asrwt>
<pdfrwt beam="1">  1        2 0.40620235E+00 0.47758359E+03</pdfrwt>
<pdfrwt beam="2">  1       -2 0.13584845E-01 0.47758359E+03</pdfrwt>
<totfact> 0.12930293E+02</totfact>
</mgrwt>
</event>
<event>
 6    1  0.9022793E-004  0.4215140E+03  0.7818608E-02  0.1036575E+00
          2   -1    0    0  502    0  0.00000000000E+00  0.00000000000E+00  0.26171858397E+04  0.26171858397E+04  0.00000000000E+00 0. -1.
         -2   -1    0    0    0  501 -0.00000000000E+00 -0.00000000000E+00 -0.74312364544E+02  0.74312364544E+02  0.00000000000E+00 0.  1.
    9000007    2    1    2  502    0  0.11818189239E+03 -0.61637805343E+02  0.16668366730E+04  0.17192808122E+04  0.39976973103E+03 0.  0.
    9000005    1    3    3    0    0  0.26319627427E+03 -0.15836016727E+02  0.11865143811E+04  0.12154589400E+04  0.99999687468E+00 0.  0.
          4    1    3    3  502    0 -0.14501438187E+03 -0.45801788616E+02  0.48032229190E+03  0.50382187218E+03  0.00000000000E+00 0.  1.
   -9000007    1    1    2    0  501 -0.11818189239E+03  0.61637805343E+02  0.87603680210E+03  0.97221739204E+03  0.40000000000E+03 0.  1.
<mgrwt>
<rscale>  2 0.42151403E+03</rscale>
<asrwt>0</asrwt>
<pdfrwt beam="1">  1        2 0.40264391E+00 0.42151403E+03</pdfrwt>
<pdfrwt beam="2">  1       -2 0.11432673E-01 0.42151403E+03</pdfrwt>
<totfact> 0.17884355E+02</totfact>
</mgrwt>
</event>
<event>
 6    1  0.9022793E-004  0.4128189E+03  0.7818608E-02  0.1039429E+00
         -2   -1    0    0    0  501 -0.00000000000E+00  0.00000000000E+00  0.15301768124E+03  0.15301768124E+03  0.00000000000E+00 0. -1.
          2   -1    0    0  502    0  0.00000000000E+00 -0.00000000000E+00 -0.12367529663E+04  0.12367529663E+04  0.00000000000E+00 0.  1.
    9000007    2    1    2  502    0  0.28086671544E+02  0.97259744851E+02 -0.76127953427E+03  0.86610469458E+03  0.40042788812E+03 0.  0.
    9000005    1    3    3    0    0 -0.76215212775E+02 -0.13666214977E+03 -0.26987547758E+03  0.31196005390E+03  0.99999687468E+00 0.  0.
          4    1    3    3  502    0  0.10430188432E+03  0.23392189463E+03 -0.49140405669E+03  0.55414464068E+03  0.00000000000E+00 0.  1.
   -9000007    1    1    2    0  501 -0.28086671544E+02 -0.97259744851E+02 -0.32245575084E+03  0.52366595300E+03  0.40000000000E+03 0. -1.
<mgrwt>
<rscale>  2 0.41281894E+03</rscale>
<asrwt>0</asrwt>
<pdfrwt beam="1">  1        2 0.19026969E+00 0.41281894E+03</pdfrwt>
<pdfrwt beam="2">  1       -2 0.23541182E-01 0.41281894E+03</pdfrwt>
<totfact> 0.29819094E+02</totfact>
</mgrwt>
</event>
<event>
 6    1  0.9022793E-004  0.4100428E+03  0.7818608E-02  0.1040357E+00
          1   -1    0    0  502    0  0.00000000000E+00  0.00000000000E+00  0.60899823726E+03  0.60899823726E+03  0.00000000000E+00 0.  1.
         -1   -1    0    0    0  501 -0.00000000000E+00 -0.00000000000E+00 -0.27772534811E+03  0.27772534811E+03  0.00000000000E+00 0. -1.
    9000007    2    1    2  502    0 -0.56428510552E+02 -0.69720000957E+02  0.13160442123E+03  0.43074929617E+03  0.40022515804E+03 0.  0.
    9000005    1    3    3    0    0 -0.23550636256E+01  0.20142718636E+01 -0.14237837482E+03  0.14241560738E+03  0.99999687468E+00 0.  0.
          4    1    3    3  502    0 -0.54073446927E+02 -0.71734272821E+02  0.27398279605E+03  0.28833368879E+03  0.00000000000E+00 0.  1.
   -9000007    1    1    2    0  501  0.56428510552E+02  0.69720000957E+02  0.19966846792E+03  0.45597428921E+03  0.40000000000E+03 0. -1.
<mgrwt>
<rscale>  2 0.41004283E+03</rscale>
<asrwt>0</asrwt>
<pdfrwt beam="1">  1        1 0.93692036E-01 0.41004283E+03</pdfrwt>
<pdfrwt beam="2">  1       -1 0.42726977E-01 0.41004283E+03</pdfrwt>
<totfact> 0.18780564E+02</totfact>
</mgrwt>
</event>
<event>
 6    1  0.9022793E-004  0.4652646E+03  0.7818608E-02  0.1023265E+00
          2   -1    0    0  502    0  0.00000000000E+00  0.00000000000E+00  0.12405366347E+04  0.12405366347E+04  0.00000000000E+00 0. -1.
         -2   -1    0    0    0  501 -0.00000000000E+00 -0.00000000000E+00 -0.25434689976E+03  0.25434689976E+03  0.00000000000E+00 0.  1.
    9000007    2    1    2  502    0 -0.18402557537E+03 -0.14992261905E+03  0.91198784669E+03  0.10238759716E+04  0.40032233078E+03 0.  0.
    9000005    1    3    3    0    0 -0.24699220242E+03 -0.14022184165E+03  0.91699210949E+03  0.95997022964E+03  0.99999687468E+00 0.  0.
          4    1    3    3  502    0  0.62966627051E+02 -0.97007773981E+01 -0.50042627938E+01  0.63905741920E+02  0.00000000000E+00 0.  1.
   -9000007    1    1    2    0  501  0.18402557537E+03  0.14992261905E+03  0.74201888233E+02  0.47100756290E+03  0.40000000000E+03 0.  1.
<mgrwt>
<rscale>  2 0.46526460E+03</rscale>
<asrwt>0</asrwt>
<pdfrwt beam="1">  1        2 0.19085179E+00 0.46526460E+03</pdfrwt>
<pdfrwt beam="2">  1       -2 0.39130293E-01 0.46526460E+03</pdfrwt>
<totfact> 0.11549804E+02</totfact>
</mgrwt>
</event>
<event>
 6    1  0.9022793E-004  0.4350005E+03  0.7818608E-02  0.1032292E+00
         -1   -1    0    0    0  501 -0.00000000000E+00  0.00000000000E+00  0.26657193320E+03  0.26657193320E+03  0.00000000000E+00 0. -1.
          1   -1    0    0  502    0  0.00000000000E+00 -0.00000000000E+00 -0.72028591524E+03  0.72028591524E+03  0.00000000000E+00 0.  1.
    9000007    2    1    2  502    0  0.12898727338E+03  0.11174830680E+03 -0.16751585353E+03  0.46624785090E+03  0.40025004249E+03 0.  0.
    9000005    1    3    3    0    0  0.16913952739E+03  0.96402951970E+02  0.83312295927E+02  0.21176318736E+03  0.99999687468E+00 0.  0.
          4    1    3    3  502    0 -0.40152254011E+02  0.15345354834E+02 -0.25082814945E+03  0.25448466354E+03  0.00000000000E+00 0.  1.
   -9000007    1    1    2    0  501 -0.12898727338E+03 -0.11174830680E+03 -0.28619812852E+03  0.52060999754E+03  0.40000000000E+03 0.  1.
<mgrwt>
<rscale>  2 0.43500049E+03</rscale>
<asrwt>0</asrwt>
<pdfrwt beam="1">  1        1 0.11081322E+00 0.43500049E+03</pdfrwt>
<pdfrwt beam="2">  1       -1 0.41011066E-01 0.43500049E+03</pdfrwt>
<totfact> 0.15795096E+02</totfact>
</mgrwt>
</event>
<event>
 6    1  0.9022793E-004  0.6687520E+03  0.7818608E-02  0.9772215E-01
          2   -1    0    0  502    0  0.00000000000E+00  0.00000000000E+00  0.14359633677E+04  0.14359633677E+04  0.00000000000E+00 0. -1.
         -2   -1    0    0    0  501 -0.00000000000E+00 -0.00000000000E+00 -0.31487504577E+03  0.31487504577E+03  0.00000000000E+00 0.  1.
    9000007    2    1    2  502    0 -0.52638078124E+03  0.11862908779E+03  0.46688757652E+03  0.81322004619E+03  0.39011952924E+03 0.  0.
    9000005    1    3    3    0    0 -0.74782475054E+02 -0.12962959233E+03  0.88287896360E+02  0.17375846000E+03  0.99999687468E+00 0.  0.
          4    1    3    3  502    0 -0.45159830619E+03  0.24825868012E+03  0.37859968016E+03  0.63946158620E+03  0.00000000000E+00 0.  1.
   -9000007    1    1    2    0  501  0.52638078124E+03 -0.11862908779E+03  0.65420074537E+03  0.93761836724E+03  0.40000000000E+03 0. -1.
<mgrwt>
<rscale>  2 0.66875195E+03</rscale>
<asrwt>0</asrwt>
<pdfrwt beam="1">  1        2 0.22091744E+00 0.66875195E+03</pdfrwt>
<pdfrwt beam="2">  1       -2 0.48442316E-01 0.66875195E+03</pdfrwt>
<totfact> 0.57329555E+01</totfact>
</mgrwt>
</event>
<event>
 6    1  0.9022793E-004  0.4086779E+03  0.7818608E-02  0.1040816E+00
          2   -1    0    0  502    0  0.00000000000E+00  0.00000000000E+00  0.66555094940E+03  0.66555094940E+03  0.00000000000E+00 0.  1.
         -2   -1    0    0    0  501 -0.00000000000E+00 -0.00000000000E+00 -0.28786303163E+03  0.28786303163E+03  0.00000000000E+00 0. -1.
    9000007    2    1    2  502    0  0.70934074959E+02  0.42443248487E+02  0.35964899986E+03  0.54456379466E+03  0.40046129779E+03 0.  0.
    9000005    1    3    3    0    0  0.11942132438E+03  0.20300189238E+03  0.16471666145E+03  0.28740876741E+03  0.99999687468E+00 0.  0.
          4    1    3    3  502    0 -0.48487249421E+02 -0.16055864390E+03  0.19493233841E+03  0.25715502726E+03  0.00000000000E+00 0.  1.
   -9000007    1    1    2    0  501 -0.70934074959E+02 -0.42443248487E+02  0.18038917917E+02  0.40885018637E+03  0.40000000000E+03 0. -1.
<mgrwt>
<rscale>  2 0.40867786E+03</rscale>
<asrwt>0</asrwt>
<pdfrwt beam="1">  1        2 0.10239245E+00 0.40867786E+03</pdfrwt>
<pdfrwt beam="2">  1       -2 0.44286621E-01 0.40867786E+03</pdfrwt>
<totfact> 0.21733605E+02</totfact>
</mgrwt>
</event>
<event>
 6    1  0.9022793E-004  0.4883519E+03  0.7818608E-02  0.1016865E+00
         -2   -1    0    0    0  501 -0.00000000000E+00  0.00000000000E+00  0.20828246500E+03  0.20828246500E+03  0.00000000000E+00 0. -1.
          2   -1    0    0  502    0  0.00000000000E+00 -0.00000000000E+00 -0.12059472734E+04  0.12059472734E+04  0.00000000000E+00 0.  1.
    9000007    2    1    2  502    0  0.61091483923E+02  0.27315408296E+03 -0.65791318867E+03  0.81943861074E+03  0.40035553012E+03 0.  0.
    9000005    1    3    3    0    0  0.19040814648E+03  0.23847358833E+03 -0.60084017629E+03  0.67389526784E+03  0.99999687468E+00 0.  0.
          4    1    3    3  502    0 -0.12931666255E+03  0.34680494624E+02 -0.57073012385E+02  0.14554334291E+03  0.00000000000E+00 0.  1.
   -9000007    1    1    2    0  501 -0.61091483923E+02 -0.27315408296E+03 -0.33975161976E+03  0.59479112769E+03  0.40000000000E+03 0.  1.
<mgrwt>
<rscale>  2 0.48835188E+03</rscale>
<asrwt>0</asrwt>
<pdfrwt beam="1">  1        2 0.18553035E+00 0.48835188E+03</pdfrwt>
<pdfrwt beam="2">  1       -2 0.32043456E-01 0.48835188E+03</pdfrwt>
<totfact> 0.17612648E+02</totfact>
</mgrwt>
</event>
<event>
 6    1  0.9022793E-004  0.4874690E+03  0.7818608E-02  0.1017102E+00
          1   -1    0    0  502    0  0.00000000000E+00  0.00000000000E+00  0.11877577727E+04  0.11877577727E+04  0.00000000000E+00 0.  1.
         -1   -1    0    0    0  501 -0.00000000000E+00 -0.00000000000E+00 -0.20328289778E+03  0.20328289778E+03  0.00000000000E+00 0. -1.
    9000007    2    1    2  502    0  0.15757528258E+03  0.22933417848E+03  0.40490527720E+03  0.63385835842E+03  0.40050468153E+03 0.  0.
    9000005    1    3    3    0    0 -0.95133979406E+02  0.14850086188E+03  0.36903153335E+02  0.18018274817E+03  0.99999687468E+00 0.  0.
          4    1    3    3  502    0  0.25270926199E+03  0.80833316604E+02  0.36800212386E+03  0.45367561025E+03  0.00000000000E+00 0.  1.
   -9000007    1    1    2    0  501 -0.15757528258E+03 -0.22933417848E+03  0.57956959771E+03  0.75718231206E+03  0.40000000000E+03 0.  1.
<mgrwt>
<rscale>  2 0.48746902E+03</rscale>
<asrwt>0</asrwt>
<pdfrwt beam="1">  1        1 0.18273196E+00 0.48746902E+03</pdfrwt>
<pdfrwt beam="2">  1       -1 0.31274292E-01 0.48746902E+03</pdfrwt>
<totfact> 0.10835443E+02</totfact>
</mgrwt>
</event>
<event>
 6    1  0.9022793E-004  0.4840748E+03  0.7818608E-02  0.1018021E+00
         -2   -1    0    0    0  501 -0.00000000000E+00  0.00000000000E+00  0.39092932717E+03  0.39092932717E+03  0.00000000000E+00 0.  1.
          2   -1    0    0  502    0  0.00000000000E+00 -0.00000000000E+00 -0.14712461566E+04  0.14712461566E+04  0.00000000000E+00 0. -1.
    9000007    2    1    2  502    0 -0.22638820487E+03  0.15112778110E+03 -0.12570143445E+04  0.13470898236E+04  0.40059294198E+03 0.  0.
    9000005    1    3    3    0    0 -0.77053000855E+02 -0.90244879985E+02 -0.80252890114E+03  0.81125516360E+03  0.99999687468E+00 0.  0.
          4    1    3    3  502    0 -0.14933520402E+03  0.24137266108E+03 -0.45448544331E+03  0.53583466000E+03  0.00000000000E+00 0.  1.
   -9000007    1    1    2    0  501  0.22638820487E+03 -0.15112778110E+03  0.17669751501E+03  0.51508566019E+03  0.40000000000E+03 0.  1.
<mgrwt>
<rscale>  2 0.48407485E+03</rscale>
<asrwt>0</asrwt>
<pdfrwt beam="1">  1        2 0.22634556E+00 0.48407485E+03</pdfrwt>
<pdfrwt beam="2">  1       -2 0.60142973E-01 0.48407485E+03</pdfrwt>
<totfact> 0.36014817E+01</totfact>
</mgrwt>
</event>
<event>
 6    1  0.9022793E-004  0.4064287E+03  0.7818608E-02  0.1041576E+00
         -1   -1    0    0    0  501 -0.00000000000E+00  0.00000000000E+00  0.30339211512E+03  0.30339211512E+03  0.00000000000E+00 0. -1.
          1   -1    0    0  502    0  0.00000000000E+00 -0.00000000000E+00 -0.65931276620E+03  0.65931276620E+03  0.00000000000E+00 0.  1.
    9000007    2    1    2  502    0  0.78603147157E+02 -0.18113579232E+02  0.23522062167E+02  0.40549457172E+03  0.39669384138E+03 0.  0.
    9000005    1    3    3    0    0  0.85568726830E+01  0.25336771625E+02  0.20470277844E+03  0.20644466465E+03  0.99999687468E+00 0.  0.
          4    1    3    3  502    0  0.70046274474E+02 -0.43450350857E+02 -0.18118071627E+03  0.19904990707E+03  0.00000000000E+00 0.  1.
   -9000007    1    1    2    0  501 -0.78603147157E+02  0.18113579232E+02 -0.37944271324E+03  0.55721030960E+03  0.40000000000E+03 0.  1.
<mgrwt>
<rscale>  2 0.40642872E+03</rscale>
<asrwt>0</asrwt>
<pdfrwt beam="1">  1        1 0.10143273E+00 0.40642872E+03</pdfrwt>
<pdfrwt beam="2">  1       -1 0.46675711E-01 0.40642872E+03</pdfrwt>
<totfact> 0.14256286E+02</totfact>
</mgrwt>
</event>
<event>
 6    1  0.9022793E-004  0.4164518E+03  0.7818608E-02  0.1038227E+00
          1   -1    0    0  502    0  0.00000000000E+00  0.00000000000E+00  0.76166433209E+03  0.76166433209E+03  0.00000000000E+00 0.  1.
         -1   -1    0    0    0  501 -0.00000000000E+00 -0.00000000000E+00 -0.55159216011E+03  0.55159216011E+03  0.00000000000E+00 0. -1.
    9000007    2    1    2  502    0  0.44990890957E+02 -0.10510313295E+03 -0.39808260723E+03  0.57642334671E+03  0.40090306014E+03 0.  0.
    9000005    1    3    3    0    0 -0.12625025025E+03 -0.50104108202E+02  0.40593839756E+01  0.13589343597E+03  0.99999687468E+00 0.  0.
          4    1    3    3  502    0  0.17124114121E+03 -0.54999024744E+02 -0.40214199120E+03  0.44052991074E+03  0.00000000000E+00 0.  1.
   -9000007    1    1    2    0  501 -0.44990890957E+02  0.10510313295E+03  0.60815477921E+03  0.73683314550E+03  0.40000000000E+03 0.  1.
<mgrwt>
<rscale>  2 0.41645180E+03</rscale>
<asrwt>0</asrwt>
<pdfrwt beam="1">  1        1 0.11717913E+00 0.41645180E+03</pdfrwt>
<pdfrwt beam="2">  1       -1 0.84860333E-01 0.41645180E+03</pdfrwt>
<totfact> 0.35210773E+01</totfact>
</mgrwt>
</event>
<event>
 6    1  0.9022793E-004  0.5002412E+03  0.7818608E-02  0.1013716E+00
          2   -1    0    0  502    0  0.00000000000E+00  0.00000000000E+00  0.20378092976E+03  0.20378092976E+03  0.00000000000E+00 0.  1.
         -2   -1    0    0    0  501 -0.00000000000E+00 -0.00000000000E+00 -0.22569363525E+04  0.22569363525E+04  0.00000000000E+00 0. -1.
    9000007    2    1    2  502    0  0.29866731071E+03 -0.48070526867E+02 -0.18559031692E+04  0.19218096932E+04  0.39681605986E+03 0.  0.
    9000005    1    3    3    0    0 -0.76176225482E+02  0.53774552897E+02 -0.19583186330E+03  0.21690006580E+03  0.99999687468E+00 0.  0.
          4    1    3    3  502    0  0.37484353619E+03 -0.10184507976E+03 -0.16600713059E+04  0.17049096274E+04  0.00000000000E+00 0.  1.
   -9000007    1    1    2    0  501 -0.29866731071E+03  0.48070526867E+02 -0.19725225357E+03  0.53890758909E+03  0.40000000000E+03 0.  1.
<mgrwt>
<rscale>  2 0.50024116E+03</rscale>
<asrwt>0</asrwt>
<pdfrwt beam="1">  1        2 0.31350913E-01 0.50024116E+03</pdfrwt>
<pdfrwt beam="2">  1       -2 0.34722096E+00 0.50024116E+03</pdfrwt>
<totfact> 0.30102554E+00</totfact>
</mgrwt>
</event>
<event>
 6    1  0.9022793E-004  0.4221711E+03  0.7818608E-02  0.1036362E+00
         -1   -1    0    0    0  501 -0.00000000000E+00  0.00000000000E+00  0.29478289061E+03  0.29478289061E+03  0.00000000000E+00 0.  1.
          1   -1    0    0  502    0  0.00000000000E+00 -0.00000000000E+00 -0.71661422460E+03  0.71661422460E+03  0.00000000000E+00 0. -1.
    9000007    2    1    2  502    0 -0.32640741170E+02 -0.13092785978E+03 -0.11000927442E+02  0.42233926967E+03  0.40005239139E+03 0.  0.
    9000005    1    3    3    0    0 -0.37215457239E+02  0.11325887949E+03 -0.10673329236E+03  0.16001737323E+03  0.99999687468E+00 0.  0.
          4    1    3    3  502    0  0.45747160690E+01 -0.24418673927E+03  0.95732364922E+02  0.26232189645E+03  0.00000000000E+00 0.  1.
   -9000007    1    1    2    0  501  0.32640741170E+02  0.13092785978E+03 -0.41083040654E+03  0.58905784554E+03  0.40000000000E+03 0. -1.
<mgrwt>
<rscale>  2 0.42217115E+03</rscale>
<asrwt>0</asrwt>
<pdfrwt beam="1">  1        1 0.11024834E+00 0.42217115E+03</pdfrwt>
<pdfrwt beam="2">  1       -1 0.45351214E-01 0.42217115E+03</pdfrwt>
<totfact> 0.13268570E+02</totfact>
</mgrwt>
</event>
<event>
 6    1  0.9022793E-004  0.4165801E+03  0.7818608E-02  0.1038185E+00
          1   -1    0    0  502    0  0.00000000000E+00  0.00000000000E+00  0.77303316715E+03  0.77303316715E+03  0.00000000000E+00 0.  1.
         -1   -1    0    0    0  501 -0.00000000000E+00 -0.00000000000E+00 -0.22528069863E+03  0.22528069863E+03  0.00000000000E+00 0. -1.
    9000007    2    1    2  502    0 -0.86450047841E+02  0.77924239559E+02  0.24431691653E+03  0.48293154935E+03  0.39998290935E+03 0.  0.
    9000005    1    3    3    0    0  0.13167594663E+03 -0.22882542168E+02  0.19694410202E+03  0.23801290926E+03  0.99999687468E+00 0.  0.
          4    1    3    3  502    0 -0.21812599448E+03  0.10080678173E+03  0.47372814509E+02  0.24491864009E+03  0.00000000000E+00 0.  1.
   -9000007    1    1    2    0  501  0.86450047841E+02 -0.77924239559E+02  0.30343555199E+03  0.51538231643E+03  0.40000000000E+03 0. -1.
<mgrwt>
<rscale>  2 0.41658008E+03</rscale>
<asrwt>0</asrwt>
<pdfrwt beam="1">  1        1 0.11892818E+00 0.41658008E+03</pdfrwt>
<pdfrwt beam="2">  1       -1 0.34658569E-01 0.41658008E+03</pdfrwt>
<totfact> 0.19179941E+02</totfact>
</mgrwt>
</event>
<event>
 6    1  0.9022793E-004  0.4259434E+03  0.7818608E-02  0.1035149E+00
         -1   -1    0    0    0  501 -0.00000000000E+00  0.00000000000E+00  0.10735866775E+03  0.10735866775E+03  0.00000000000E+00 0. -1.
          1   -1    0    0  502    0  0.00000000000E+00 -0.00000000000E+00 -0.17767038933E+04  0.17767038933E+04  0.00000000000E+00 0.  1.
    9000007    2    1    2  502    0 -0.13950933405E+03  0.44265189792E+02 -0.62648920325E+03  0.75757645614E+03  0.40001387951E+03 0.  0.
    9000005    1    3    3    0    0 -0.25011582362E+03  0.10493760225E+03 -0.28458404392E+03  0.39313980164E+03  0.99999687468E+00 0.  0.
          4    1    3    3  502    0  0.11060648956E+03 -0.60672412455E+02 -0.34190515933E+03  0.36443665450E+03  0.00000000000E+00 0.  1.
   -9000007    1    1    2    0  501  0.13950933405E+03 -0.44265189792E+02 -0.10428560223E+04  0.11264861049E+04  0.40000000000E+03 0.  1.
<mgrwt>
<rscale>  2 0.42594344E+03</rscale>
<asrwt>0</asrwt>
<pdfrwt beam="1">  1        1 0.27333905E+00 0.42594344E+03</pdfrwt>
<pdfrwt beam="2">  1       -1 0.16516719E-01 0.42594344E+03</pdfrwt>
<totfact> 0.12652843E+02</totfact>
</mgrwt>
</event>
<event>
 6    1  0.9022793E-004  0.8132857E+03  0.7818608E-02  0.9540983E-01
         -2   -1    0    0    0  501 -0.00000000000E+00  0.00000000000E+00  0.18314886463E+04  0.18314886463E+04  0.00000000000E+00 0. -1.
          2   -1    0    0  502    0  0.00000000000E+00 -0.00000000000E+00 -0.93830393150E+03  0.93830393150E+03  0.00000000000E+00 0.  1.
    9000007    2    1    2  502    0 -0.42518259410E+03  0.56635554603E+03 -0.63957948409E+03  0.10345966430E+04  0.39973673129E+03 0.  0.
    9000005    1    3    3    0    0  0.48832169408E+02  0.21752372871E+03 -0.20659516148E+03  0.30394689349E+03  0.99999687468E+00 0.  0.
          4    1    3    3  502    0 -0.47401476350E+03  0.34883181732E+03 -0.43298432261E+03  0.73064974949E+03  0.00000000000E+00 0.  1.
   -9000007    1    1    2    0  501  0.42518259410E+03 -0.56635554603E+03  0.15327641989E+04  0.17351959349E+04  0.40000000000E+03 0. -1.
<mgrwt>
<rscale>  2 0.81328566E+03</rscale>
<asrwt>0</asrwt>
<pdfrwt beam="1">  1        2 0.14435445E+00 0.81328566E+03</pdfrwt>
<pdfrwt beam="2">  1       -2 0.28176748E+00 0.81328566E+03</pdfrwt>
<totfact> 0.11689437E+00</totfact>
</mgrwt>
</event>
<event>
 6    1  0.9022793E-004  0.4031786E+03  0.7818608E-02  0.1042685E+00
         -2   -1    0    0    0  501 -0.00000000000E+00  0.00000000000E+00  0.38042552395E+03  0.38042552395E+03  0.00000000000E+00 0. -1.
          2   -1    0    0  502    0  0.00000000000E+00 -0.00000000000E+00 -0.66516286393E+03  0.66516286393E+03  0.00000000000E+00 0.  1.
    9000007    2    1    2  502    0  0.16306298898E+02  0.47446389915E+02  0.17025569070E+03  0.43769389599E+03  0.40008985374E+03 0.  0.
    9000005    1    3    3    0    0 -0.12280559295E+03 -0.12545010587E+03  0.11207666226E+03  0.20828135043E+03  0.99999687468E+00 0.  0.
          4    1    3    3  502    0  0.13911189184E+03  0.17289649579E+03  0.58179028438E+02  0.22941254555E+03  0.00000000000E+00 0.  1.
   -9000007    1    1    2    0  501 -0.16306298898E+02 -0.47446389915E+02 -0.45499303068E+03  0.60789449189E+03  0.40000000000E+03 0.  1.
<mgrwt>
<rscale>  2 0.40317862E+03</rscale>
<asrwt>0</asrwt>
<pdfrwt beam="1">  1        2 0.10233275E+00 0.40317862E+03</pdfrwt>
<pdfrwt beam="2">  1       -2 0.58527005E-01 0.40317862E+03</pdfrwt>
<totfact> 0.12375452E+02</totfact>
</mgrwt>
</event>
<event>
 6    1  0.9022793E-004  0.4037830E+03  0.7818608E-02  0.1042478E+00
         -4   -1    0    0    0  501 -0.00000000000E+00  0.00000000000E+00  0.28779854437E+03  0.28779854437E+03  0.00000000000E+00 0.  1.
          4   -1    0    0  502    0  0.00000000000E+00 -0.00000000000E+00 -0.56655016033E+03  0.56655016033E+03  0.00000000000E+00 0. -1.
    9000007    2    1    2  502    0  0.40579469037E+02  0.39350348463E+02 -0.13571065582E+03  0.42579782148E+03  0.39961388794E+03 0.  0.
    9000005    1    3    3    0    0  0.32370436197E+02  0.89588400084E+02 -0.26780014359E+03  0.28423906042E+03  0.99999687468E+00 0.  0.
          4    1    3    3  502    0  0.82090328394E+01 -0.50238051621E+02  0.13208948777E+03  0.14155876105E+03  0.00000000000E+00 0.  1.
   -9000007    1    1    2    0  501 -0.40579469037E+02 -0.39350348463E+02 -0.14304096014E+03  0.42855088322E+03  0.40000000000E+03 0.  1.
<mgrwt>
<rscale>  2 0.40378299E+03</rscale>
<asrwt>0</asrwt>
<pdfrwt beam="1">  1        4 0.87161563E-01 0.40378299E+03</pdfrwt>
<pdfrwt beam="2">  1       -4 0.44276699E-01 0.40378299E+03</pdfrwt>
<totfact> 0.10875268E+01</totfact>
</mgrwt>
</event>
<event>
 6    1  0.9022793E-004  0.4032051E+03  0.7818608E-02  0.1042675E+00
         -2   -1    0    0    0  501 -0.00000000000E+00  0.00000000000E+00  0.17490188048E+03  0.17490188048E+03  0.00000000000E+00 0.  1.
          2   -1    0    0  502    0  0.00000000000E+00 -0.00000000000E+00 -0.11212866931E+04  0.11212866931E+04  0.00000000000E+00 0. -1.
    9000007    2    1    2  502    0  0.25717632432E+02 -0.41526003748E+02 -0.74144096244E+03  0.84409589799E+03  0.40047144545E+03 0.  0.
    9000005    1    3    3    0    0 -0.12329196158E+03  0.46975918813E+02 -0.61645972227E+03  0.63042147323E+03  0.99999687468E+00 0.  0.
          4    1    3    3  502    0  0.14900959401E+03 -0.88501922561E+02 -0.12498124017E+03  0.21367442476E+03  0.00000000000E+00 0.  1.
   -9000007    1    1    2    0  501 -0.25717632432E+02  0.41526003748E+02 -0.20494385021E+03  0.45209267562E+03  0.40000000000E+03 0.  1.
<mgrwt>
<rscale>  2 0.40320514E+03</rscale>
<asrwt>0</asrwt>
<pdfrwt beam="1">  1        2 0.17250564E+00 0.40320514E+03</pdfrwt>
<pdfrwt beam="2">  1       -2 0.26907982E-01 0.40320514E+03</pdfrwt>
<totfact> 0.27447043E+02</totfact>
</mgrwt>
</event>
<event>
 6    1  0.9022793E-004  0.4648975E+03  0.7818608E-02  0.1023370E+00
          2   -1    0    0  502    0  0.00000000000E+00  0.00000000000E+00  0.10851165089E+04  0.10851165089E+04  0.00000000000E+00 0. -1.
         -2   -1    0    0    0  501 -0.00000000000E+00 -0.00000000000E+00 -0.21336346110E+03  0.21336346110E+03  0.00000000000E+00 0.  1.
    9000007    2    1    2  502    0 -0.27505866243E+02  0.23545172017E+03  0.60322935688E+03  0.76154509707E+03  0.39983895841E+03 0.  0.
    9000005    1    3    3    0    0  0.12731817061E+03  0.27658538575E+03  0.40438431386E+03  0.50619864230E+03  0.99999687468E+00 0.  0.
          4    1    3    3  502    0 -0.15482403685E+03 -0.41133665579E+02  0.19884504302E+03  0.25534645477E+03  0.00000000000E+00 0.  1.
   -9000007    1    1    2    0  501  0.27505866243E+02 -0.23545172017E+03  0.26852369096E+03  0.53693487298E+03  0.40000000000E+03 0.  1.
<mgrwt>
<rscale>  2 0.46489749E+03</rscale>
<asrwt>0</asrwt>
<pdfrwt beam="1">  1        2 0.16694100E+00 0.46489749E+03</pdfrwt>
<pdfrwt beam="2">  1       -2 0.32825149E-01 0.46489749E+03</pdfrwt>
<totfact> 0.19905134E+02</totfact>
</mgrwt>
</event>
<event>
 6    1  0.9022793E-004  0.4687260E+03  0.7818608E-02  0.1022280E+00
         -4   -1    0    0    0  501 -0.00000000000E+00  0.00000000000E+00  0.19590740861E+04  0.19590740861E+04  0.00000000000E+00 0.  1.
          4   -1    0    0  502    0  0.00000000000E+00 -0.00000000000E+00 -0.13261156711E+03  0.13261156711E+03  0.00000000000E+00 0. -1.
    9000007    2    1    2  502    0  0.45540680269E+02  0.23927008531E+03  0.50305522067E+03  0.68785838302E+03  0.40094946409E+03 0.  0.
    9000005    1    3    3    0    0 -0.17417386628E+03  0.60802326544E+02  0.22645560476E+03  0.29209005380E+03  0.99999687468E+00 0.  0.
          4    1    3    3  502    0  0.21971454655E+03  0.17846775876E+03  0.27659961591E+03  0.39576832921E+03  0.00000000000E+00 0.  1.
   -9000007    1    1    2    0  501 -0.45540680269E+02 -0.23927008531E+03  0.13234072983E+04  0.14038272702E+04  0.40000000000E+03 0.  1.
<mgrwt>
<rscale>  2 0.46872597E+03</rscale>
<asrwt>0</asrwt>
<pdfrwt beam="1">  1        4 0.20401781E-01 0.46872597E+03</pdfrwt>
<pdfrwt beam="2">  1       -4 0.30139599E+00 0.46872597E+03</pdfrwt>
<totfact> 0.13930596E+00</totfact>
</mgrwt>
</event>
<event>
 6    1  0.9022793E-004  0.4862876E+03  0.7818608E-02  0.1017421E+00
          2   -1    0    0  502    0  0.00000000000E+00  0.00000000000E+00  0.77012254881E+03  0.77012254881E+03  0.00000000000E+00 0. -1.
         -2   -1    0    0    0  501 -0.00000000000E+00 -0.00000000000E+00 -0.32805035553E+03  0.32805035553E+03  0.00000000000E+00 0.  1.
    9000007    2    1    2  502    0  0.20432282793E+03 -0.18610181200E+03  0.82191934034E+02  0.49327993577E+03  0.40023477931E+03 0.  0.
    9000005    1    3    3    0    0  0.21004321499E+03 -0.17468215920E+03 -0.11447028623E+03  0.29620340196E+03  0.99999687468E+00 0.  0.
          4    1    3    3  502    0 -0.57203870661E+01 -0.11419652798E+02  0.19666222027E+03  0.19707653381E+03  0.00000000000E+00 0.  1.
   -9000007    1    1    2    0  501 -0.20432282793E+03  0.18610181200E+03  0.35988025925E+03  0.60489296858E+03  0.40000000000E+03 0.  1.
<mgrwt>
<rscale>  2 0.48628759E+03</rscale>
<asrwt>0</asrwt>
<pdfrwt beam="1">  1        2 0.11848039E+00 0.48628759E+03</pdfrwt>
<pdfrwt beam="2">  1       -2 0.50469286E-01 0.48628759E+03</pdfrwt>
<totfact> 0.13857422E+02</totfact>
</mgrwt>
</event>
<event>
 6    1  0.9022793E-004  0.4823809E+03  0.7818608E-02  0.1018483E+00
         -2   -1    0    0    0  501 -0.00000000000E+00  0.00000000000E+00  0.25268839492E+03  0.25268839492E+03  0.00000000000E+00 0.  1.
          2   -1    0    0  502    0  0.00000000000E+00 -0.00000000000E+00 -0.96286334599E+03  0.96286334599E+03  0.00000000000E+00 0. -1.
    9000007    2    1    2  502    0  0.26729753662E+03  0.33754517431E+02 -0.48210030285E+03  0.68206754649E+03  0.40026003478E+03 0.  0.
    9000005    1    3    3    0    0 -0.78424678883E+02 -0.56358689430E+02 -0.21592837861E+03  0.23654343536E+03  0.99999687468E+00 0.  0.
          4    1    3    3  502    0  0.34572221550E+03  0.90113206861E+02 -0.26617192425E+03  0.44552411113E+03  0.00000000000E+00 0.  1.
   -9000007    1    1    2    0  501 -0.26729753662E+03 -0.33754517431E+02 -0.22807464822E+03  0.53348419441E+03  0.40000000000E+03 0. -1.
<mgrwt>
<rscale>  2 0.48238093E+03</rscale>
<asrwt>0</asrwt>
<pdfrwt beam="1">  1        2 0.14813282E+00 0.48238093E+03</pdfrwt>
<pdfrwt beam="2">  1       -2 0.38875138E-01 0.48238093E+03</pdfrwt>
<totfact> 0.17173519E+02</totfact>
</mgrwt>
</event>
<event>
 6    1  0.9022793E-004  0.4599308E+03  0.7818608E-02  0.1024801E+00
          2   -1    0    0  502    0  0.00000000000E+00  0.00000000000E+00  0.15711978233E+04  0.15711978233E+04  0.00000000000E+00 0.  1.
         -2   -1    0    0    0  501 -0.00000000000E+00 -0.00000000000E+00 -0.26585967115E+03  0.26585967115E+03  0.00000000000E+00 0. -1.
    9000007    2    1    2  502    0  0.16870427110E+03  0.15129518774E+03  0.74920890464E+01  0.46019302456E+03  0.40046238716E+03 0.  0.
    9000005    1    3    3    0    0  0.22682852129E+03  0.89826329237E+02  0.15578596735E+03  0.28946539537E+03  0.99999687468E+00 0.  0.
          4    1    3    3  502    0 -0.58124250190E+02  0.61468858501E+02 -0.14829387831E+03  0.17072762919E+03  0.00000000000E+00 0.  1.
   -9000007    1    1    2    0  501 -0.16870427110E+03 -0.15129518774E+03  0.12978460631E+04  0.13768644699E+04  0.40000000000E+03 0.  1.
<mgrwt>
<rscale>  2 0.45993081E+03</rscale>
<asrwt>0</asrwt>
<pdfrwt beam="1">  1        2 0.24172274E+00 0.45993081E+03</pdfrwt>
<pdfrwt beam="2">  1       -2 0.40901489E-01 0.45993081E+03</pdfrwt>
<totfact> 0.69453779E+01</totfact>
</mgrwt>
</event>
<event>
 6    1  0.9022793E-004  0.5837216E+03  0.7818608E-02  0.9939766E-01
          1   -1    0    0  502    0  0.00000000000E+00  0.00000000000E+00  0.62061851243E+03  0.62061851243E+03  0.00000000000E+00 0. -1.
         -1   -1    0    0    0  501 -0.00000000000E+00 -0.00000000000E+00 -0.59926232862E+03  0.59926232862E+03  0.00000000000E+00 0.  1.
    9000007    2    1    2  502    0 -0.23951854695E+03 -0.35095972132E+03 -0.16593164117E+03  0.60700353709E+03  0.40047237630E+03 0.  0.
    9000005    1    3    3    0    0 -0.99218729580E+02  0.79934972905E+02 -0.10173081659E+02  0.12782193778E+03  0.99999687468E+00 0.  0.
          4    1    3    3  502    0 -0.14029981737E+03 -0.43089469422E+03 -0.15575855951E+03  0.47918159932E+03  0.00000000000E+00 0.  1.
   -9000007    1    1    2    0  501  0.23951854695E+03  0.35095972132E+03  0.18728782498E+03  0.61287730396E+03  0.40000000000E+03 0. -1.
<mgrwt>
<rscale>  2 0.58372157E+03</rscale>
<asrwt>0</asrwt>
<pdfrwt beam="1">  1        1 0.95479771E-01 0.58372157E+03</pdfrwt>
<pdfrwt beam="2">  1       -1 0.92194205E-01 0.58372157E+03</pdfrwt>
<totfact> 0.38887896E+01</totfact>
</mgrwt>
</event>
<event>
 6    1  0.9022793E-004  0.4344308E+03  0.7818608E-02  0.1032469E+00
          1   -1    0    0  502    0  0.00000000000E+00  0.00000000000E+00  0.16687108873E+04  0.16687108873E+04  0.00000000000E+00 0.  1.
         -1   -1    0    0    0  501 -0.00000000000E+00 -0.00000000000E+00 -0.11488967995E+03  0.11488967995E+03  0.00000000000E+00 0. -1.
    9000007    2    1    2  502    0  0.16231237387E+03 -0.49444345234E+02  0.88811464548E+03  0.98864441971E+03  0.39985011583E+03 0.  0.
    9000005    1    3    3    0    0  0.81603256877E+02  0.14430576389E+03  0.15820613891E+03  0.22915808388E+03  0.99999687468E+00 0.  0.
          4    1    3    3  502    0  0.80709116992E+02 -0.19375010913E+03  0.72990850657E+03  0.75948633583E+03  0.00000000000E+00 0.  1.
   -9000007    1    1    2    0  501 -0.16231237387E+03  0.49444345234E+02  0.66570656189E+03  0.79495614755E+03  0.40000000000E+03 0. -1.
<mgrwt>
<rscale>  2 0.43443077E+03</rscale>
<asrwt>0</asrwt>
<pdfrwt beam="1">  1        1 0.25672473E+00 0.43443077E+03</pdfrwt>
<pdfrwt beam="2">  1       -1 0.17675337E-01 0.43443077E+03</pdfrwt>
<totfact> 0.13342329E+02</totfact>
</mgrwt>
</event>
<event>
 6    1  0.9022793E-004  0.6146911E+03  0.7818608E-02  0.9875387E-01
         -1   -1    0    0    0  501 -0.00000000000E+00  0.00000000000E+00  0.72974690824E+03  0.72974690824E+03  0.00000000000E+00 0. -1.
          1   -1    0    0  502    0  0.00000000000E+00 -0.00000000000E+00 -0.52065847202E+03  0.52065847202E+03  0.00000000000E+00 0.  1.
    9000007    2    1    2  502    0 -0.46627449129E+03 -0.10661932817E+02  0.58067394507E+02  0.61768669626E+03  0.40079852095E+03 0.  0.
    9000005    1    3    3    0    0 -0.24014667657E+03 -0.13804122213E+03 -0.12110249561E+03  0.30231212300E+03  0.99999687468E+00 0.  0.
          4    1    3    3  502    0 -0.22612781472E+03  0.12737928931E+03  0.17916989012E+03  0.31537457326E+03  0.00000000000E+00 0.  1.
   -9000007    1    1    2    0  501  0.46627449129E+03  0.10661932817E+02  0.15102104172E+03  0.63271868400E+03  0.40000000000E+03 0.  1.
<mgrwt>
<rscale>  2 0.61469112E+03</rscale>
<asrwt>0</asrwt>
<pdfrwt beam="1">  1        1 0.80101304E-01 0.61469112E+03</pdfrwt>
<pdfrwt beam="2">  1       -1 0.11226875E+00 0.61469112E+03</pdfrwt>
<totfact> 0.31637832E+01</totfact>
</mgrwt>
</event>
<event>
 6    1  0.9022793E-004  0.4552213E+03  0.7818608E-02  0.1026176E+00
          2   -1    0    0  502    0  0.00000000000E+00  0.00000000000E+00  0.23722058684E+03  0.23722058684E+03  0.00000000000E+00 0. -1.
         -2   -1    0    0    0  501 -0.00000000000E+00 -0.00000000000E+00 -0.10730468642E+04  0.10730468642E+04  0.00000000000E+00 0.  1.
    9000007    2    1    2  502    0 -0.20718989000E+02  0.22930696266E+03 -0.13089457167E+03  0.46768827416E+03  0.38547110561E+03 0.  0.
    9000005    1    3    3    0    0  0.15356513692E+03 -0.83905011868E+01 -0.54910760772E+02  0.16330598100E+03  0.99999687468E+00 0.  0.
          4    1    3    3  502    0 -0.17428412592E+03  0.23769746385E+03 -0.75983810900E+02  0.30438229316E+03  0.00000000000E+00 0.  1.
   -9000007    1    1    2    0  501  0.20718989000E+02 -0.22930696266E+03 -0.70493170570E+03  0.84257917690E+03  0.40000000000E+03 0.  1.
<mgrwt>
<rscale>  2 0.45522127E+03</rscale>
<asrwt>0</asrwt>
<pdfrwt beam="1">  1        2 0.36495475E-01 0.45522127E+03</pdfrwt>
<pdfrwt beam="2">  1       -2 0.16508413E+00 0.45522127E+03</pdfrwt>
<totfact> 0.34230306E+01</totfact>
</mgrwt>
</event>
<event>
 6    1  0.9022793E-004  0.4322306E+03  0.7818608E-02  0.1033158E+00
          2   -1    0    0  502    0  0.00000000000E+00  0.00000000000E+00  0.10611775171E+04  0.10611775171E+04  0.00000000000E+00 0. -1.
         -2   -1    0    0    0  501 -0.00000000000E+00 -0.00000000000E+00 -0.19482130570E+03  0.19482130570E+03  0.00000000000E+00 0.  1.
    9000007    2    1    2  502    0 -0.91522960016E+02  0.13643560560E+03  0.23808302720E+03  0.49329421375E+03  0.39958043845E+03 0.  0.
    9000005    1    3    3    0    0 -0.22267167780E+03  0.18768977905E+03  0.15939208790E+03  0.33198940787E+03  0.99999687468E+00 0.  0.
          4    1    3    3  502    0  0.13114871779E+03 -0.51254173444E+02  0.78690939293E+02  0.16130480588E+03  0.00000000000E+00 0.  1.
   -9000007    1    1    2    0  501  0.91522960016E+02 -0.13643560560E+03  0.62827318422E+03  0.76270460907E+03  0.40000000000E+03 0. -1.
<mgrwt>
<rscale>  2 0.43223063E+03</rscale>
<asrwt>0</asrwt>
<pdfrwt beam="1">  1        2 0.16325808E+00 0.43223063E+03</pdfrwt>
<pdfrwt beam="2">  1       -2 0.29972509E-01 0.43223063E+03</pdfrwt>
<totfact> 0.24438059E+02</totfact>
</mgrwt>
</event>
<event>
 6    1  0.9022793E-004  0.4021311E+03  0.7818608E-02  0.1043044E+00
         -1   -1    0    0    0  501 -0.00000000000E+00  0.00000000000E+00  0.14116143873E+03  0.14116143873E+03  0.00000000000E+00 0. -1.
          1   -1    0    0  502    0  0.00000000000E+00 -0.00000000000E+00 -0.14550713441E+04  0.14550713441E+04  0.00000000000E+00 0.  1.
    9000007    2    1    2  502    0 -0.65742541225E+01  0.38565868518E+02 -0.28914647203E+03  0.49547366234E+03  0.40044715101E+03 0.  0.
    9000005    1    3    3    0    0 -0.72371240263E+02 -0.16037014661E+03 -0.20375141856E+03  0.26920590800E+03  0.99999687468E+00 0.  0.
          4    1    3    3  502    0  0.65796986140E+02  0.19893601513E+03 -0.85395053465E+02  0.22626775434E+03  0.00000000000E+00 0.  1.
   -9000007    1    1    2    0  501  0.65742541225E+01 -0.38565868518E+02 -0.10247634333E+04  0.11007591205E+04  0.40000000000E+03 0.  1.
<mgrwt>
<rscale>  2 0.40213108E+03</rscale>
<asrwt>0</asrwt>
<pdfrwt beam="1">  1        1 0.22385713E+00 0.40213108E+03</pdfrwt>
<pdfrwt beam="2">  1       -1 0.21717144E-01 0.40213108E+03</pdfrwt>
<totfact> 0.13282346E+02</totfact>
</mgrwt>
</event>
<event>
 6    1  0.9022793E-004  0.5345917E+03  0.7818608E-02  0.1005125E+00
         -2   -1    0    0    0  501 -0.00000000000E+00  0.00000000000E+00  0.85764075171E+03  0.85764075171E+03  0.00000000000E+00 0.  1.
          2   -1    0    0  502    0  0.00000000000E+00 -0.00000000000E+00 -0.45700674755E+03  0.45700674755E+03  0.00000000000E+00 0. -1.
    9000007    2    1    2  502    0 -0.19938414812E+03 -0.29334682848E+03  0.54240551451E+03  0.76156019924E+03  0.39995474069E+03 0.  0.
    9000005    1    3    3    0    0 -0.13599108070E+03 -0.28517951713E+03  0.12578371826E+03  0.34006392751E+03  0.99999687468E+00 0.  0.
          4    1    3    3  502    0 -0.63393067418E+02 -0.81673113524E+01  0.41662179625E+03  0.42149627173E+03  0.00000000000E+00 0.  1.
   -9000007    1    1    2    0  501  0.19938414812E+03  0.29334682848E+03 -0.14177151034E+03  0.55308730002E+03  0.40000000000E+03 0.  1.
<mgrwt>
<rscale>  2 0.53459171E+03</rscale>
<asrwt>0</asrwt>
<pdfrwt beam="1">  1        2 0.70308730E-01 0.53459171E+03</pdfrwt>
<pdfrwt beam="2">  1       -2 0.13194473E+00 0.53459171E+03</pdfrwt>
<totfact> 0.29494199E+01</totfact>
</mgrwt>
</event>
<event>
 6    1  0.9022793E-004  0.5411549E+03  0.7818608E-02  0.1003562E+00
         -2   -1    0    0    0  501 -0.00000000000E+00  0.00000000000E+00  0.21802010815E+03  0.21802010815E+03  0.00000000000E+00 0.  1.
          2   -1    0    0  502    0  0.00000000000E+00 -0.00000000000E+00 -0.15353287737E+04  0.15353287737E+04  0.00000000000E+00 0. -1.
    9000007    2    1    2  502    0  0.27046350846E+03  0.24419617184E+03 -0.96882776752E+03  0.11097486829E+04  0.40016573613E+03 0.  0.
    9000005    1    3    3    0    0  0.35247322054E+03  0.10683299938E+03 -0.77767550666E+03  0.86048291941E+03  0.99999687468E+00 0.  0.
          4    1    3    3  502    0 -0.82009712081E+02  0.13736317246E+03 -0.19115226086E+03  0.24926576351E+03  0.00000000000E+00 0.  1.
   -9000007    1    1    2    0  501 -0.27046350846E+03 -0.24419617184E+03 -0.34848089798E+03  0.64360019889E+03  0.40000000000E+03 0. -1.
<mgrwt>
<rscale>  2 0.54115486E+03</rscale>
<asrwt>0</asrwt>
<pdfrwt beam="1">  1        2 0.23620442E+00 0.54115486E+03</pdfrwt>
<pdfrwt beam="2">  1       -2 0.33541556E-01 0.54115486E+03</pdfrwt>
<totfact> 0.10491329E+02</totfact>
</mgrwt>
</event>
<event>
 6    1  0.9022793E-004  0.4415766E+03  0.7818608E-02  0.1030264E+00
          2   -1    0    0  502    0  0.00000000000E+00  0.00000000000E+00  0.15108380580E+04  0.15108380580E+04  0.00000000000E+00 0. -1.
         -2   -1    0    0    0  501 -0.00000000000E+00 -0.00000000000E+00 -0.14978423894E+03  0.14978423894E+03  0.00000000000E+00 0.  1.
    9000007    2    1    2  502    0 -0.88400828584E+02 -0.16629771812E+03  0.98864884880E+03  0.10825607955E+04  0.39880031620E+03 0.  0.
    9000005    1    3    3    0    0 -0.24494353332E+03 -0.84091615842E+02  0.66706582996E+03  0.71557428395E+03  0.99999687468E+00 0.  0.
          4    1    3    3  502    0  0.15654270473E+03 -0.82206102283E+02  0.32158301884E+03  0.36698651156E+03  0.00000000000E+00 0.  1.
   -9000007    1    1    2    0  501  0.88400828584E+02  0.16629771812E+03  0.37240497024E+03  0.57806150140E+03  0.40000000000E+03 0.  1.
<mgrwt>
<rscale>  2 0.44157660E+03</rscale>
<asrwt>0</asrwt>
<pdfrwt beam="1">  1        2 0.23243661E+00 0.44157660E+03</pdfrwt>
<pdfrwt beam="2">  1       -2 0.23043730E-01 0.44157660E+03</pdfrwt>
<totfact> 0.21709166E+02</totfact>
</mgrwt>
</event>
<event>
 6    1  0.9022793E-004  0.4311840E+03  0.7818608E-02  0.1033487E+00
          1   -1    0    0  502    0  0.00000000000E+00  0.00000000000E+00  0.34814978219E+03  0.34814978219E+03  0.00000000000E+00 0.  1.
         -1   -1    0    0    0  501 -0.00000000000E+00 -0.00000000000E+00 -0.59682406230E+03  0.59682406230E+03  0.00000000000E+00 0. -1.
    9000007    2    1    2  502    0  0.13720650177E+03 -0.82523625564E+02  0.28846325929E+02  0.43247656676E+03  0.40070949249E+03 0.  0.
    9000005    1    3    3    0    0  0.21835691014E+03 -0.17574082704E+03 -0.51605912069E+02  0.28500657650E+03  0.99999687468E+00 0.  0.
          4    1    3    3  502    0 -0.81150408364E+02  0.93217201478E+02  0.80452237998E+02  0.14746999026E+03  0.00000000000E+00 0.  1.
   -9000007    1    1    2    0  501 -0.13720650177E+03  0.82523625564E+02 -0.27752060603E+03  0.51249727773E+03  0.40000000000E+03 0. -1.
<mgrwt>
<rscale>  2 0.43118396E+03</rscale>
<asrwt>0</asrwt>
<pdfrwt beam="1">  1        1 0.53561505E-01 0.43118396E+03</pdfrwt>
<pdfrwt beam="2">  1       -1 0.91819086E-01 0.43118396E+03</pdfrwt>
<totfact> 0.87167188E+01</totfact>
</mgrwt>
</event>
<event>
 6    1  0.9022793E-004  0.6040459E+03  0.7818608E-02  0.9897048E-01
         -3   -1    0    0    0  501 -0.00000000000E+00  0.00000000000E+00  0.35842988033E+03  0.35842988033E+03  0.00000000000E+00 0. -1.
          3   -1    0    0  502    0  0.00000000000E+00 -0.00000000000E+00 -0.10185683610E+04  0.10185683610E+04  0.00000000000E+00 0.  1.
    9000007    2    1    2  502    0  0.45270891192E+03  0.12649091125E+02 -0.31329937902E+03  0.68028975075E+03  0.39941492916E+03 0.  0.
    9000005    1    3    3    0    0  0.49890129243E+03 -0.56129763581E+02 -0.20112879166E+03  0.54083901558E+03  0.99999687468E+00 0.  0.
          4    1    3    3  502    0 -0.46192380503E+02  0.68778854706E+02 -0.11217058736E+03  0.13945073517E+03  0.00000000000E+00 0.  1.
   -9000007    1    1    2    0  501 -0.45270891192E+03 -0.12649091125E+02 -0.34683910169E+03  0.69670849062E+03  0.40000000000E+03 0.  1.
<mgrwt>
<rscale>  2 0.60404588E+03</rscale>
<asrwt>0</asrwt>
<pdfrwt beam="1">  1        3 0.15670282E+00 0.60404588E+03</pdfrwt>
<pdfrwt beam="2">  1       -3 0.55143060E-01 0.60404588E+03</pdfrwt>
<totfact> 0.24533684E+00</totfact>
</mgrwt>
</event>
<event>
 6    1  0.9022793E-004  0.4132248E+03  0.7818608E-02  0.1039294E+00
          2   -1    0    0  502    0  0.00000000000E+00  0.00000000000E+00  0.44866324404E+03  0.44866324404E+03  0.00000000000E+00 0.  1.
         -2   -1    0    0    0  501 -0.00000000000E+00 -0.00000000000E+00 -0.40771390057E+03  0.40771390057E+03  0.00000000000E+00 0. -1.
    9000007    2    1    2  502    0  0.10240247781E+03  0.21272925268E+02 -0.89986418180E+02  0.42269179959E+03  0.39953973166E+03 0.  0.
    9000005    1    3    3    0    0 -0.71242229379E+02  0.12168318962E+03 -0.15717055877E+03  0.21115358964E+03  0.99999687468E+00 0.  0.
          4    1    3    3  502    0  0.17364470718E+03 -0.10041026435E+03  0.67184140586E+02  0.21153820994E+03  0.00000000000E+00 0.  1.
   -9000007    1    1    2    0  501 -0.10240247781E+03 -0.21272925268E+02  0.13093576165E+03  0.43368534503E+03  0.40000000000E+03 0.  1.
<mgrwt>
<rscale>  2 0.41322476E+03</rscale>
<asrwt>0</asrwt>
<pdfrwt beam="1">  1        2 0.69025115E-01 0.41322476E+03</pdfrwt>
<pdfrwt beam="2">  1       -2 0.62725215E-01 0.41322476E+03</pdfrwt>
<totfact> 0.16904584E+02</totfact>
</mgrwt>
</event>
<event>
 6    1  0.9022793E-004  0.4968931E+03  0.7818608E-02  0.1014593E+00
         -2   -1    0    0    0  501 -0.00000000000E+00  0.00000000000E+00  0.26608634504E+03  0.26608634504E+03  0.00000000000E+00 0. -1.
          2   -1    0    0  502    0  0.00000000000E+00 -0.00000000000E+00 -0.13644700278E+04  0.13644700278E+04  0.00000000000E+00 0.  1.
    9000007    2    1    2  502    0  0.26281630209E+03 -0.13425792943E+03 -0.10102010471E+04  0.11257061203E+04  0.39951284536E+03 0.  0.
    9000005    1    3    3    0    0  0.14498880970E+03 -0.27549553245E+03 -0.59282113440E+03  0.66959498260E+03  0.99999687468E+00 0.  0.
          4    1    3    3  502    0  0.11782749239E+03  0.14123760302E+03 -0.41737991266E+03  0.45611113773E+03  0.00000000000E+00 0.  1.
   -9000007    1    1    2    0  501 -0.26281630209E+03  0.13425792943E+03 -0.88182635743E+02  0.50485025256E+03  0.40000000000E+03 0. -1.
<mgrwt>
<rscale>  2 0.49689313E+03</rscale>
<asrwt>0</asrwt>
<pdfrwt beam="1">  1        2 0.20991846E+00 0.49689313E+03</pdfrwt>
<pdfrwt beam="2">  1       -2 0.40936361E-01 0.49689313E+03</pdfrwt>
<totfact> 0.89635213E+01</totfact>
</mgrwt>
</event>
<event>
 6    1  0.9022793E-004  0.6795532E+03  0.7818608E-02  0.9752852E-01
         -2   -1    0    0    0  501 -0.00000000000E+00  0.00000000000E+00  0.15924555490E+03  0.15924555490E+03  0.00000000000E+00 0.  1.
          2   -1    0    0  502    0  0.00000000000E+00 -0.00000000000E+00 -0.29427709334E+04  0.29427709334E+04  0.00000000000E+00 0. -1.
    9000007    2    1    2  502    0 -0.10564962890E+03  0.53835678415E+03 -0.15802062660E+04  0.17203628567E+04  0.40200328923E+03 0.  0.
    9000005    1    3    3    0    0  0.49077232363E+02  0.22182676432E+03 -0.11088361980E+04  0.11318720785E+04  0.99999687468E+00 0.  0.
          4    1    3    3  502    0 -0.15472686127E+03  0.31653001983E+03 -0.47137006806E+03  0.58849077827E+03  0.00000000000E+00 0.  1.
   -9000007    1    1    2    0  501  0.10564962890E+03 -0.53835678415E+03 -0.12033191124E+04  0.13816536315E+04  0.40000000000E+03 0. -1.
<mgrwt>
<rscale>  2 0.67955316E+03</rscale>
<asrwt>0</asrwt>
<pdfrwt beam="1">  1        2 0.45273399E+00 0.67955316E+03</pdfrwt>
<pdfrwt beam="2">  1       -2 0.24499316E-01 0.67955316E+03</pdfrwt>
<totfact> 0.30012438E+01</totfact>
</mgrwt>
</event>
<event>
 6    1  0.9022793E-004  0.5587746E+03  0.7818608E-02  0.9994831E-01
         -2   -1    0    0    0  501 -0.00000000000E+00  0.00000000000E+00  0.36294904436E+03  0.36294904436E+03  0.00000000000E+00 0.  1.
          2   -1    0    0  502    0  0.00000000000E+00 -0.00000000000E+00 -0.99119031714E+03  0.99119031714E+03  0.00000000000E+00 0. -1.
    9000007    2    1    2  502    0  0.13830237498E+03  0.36530668215E+03 -0.56005187837E+03  0.79091088880E+03  0.39913081641E+03 0.  0.
    9000005    1    3    3    0    0 -0.13725598884E+01  0.41064658461E+03 -0.43254646192E+03  0.59643100446E+03  0.99999687468E+00 0.  0.
          4    1    3    3  502    0  0.13967493487E+03 -0.45339902463E+02 -0.12750541645E+03  0.19447988433E+03  0.00000000000E+00 0.  1.
   -9000007    1    1    2    0  501 -0.13830237498E+03 -0.36530668215E+03 -0.68189394415E+02  0.56322847270E+03  0.40000000000E+03 0.  1.
<mgrwt>
<rscale>  2 0.55877458E+03</rscale>
<asrwt>0</asrwt>
<pdfrwt beam="1">  1        2 0.15249082E+00 0.55877458E+03</pdfrwt>
<pdfrwt beam="2">  1       -2 0.55838315E-01 0.55877458E+03</pdfrwt>
<totfact> 0.79330596E+01</totfact>
</mgrwt>
</event>
<event>
 6    1  0.9022793E-004  0.5522927E+03  0.7818608E-02  0.1000965E+00
         -2   -1    0    0    0  501 -0.00000000000E+00  0.00000000000E+00  0.15459950926E+03  0.15459950926E+03  0.00000000000E+00 0. -1.
          2   -1    0    0  502    0  0.00000000000E+00 -0.00000000000E+00 -0.20023475819E+04  0.20023475819E+04  0.00000000000E+00 0.  1.
    9000007    2    1    2  502    0  0.18329888876E+03  0.33297384481E+03 -0.79418038641E+03  0.96763008824E+03  0.40139187532E+03 0.  0.
    9000005    1    3    3    0    0  0.25504157236E+03  0.19736522957E+03 -0.26729625413E+03  0.41886456635E+03  0.99999687468E+00 0.  0.
          4    1    3    3  502    0 -0.71742683598E+02  0.13560861524E+03 -0.52688413228E+03  0.54876552190E+03  0.00000000000E+00 0.  1.
   -9000007    1    1    2    0  501 -0.18329888876E+03 -0.33297384481E+03 -0.10535676862E+04  0.11893170029E+04  0.40000000000E+03 0. -1.
<mgrwt>
<rscale>  2 0.55229274E+03</rscale>
<asrwt>0</asrwt>
<pdfrwt beam="1">  1        2 0.30805345E+00 0.55229274E+03</pdfrwt>
<pdfrwt beam="2">  1       -2 0.23784541E-01 0.55229274E+03</pdfrwt>
<totfact> 0.10976741E+02</totfact>
</mgrwt>
</event>
<event>
 6    1  0.9022793E-004  0.4248807E+03  0.7818608E-02  0.1035489E+00
          2   -1    0    0  502    0  0.00000000000E+00  0.00000000000E+00  0.41141974258E+03  0.41141974258E+03  0.00000000000E+00 0.  1.
         -2   -1    0    0    0  501 -0.00000000000E+00 -0.00000000000E+00 -0.47721821270E+03  0.47721821270E+03  0.00000000000E+00 0. -1.
    9000007    2    1    2  502    0 -0.46141049901E+02 -0.13545776472E+03  0.93194320289E+02  0.43503404226E+03  0.40011452621E+03 0.  0.
    9000005    1    3    3    0    0 -0.20665709116E+03 -0.15406222305E+03  0.91221732049E+02  0.27343139229E+03  0.99999687468E+00 0.  0.
          4    1    3    3  502    0  0.16051604126E+03  0.18604458335E+02  0.19725882398E+01  0.16160264997E+03  0.00000000000E+00 0.  1.
   -9000007    1    1    2    0  501  0.46141049901E+02  0.13545776472E+03 -0.15899279041E+03  0.45360391302E+03  0.40000000000E+03 0. -1.
<mgrwt>
<rscale>  2 0.42488071E+03</rscale>
<asrwt>0</asrwt>
<pdfrwt beam="1">  1        2 0.63295345E-01 0.42488071E+03</pdfrwt>
<pdfrwt beam="2">  1       -2 0.73418187E-01 0.42488071E+03</pdfrwt>
<totfact> 0.13265335E+02</totfact>
</mgrwt>
</event>
<event>
 6    1  0.9022793E-004  0.4180613E+03  0.7818608E-02  0.1037699E+00
          2   -1    0    0  502    0  0.00000000000E+00  0.00000000000E+00  0.53782143422E+03  0.53782143422E+03  0.00000000000E+00 0.  1.
         -2   -1    0    0    0  501 -0.00000000000E+00 -0.00000000000E+00 -0.37402299254E+03  0.37402299254E+03  0.00000000000E+00 0. -1.
    9000007    2    1    2  502    0 -0.32912456883E+02  0.11657548288E+03 -0.83192107757E+02  0.42637825437E+03  0.40025543841E+03 0.  0.
    9000005    1    3    3    0    0 -0.61589017189E+01 -0.73450953891E+02 -0.19207862040E+03  0.20573811292E+03  0.99999687468E+00 0.  0.
          4    1    3    3  502    0 -0.26753555164E+02  0.19002643677E+03  0.10888651264E+03  0.22064014145E+03  0.00000000000E+00 0.  1.
   -9000007    1    1    2    0  501  0.32912456883E+02 -0.11657548288E+03  0.24699054943E+03  0.48546617239E+03  0.40000000000E+03 0.  1.
<mgrwt>
<rscale>  2 0.41806130E+03</rscale>
<asrwt>0</asrwt>
<pdfrwt beam="1">  1        2 0.82741759E-01 0.41806130E+03</pdfrwt>
<pdfrwt beam="2">  1       -2 0.57541999E-01 0.41806130E+03</pdfrwt>
<totfact> 0.16468992E+02</totfact>
</mgrwt>
</event>
<event>
 6    1  0.9022793E-004  0.5787661E+03  0.7818608E-02  0.9950466E-01
         -1   -1    0    0    0  501 -0.00000000000E+00  0.00000000000E+00  0.32425713690E+03  0.32425713690E+03  0.00000000000E+00 0. -1.
          1   -1    0    0  502    0  0.00000000000E+00 -0.00000000000E+00 -0.11135952538E+04  0.11135952538E+04  0.00000000000E+00 0.  1.
    9000007    2    1    2  502    0  0.37054974911E+03  0.19307515865E+03 -0.20151840425E+03  0.61316023722E+03  0.40096218751E+03 0.  0.
    9000005    1    3    3    0    0 -0.76249813072E+02  0.92134451824E+02 -0.59552840726E+02  0.13360513478E+03  0.99999687468E+00 0.  0.
          4    1    3    3  502    0  0.44679956218E+03  0.10094070683E+03 -0.14196556352E+03  0.47955510245E+03  0.00000000000E+00 0.  1.
   -9000007    1    1    2    0  501 -0.37054974911E+03 -0.19307515865E+03 -0.58781971269E+03  0.82469215352E+03  0.40000000000E+03 0. -1.
<mgrwt>
<rscale>  2 0.57876614E+03</rscale>
<asrwt>0</asrwt>
<pdfrwt beam="1">  1        1 0.17132235E+00 0.57876614E+03</pdfrwt>
<pdfrwt beam="2">  1       -1 0.49885713E-01 0.57876614E+03</pdfrwt>
<totfact> 0.52165156E+01</totfact>
</mgrwt>
</event>
<event>
 6    1  0.9022793E-004  0.4591432E+03  0.7818608E-02  0.1025030E+00
         -1   -1    0    0    0  501 -0.00000000000E+00  0.00000000000E+00  0.23941076380E+03  0.23941076380E+03  0.00000000000E+00 0.  1.
          1   -1    0    0  502    0  0.00000000000E+00 -0.00000000000E+00 -0.88159101975E+03  0.88159101975E+03  0.00000000000E+00 0. -1.
    9000007    2    1    2  502    0  0.96814075631E+02  0.20308770169E+03 -0.30195291407E+03  0.54971181867E+03  0.40048713019E+03 0.  0.
    9000005    1    3    3    0    0 -0.14031566498E+03  0.15415298618E+03 -0.86793344443E+02  0.22580016302E+03  0.99999687468E+00 0.  0.
          4    1    3    3  502    0  0.23712974061E+03  0.48934715513E+02 -0.21515956963E+03  0.32391165565E+03  0.00000000000E+00 0.  1.
   -9000007    1    1    2    0  501 -0.96814075631E+02 -0.20308770169E+03 -0.34022734187E+03  0.57128996488E+03  0.40000000000E+03 0.  1.
<mgrwt>
<rscale>  2 0.45914318E+03</rscale>
<asrwt>0</asrwt>
<pdfrwt beam="1">  1        1 0.13562939E+00 0.45914318E+03</pdfrwt>
<pdfrwt beam="2">  1       -1 0.36832425E-01 0.45914318E+03</pdfrwt>
<totfact> 0.13907686E+02</totfact>
</mgrwt>
</event>
<event>
 6    1  0.9022793E-004  0.4542908E+03  0.7818608E-02  0.1026450E+00
          2   -1    0    0  502    0  0.00000000000E+00  0.00000000000E+00  0.46133126235E+03  0.46133126235E+03  0.00000000000E+00 0. -1.
         -2   -1    0    0    0  501 -0.00000000000E+00 -0.00000000000E+00 -0.48131709187E+03  0.48131709187E+03  0.00000000000E+00 0.  1.
    9000007    2    1    2  502    0 -0.15959929141E+03 -0.14433609824E+03 -0.13518849622E+03  0.47405845091E+03  0.40018825857E+03 0.  0.
    9000005    1    3    3    0    0 -0.29383633778E+03 -0.77672947426E+02 -0.10159537623E+03  0.32046138711E+03  0.99999687468E+00 0.  0.
          4    1    3    3  502    0  0.13423704638E+03 -0.66663150812E+02 -0.33593119990E+02  0.15359706380E+03  0.00000000000E+00 0.  1.
   -9000007    1    1    2    0  501  0.15959929141E+03  0.14433609824E+03  0.11520266669E+03  0.46858990331E+03  0.40000000000E+03 0.  1.
<mgrwt>
<rscale>  2 0.45429082E+03</rscale>
<asrwt>0</asrwt>
<pdfrwt beam="1">  1        2 0.70974040E-01 0.45429082E+03</pdfrwt>
<pdfrwt beam="2">  1       -2 0.74048783E-01 0.45429082E+03</pdfrwt>
<totfact> 0.11426362E+02</totfact>
</mgrwt>
</event>
<event>
 6    1  0.9022793E-004  0.4577064E+03  0.7818608E-02  0.1025449E+00
         -2   -1    0    0    0  501 -0.00000000000E+00  0.00000000000E+00  0.19771333644E+04  0.19771333644E+04  0.00000000000E+00 0. -1.
          2   -1    0    0  502    0  0.00000000000E+00 -0.00000000000E+00 -0.12297669457E+03  0.12297669457E+03  0.00000000000E+00 0.  1.
    9000007    2    1    2  502    0 -0.21926380689E+03 -0.35140544313E+02  0.53681217198E+03  0.70558218157E+03  0.40045902673E+03 0.  0.
    9000005    1    3    3    0    0 -0.24183782485E+03  0.11008333534E+03  0.18349436074E+03  0.32291648249E+03  0.99999687468E+00 0.  0.
          4    1    3    3  502    0  0.22574017964E+02 -0.14522387965E+03  0.35331781125E+03  0.38266569908E+03  0.00000000000E+00 0.  1.
   -9000007    1    1    2    0  501  0.21926380689E+03  0.35140544313E+02  0.13173444979E+04  0.13945278774E+04  0.40000000000E+03 0. -1.
<mgrwt>
<rscale>  2 0.45770636E+03</rscale>
<asrwt>0</asrwt>
<pdfrwt beam="1">  1        2 0.18919493E-01 0.45770636E+03</pdfrwt>
<pdfrwt beam="2">  1       -2 0.30417434E+00 0.45770636E+03</pdfrwt>
<totfact> 0.98430760E+00</totfact>
</mgrwt>
</event>
<event>
 6    1  0.9022793E-004  0.4643319E+03  0.7818608E-02  0.1023532E+00
          1   -1    0    0  502    0  0.00000000000E+00  0.00000000000E+00  0.32381795433E+03  0.32381795433E+03  0.00000000000E+00 0.  1.
         -1   -1    0    0    0  501 -0.00000000000E+00 -0.00000000000E+00 -0.73169915264E+03  0.73169915264E+03  0.00000000000E+00 0. -1.
    9000007    2    1    2  502    0 -0.23536865801E+03 -0.14950998167E+02 -0.45572427391E+02  0.46654377736E+03  0.39995538818E+03 0.  0.
    9000005    1    3    3    0    0 -0.33143501934E+03  0.65816527119E+02 -0.46076538187E+02  0.34103523961E+03  0.99999687468E+00 0.  0.
          4    1    3    3  502    0  0.96066361331E+02 -0.80767525286E+02  0.50411079629E+00  0.12550853775E+03  0.00000000000E+00 0.  1.
   -9000007    1    1    2    0  501  0.23536865801E+03  0.14950998167E+02 -0.36230877092E+03  0.58897332962E+03  0.40000000000E+03 0. -1.
<mgrwt>
<rscale>  2 0.46433188E+03</rscale>
<asrwt>0</asrwt>
<pdfrwt beam="1">  1        1 0.49818147E-01 0.46433188E+03</pdfrwt>
<pdfrwt beam="2">  1       -1 0.11256910E+00 0.46433188E+03</pdfrwt>
<totfact> 0.60013086E+01</totfact>
</mgrwt>
</event>
<event>
 6    1  0.9022793E-004  0.4332059E+03  0.7818608E-02  0.1032852E+00
         -1   -1    0    0    0  501 -0.00000000000E+00  0.00000000000E+00  0.18934053973E+03  0.18934053973E+03  0.00000000000E+00 0.  1.
          1   -1    0    0  502    0  0.00000000000E+00 -0.00000000000E+00 -0.14177040035E+04  0.14177040035E+04  0.00000000000E+00 0. -1.
    9000007    2    1    2  502    0 -0.93115931275E+01 -0.16546018838E+03 -0.17367173113E+03  0.46693997319E+03  0.40050878725E+03 0.  0.
    9000005    1    3    3    0    0  0.18573741655E+03 -0.14218063904E+02 -0.83888614859E+02  0.20430085889E+03  0.99999687468E+00 0.  0.
          4    1    3    3  502    0 -0.19504900968E+03 -0.15124212448E+03 -0.89783116273E+02  0.26263911430E+03  0.00000000000E+00 0.  1.
   -9000007    1    1    2    0  501  0.93115931275E+01  0.16546018838E+03 -0.10546917326E+04  0.11401045700E+04  0.40000000000E+03 0. -1.
<mgrwt>
<rscale>  2 0.43320586E+03</rscale>
<asrwt>0</asrwt>
<pdfrwt beam="1">  1        1 0.21810831E+00 0.43320586E+03</pdfrwt>
<pdfrwt beam="2">  1       -1 0.29129314E-01 0.43320586E+03</pdfrwt>
<totfact> 0.85361317E+01</totfact>
</mgrwt>
</event>
<event>
 6    1  0.9022793E-004  0.5521172E+03  0.7818608E-02  0.1001005E+00
          2   -1    0    0  502    0  0.00000000000E+00  0.00000000000E+00  0.63036968709E+03  0.63036968709E+03  0.00000000000E+00 0. -1.
         -2   -1    0    0    0  501 -0.00000000000E+00 -0.00000000000E+00 -0.48732036915E+03  0.48732036915E+03  0.00000000000E+00 0.  1.
    9000007    2    1    2  502    0  0.34214670591E+03  0.16669841843E+03  0.12049028223E+03  0.56509468785E+03  0.39995170590E+03 0.  0.
    9000005    1    3    3    0    0  0.87714816628E+02  0.16304550924E+03  0.22380655389E+03  0.29046187477E+03  0.99999687468E+00 0.  0.
          4    1    3    3  502    0  0.25443188928E+03  0.36529091917E+01 -0.10331627166E+03  0.27463281308E+03  0.00000000000E+00 0.  1.
   -9000007    1    1    2    0  501 -0.34214670591E+03 -0.16669841843E+03  0.22559035712E+02  0.55259536839E+03  0.40000000000E+03 0. -1.
<mgrwt>
<rscale>  2 0.55211721E+03</rscale>
<asrwt>0</asrwt>
<pdfrwt beam="1">  1        2 0.96979952E-01 0.55211721E+03</pdfrwt>
<pdfrwt beam="2">  1       -2 0.74972364E-01 0.55211721E+03</pdfrwt>
<totfact> 0.76638814E+01</totfact>
</mgrwt>
</event>
<event>
 6    1  0.9022793E-004  0.5149267E+03  0.7818608E-02  0.1009955E+00
         -2   -1    0    0    0  501 -0.00000000000E+00  0.00000000000E+00  0.35411764830E+03  0.35411764830E+03  0.00000000000E+00 0.  1.
          2   -1    0    0  502    0  0.00000000000E+00 -0.00000000000E+00 -0.83168612780E+03  0.83168612780E+03  0.00000000000E+00 0. -1.
    9000007    2    1    2  502    0 -0.25093180365E+03 -0.20506640736E+03 -0.42605447350E+03  0.66843283149E+03  0.40032615991E+03 0.  0.
    9000005    1    3    3    0    0 -0.14880846736E+03  0.93916278957E+00 -0.41202511381E+03  0.43807594820E+03  0.99999687468E+00 0.  0.
          4    1    3    3  502    0 -0.10212333628E+03 -0.20600557015E+03 -0.14029359691E+02  0.23035688329E+03  0.00000000000E+00 0.  1.
   -9000007    1    1    2    0  501  0.25093180365E+03  0.20506640736E+03 -0.51514005996E+02  0.51737094461E+03  0.40000000000E+03 0. -1.
<mgrwt>
<rscale>  2 0.51492668E+03</rscale>
<asrwt>0</asrwt>
<pdfrwt beam="1">  1        2 0.12795171E+00 0.51492668E+03</pdfrwt>
<pdfrwt beam="2">  1       -2 0.54479638E-01 0.51492668E+03</pdfrwt>
<totfact> 0.10691311E+02</totfact>
</mgrwt>
</event>
<event>
 6    1  0.9022793E-004  0.4518893E+03  0.7818608E-02  0.1027160E+00
         -2   -1    0    0    0  501 -0.00000000000E+00  0.00000000000E+00  0.74841092523E+02  0.74841092523E+02  0.00000000000E+00 0. -1.
          2   -1    0    0  502    0  0.00000000000E+00 -0.00000000000E+00 -0.30307415260E+04  0.30307415260E+04  0.00000000000E+00 0.  1.
    9000007    2    1    2  502    0 -0.16977910972E+03 -0.12380539685E+03 -0.19684772796E+04  0.20196925655E+04  0.40012815016E+03 0.  0.
    9000005    1    3    3    0    0 -0.20588574261E+03  0.86427088081E+02 -0.12660695308E+04  0.12856094420E+04  0.99999687468E+00 0.  0.
          4    1    3    3  502    0  0.36106632894E+02 -0.21023248493E+03 -0.70240774880E+03  0.73408312352E+03  0.00000000000E+00 0.  1.
   -9000007    1    1    2    0  501  0.16977910972E+03  0.12380539685E+03 -0.98742315383E+03  0.10858900530E+04  0.40000000000E+03 0.  1.
<mgrwt>
<rscale>  2 0.45188935E+03</rscale>
<asrwt>0</asrwt>
<pdfrwt beam="1">  1        2 0.46626789E+00 0.45188935E+03</pdfrwt>
<pdfrwt beam="2">  1       -2 0.11514015E-01 0.45188935E+03</pdfrwt>
<totfact> 0.10072282E+02</totfact>
</mgrwt>
</event>
<event>
 6    1  0.9022793E-004  0.4883176E+03  0.7818608E-02  0.1016874E+00
         -1   -1    0    0    0  501 -0.00000000000E+00  0.00000000000E+00  0.53224303853E+03  0.53224303853E+03  0.00000000000E+00 0. -1.
          1   -1    0    0  502    0  0.00000000000E+00 -0.00000000000E+00 -0.44845818721E+03  0.44845818721E+03  0.00000000000E+00 0.  1.
    9000007    2    1    2  502    0  0.28002575370E+03 -0.14405517012E+01  0.26521617351E+02  0.48907578306E+03  0.40009402328E+03 0.  0.
    9000005    1    3    3    0    0  0.18753949468E+03 -0.18888019567E+03  0.70787852971E+02  0.27542460039E+03  0.99999687468E+00 0.  0.
          4    1    3    3  502    0  0.92486259028E+02  0.18743964397E+03 -0.44266235620E+02  0.21365118267E+03  0.00000000000E+00 0.  1.
   -9000007    1    1    2    0  501 -0.28002575370E+03  0.14405517012E+01  0.57263233970E+02  0.49162544268E+03  0.40000000000E+03 0.  1.
<mgrwt>
<rscale>  2 0.48831763E+03</rscale>
<asrwt>0</asrwt>
<pdfrwt beam="1">  1        1 0.68993567E-01 0.48831763E+03</pdfrwt>
<pdfrwt beam="2">  1       -1 0.81883545E-01 0.48831763E+03</pdfrwt>
<totfact> 0.79591034E+01</totfact>
</mgrwt>
</event>
<event>
 6    1  0.9022793E-004  0.4228638E+03  0.7818608E-02  0.1036138E+00
          4   -1    0    0  502    0  0.00000000000E+00  0.00000000000E+00  0.23221619303E+04  0.23221619303E+04  0.00000000000E+00 0. -1.
         -4   -1    0    0    0  501 -0.00000000000E+00 -0.00000000000E+00 -0.77624800716E+02  0.77624800716E+02  0.00000000000E+00 0.  1.
    9000007    2    1    2  502    0 -0.31305901498E+02 -0.13477575291E+03  0.10138683217E+04  0.10983681674E+04  0.39917301306E+03 0.  0.
    9000005    1    3    3    0    0 -0.14579785846E+03 -0.12998146336E+03  0.94434651710E+03  0.96433580287E+03  0.99999687468E+00 0.  0.
          4    1    3    3  502    0  0.11449195696E+03 -0.47942895548E+01  0.69521804576E+02  0.13403236450E+03  0.00000000000E+00 0.  1.
   -9000007    1    1    2    0  501  0.31305901498E+02  0.13477575291E+03  0.12306688079E+04  0.13014185636E+04  0.40000000000E+03 0. -1.
<mgrwt>
<rscale>  2 0.42286381E+03</rscale>
<asrwt>0</asrwt>
<pdfrwt beam="1">  1        4 0.35725563E+00 0.42286381E+03</pdfrwt>
<pdfrwt beam="2">  1       -4 0.11942279E-01 0.42286381E+03</pdfrwt>
<totfact> 0.16441429E+00</totfact>
</mgrwt>
</event>
<event>
 6    1  0.9022793E-004  0.4096613E+03  0.7818608E-02  0.1040485E+00
         -2   -1    0    0    0  501 -0.00000000000E+00  0.00000000000E+00  0.15732133795E+03  0.15732133795E+03  0.00000000000E+00 0.  1.
          2   -1    0    0  502    0  0.00000000000E+00 -0.00000000000E+00 -0.10667872284E+04  0.10667872284E+04  0.00000000000E+00 0. -1.
    9000007    2    1    2  502    0  0.45830168859E+02 -0.77389532731E+02 -0.45073874306E+03  0.60886866199E+03  0.39933205345E+03 0.  0.
    9000005    1    3    3    0    0  0.20907548236E+03 -0.64864800006E+02 -0.14660425353E+03  0.26346500100E+03  0.99999687468E+00 0.  0.
          4    1    3    3  502    0 -0.16324531350E+03 -0.12524732724E+02 -0.30413448953E+03  0.34540366100E+03  0.00000000000E+00 0.  1.
   -9000007    1    1    2    0  501 -0.45830168859E+02  0.77389532731E+02 -0.45872714740E+03  0.61523990436E+03  0.40000000000E+03 0. -1.
<mgrwt>
<rscale>  2 0.40966129E+03</rscale>
<asrwt>0</asrwt>
<pdfrwt beam="1">  1        2 0.16412110E+00 0.40966129E+03</pdfrwt>
<pdfrwt beam="2">  1       -2 0.24203284E-01 0.40966129E+03</pdfrwt>
<totfact> 0.35754099E+02</totfact>
</mgrwt>
</event>
<event>
 6    1  0.9022793E-004  0.4257231E+03  0.7818608E-02  0.1035220E+00
         -2   -1    0    0    0  501 -0.00000000000E+00  0.00000000000E+00  0.19006276894E+04  0.19006276894E+04  0.00000000000E+00 0.  1.
          2   -1    0    0  502    0  0.00000000000E+00 -0.00000000000E+00 -0.98664737387E+02  0.98664737387E+02  0.00000000000E+00 0. -1.
    9000007    2    1    2  502    0  0.60381781681E+01  0.14537638634E+03  0.10841529911E+04  0.11647734676E+04  0.40017342410E+03 0.  0.
    9000005    1    3    3    0    0 -0.50555384993E+02  0.27138262159E+03  0.84070708107E+03  0.88486935217E+03  0.99999687468E+00 0.  0.
          4    1    3    3  502    0  0.56593563161E+02 -0.12600623525E+03  0.24344591001E+03  0.27990411539E+03  0.00000000000E+00 0.  1.
   -9000007    1    1    2    0  501 -0.60381781681E+01 -0.14537638634E+03  0.71780996096E+03  0.83451895925E+03  0.40000000000E+03 0. -1.
<mgrwt>
<rscale>  2 0.42572306E+03</rscale>
<asrwt>0</asrwt>
<pdfrwt beam="1">  1        2 0.15179192E-01 0.42572306E+03</pdfrwt>
<pdfrwt beam="2">  1       -2 0.29240423E+00 0.42572306E+03</pdfrwt>
<totfact> 0.15105365E+01</totfact>
</mgrwt>
</event>
<event>
 6    1  0.9022793E-004  0.4712647E+03  0.7818608E-02  0.1021564E+00
         -2   -1    0    0    0  501 -0.00000000000E+00  0.00000000000E+00  0.38452981214E+03  0.38452981214E+03  0.00000000000E+00 0. -1.
          2   -1    0    0  502    0  0.00000000000E+00 -0.00000000000E+00 -0.67493453106E+03  0.67493453106E+03  0.00000000000E+00 0.  1.
    9000007    2    1    2  502    0  0.24128787837E+03 -0.60163777557E+02 -0.34647813513E+03  0.58513982519E+03  0.40062700424E+03 0.  0.
    9000005    1    3    3    0    0  0.25588662821E+02  0.73761521369E+02  0.65027199622E+02  0.10161239287E+03  0.99999687468E+00 0.  0.
          4    1    3    3  502    0  0.21569921555E+03 -0.13392529893E+03 -0.41150533475E+03  0.48352743232E+03  0.00000000000E+00 0.  1.
   -9000007    1    1    2    0  501 -0.24128787837E+03  0.60163777557E+02  0.56073416218E+02  0.47432451801E+03  0.40000000000E+03 0. -1.
<mgrwt>
<rscale>  2 0.47126466E+03</rscale>
<asrwt>0</asrwt>
<pdfrwt beam="1">  1        2 0.10383608E+00 0.47126466E+03</pdfrwt>
<pdfrwt beam="2">  1       -2 0.59158432E-01 0.47126466E+03</pdfrwt>
<totfact> 0.11810967E+02</totfact>
</mgrwt>
</event>
<event>
 6    1  0.9022793E-004  0.7893782E+03  0.7818608E-02  0.9575520E-01
         -1   -1    0    0    0  501 -0.00000000000E+00  0.00000000000E+00  0.34751485801E+03  0.34751485801E+03  0.00000000000E+00 0. -1.
          1   -1    0    0  502    0  0.00000000000E+00 -0.00000000000E+00 -0.18016010713E+04  0.18016010713E+04  0.00000000000E+00 0.  1.
    9000007    2    1    2  502    0  0.31026050822E+03  0.60548934957E+03 -0.80113122969E+03  0.11247970600E+04  0.40059735849E+03 0.  0.
    9000005    1    3    3    0    0 -0.84729270155E+02  0.27415911108E+02 -0.10107614258E+03  0.13471476532E+03  0.99999687468E+00 0.  0.
          4    1    3    3  502    0  0.39498977837E+03  0.57807343846E+03 -0.70005508712E+03  0.99008229470E+03  0.00000000000E+00 0.  1.
   -9000007    1    1    2    0  501 -0.31026050822E+03 -0.60548934957E+03 -0.65295498362E+03  0.10243188693E+04  0.40000000000E+03 0. -1.
<mgrwt>
<rscale>  2 0.78937824E+03</rscale>
<asrwt>0</asrwt>
<pdfrwt beam="1">  1        1 0.27716940E+00 0.78937824E+03</pdfrwt>
<pdfrwt beam="2">  1       -1 0.53463824E-01 0.78937824E+03</pdfrwt>
<totfact> 0.14840734E+01</totfact>
</mgrwt>
</event>
<event>
 6    1  0.9022793E-004  0.5195172E+03  0.7818608E-02  0.1008807E+00
          2   -1    0    0  502    0  0.00000000000E+00  0.00000000000E+00  0.70464152556E+03  0.70464152556E+03  0.00000000000E+00 0. -1.
         -2   -1    0    0    0  501 -0.00000000000E+00 -0.00000000000E+00 -0.39462767117E+03  0.39462767117E+03  0.00000000000E+00 0.  1.
    9000007    2    1    2  502    0  0.26022492676E+02 -0.33058778847E+03  0.24921731366E+03  0.57614237140E+03  0.39983159791E+03 0.  0.
    9000005    1    3    3    0    0  0.21595516269E+02 -0.23916148746E+03  0.35980984667E+03  0.43258375971E+03  0.99999687468E+00 0.  0.
          4    1    3    3  502    0  0.44269764064E+01 -0.91426301008E+02 -0.11059253300E+03  0.14355861170E+03  0.00000000000E+00 0.  1.
   -9000007    1    1    2    0  501 -0.26022492676E+02  0.33058778847E+03  0.60796540720E+02  0.52312682533E+03  0.40000000000E+03 0. -1.
<mgrwt>
<rscale>  2 0.51951718E+03</rscale>
<asrwt>0</asrwt>
<pdfrwt beam="1">  1        2 0.10840639E+00 0.51951718E+03</pdfrwt>
<pdfrwt beam="2">  1       -2 0.60711949E-01 0.51951718E+03</pdfrwt>
<totfact> 0.10559084E+02</totfact>
</mgrwt>
</event>
<event>
 6    1  0.9022793E-004  0.6133553E+03  0.7818608E-02  0.9878079E-01
         -1   -1    0    0    0  501 -0.00000000000E+00  0.00000000000E+00  0.21351677934E+03  0.21351677934E+03  0.00000000000E+00 0.  1.
          1   -1    0    0  502    0  0.00000000000E+00 -0.00000000000E+00 -0.24193511137E+04  0.24193511137E+04  0.00000000000E+00 0. -1.
    9000007    2    1    2  502    0 -0.46446368993E+03 -0.24151446527E+02 -0.41657972605E+03  0.74137592504E+03  0.39973714169E+03 0.  0.
    9000005    1    3    3    0    0 -0.53565809201E+03 -0.19531590347E+02 -0.39809415219E+03  0.66767584093E+03  0.99999687468E+00 0.  0.
          4    1    3    3  502    0  0.71194402076E+02 -0.46198561801E+01 -0.18485573863E+02  0.73700084118E+02  0.00000000000E+00 0.  1.
   -9000007    1    1    2    0  501  0.46446368993E+03  0.24151446527E+02 -0.17892546083E+04  0.18914919680E+04  0.40000000000E+03 0. -1.
<mgrwt>
<rscale>  2 0.61335527E+03</rscale>
<asrwt>0</asrwt>
<pdfrwt beam="1">  1        1 0.37220786E+00 0.61335527E+03</pdfrwt>
<pdfrwt beam="2">  1       -1 0.32848736E-01 0.61335527E+03</pdfrwt>
<totfact> 0.14383951E+01</totfact>
</mgrwt>
</event>
<event>
 6    1  0.9022793E-004  0.4637280E+03  0.7818608E-02  0.1023706E+00
         -1   -1    0    0    0  501 -0.00000000000E+00  0.00000000000E+00  0.31039838112E+03  0.31039838112E+03  0.00000000000E+00 0. -1.
          1   -1    0    0  502    0  0.00000000000E+00 -0.00000000000E+00 -0.70645812479E+03  0.70645812479E+03  0.00000000000E+00 0.  1.
    9000007    2    1    2  502    0 -0.59447209354E+02 -0.22605175751E+03 -0.26891050682E+03  0.53643971165E+03  0.40102535554E+03 0.  0.
    9000005    1    3    3    0    0 -0.22442050087E+03 -0.18893927041E+03 -0.19247410982E+03  0.35087019261E+03  0.99999687468E+00 0.  0.
          4    1    3    3  502    0  0.16497329152E+03 -0.37112487104E+02 -0.76436396998E+02  0.18556951905E+03  0.00000000000E+00 0.  1.
   -9000007    1    1    2    0  501  0.59447209354E+02  0.22605175751E+03 -0.12714923686E+03  0.48041679426E+03  0.40000000000E+03 0. -1.
<mgrwt>
<rscale>  2 0.46372798E+03</rscale>
<asrwt>0</asrwt>
<pdfrwt beam="1">  1        1 0.10868586E+00 0.46372798E+03</pdfrwt>
<pdfrwt beam="2">  1       -1 0.47753597E-01 0.46372798E+03</pdfrwt>
<totfact> 0.12263761E+02</totfact>
</mgrwt>
</event>
<event>
 6    1  0.9022793E-004  0.5235326E+03  0.7818608E-02  0.1007813E+00
          2   -1    0    0  502    0  0.00000000000E+00  0.00000000000E+00  0.38585439627E+03  0.38585439627E+03  0.00000000000E+00 0.  1.
         -2   -1    0    0    0  501 -0.00000000000E+00 -0.00000000000E+00 -0.77780803963E+03  0.77780803963E+03  0.00000000000E+00 0. -1.
    9000007    2    1    2  502    0  0.32380670770E+03  0.95537418245E+02 -0.36737699116E+03  0.63965652557E+03  0.40027045211E+03 0.  0.
    9000005    1    3    3    0    0 -0.34334493139E+02  0.77174785356E+02 -0.24753231316E+03  0.26154932797E+03  0.99999687468E+00 0.  0.
          4    1    3    3  502    0  0.35814120084E+03  0.18362632889E+02 -0.11984467800E+03  0.37810719759E+03  0.00000000000E+00 0.  1.
   -9000007    1    1    2    0  501 -0.32380670770E+03 -0.95537418245E+02 -0.24576652201E+02  0.52400591034E+03  0.40000000000E+03 0.  1.
<mgrwt>
<rscale>  2 0.52353260E+03</rscale>
<asrwt>0</asrwt>
<pdfrwt beam="1">  1        2 0.59362216E-01 0.52353260E+03</pdfrwt>
<pdfrwt beam="2">  1       -2 0.11966277E+00 0.52353260E+03</pdfrwt>
<totfact> 0.45557443E+01</totfact>
</mgrwt>
</event>
<event>
 6    1  0.9022793E-004  0.4057008E+03  0.7818608E-02  0.1041823E+00
         -2   -1    0    0    0  501 -0.00000000000E+00  0.00000000000E+00  0.63094128805E+03  0.63094128805E+03  0.00000000000E+00 0.  1.
          2   -1    0    0  502    0  0.00000000000E+00 -0.00000000000E+00 -0.38351635090E+03  0.38351635090E+03  0.00000000000E+00 0. -1.
    9000007    2    1    2  502    0  0.29305626454E+02  0.59915772926E+02 -0.16309126492E+03  0.43742014299E+03  0.40036096365E+03 0.  0.
    9000005    1    3    3    0    0 -0.29459897434E+02 -0.49073785687E+02 -0.26866718389E+03  0.27469833944E+03  0.99999687468E+00 0.  0.
          4    1    3    3  502    0  0.58765523888E+02  0.10898955861E+03  0.10557591897E+03  0.16272180355E+03  0.00000000000E+00 0.  1.
   -9000007    1    1    2    0  501 -0.29305626454E+02 -0.59915772926E+02  0.41051620207E+03  0.57703749596E+03  0.40000000000E+03 0.  1.
<mgrwt>
<rscale>  2 0.40570076E+03</rscale>
<asrwt>0</asrwt>
<pdfrwt beam="1">  1        2 0.59002515E-01 0.40570076E+03</pdfrwt>
<pdfrwt beam="2">  1       -2 0.97067891E-01 0.40570076E+03</pdfrwt>
<totfact> 0.76499864E+01</totfact>
</mgrwt>
</event>
<event>
 6    1  0.9022793E-004  0.4560489E+03  0.7818608E-02  0.1025933E+00
         -2   -1    0    0    0  501 -0.00000000000E+00  0.00000000000E+00  0.22248467927E+03  0.22248467927E+03  0.00000000000E+00 0. -1.
          2   -1    0    0  502    0  0.00000000000E+00 -0.00000000000E+00 -0.11191653374E+04  0.11191653374E+04  0.00000000000E+00 0.  1.
    9000007    2    1    2  502    0  0.49409012904E+02  0.21171387502E+03 -0.17672401142E+03  0.48982750664E+03  0.40179048597E+03 0.  0.
    9000005    1    3    3    0    0  0.10048455316E+03  0.31219892522E+03 -0.71606808760E+02  0.33569904586E+03  0.99999687468E+00 0.  0.
          4    1    3    3  502    0 -0.51075540257E+02 -0.10048505021E+03 -0.10511720266E+03  0.15412846078E+03  0.00000000000E+00 0.  1.
   -9000007    1    1    2    0  501 -0.49409012904E+02 -0.21171387502E+03 -0.71995664666E+03  0.85182250998E+03  0.40000000000E+03 0.  1.
<mgrwt>
<rscale>  2 0.45604887E+03</rscale>
<asrwt>0</asrwt>
<pdfrwt beam="1">  1        2 0.17217929E+00 0.45604887E+03</pdfrwt>
<pdfrwt beam="2">  1       -2 0.34228411E-01 0.45604887E+03</pdfrwt>
<totfact> 0.17571273E+02</totfact>
</mgrwt>
</event>
<event>
 6    1  0.9022793E-004  0.4524764E+03  0.7818608E-02  0.1026986E+00
         -2   -1    0    0    0  501 -0.00000000000E+00  0.00000000000E+00  0.14831480376E+03  0.14831480376E+03  0.00000000000E+00 0. -1.
          2   -1    0    0  502    0  0.00000000000E+00 -0.00000000000E+00 -0.22856694688E+04  0.22856694688E+04  0.00000000000E+00 0.  1.
    9000007    2    1    2  502    0  0.56340759077E+02  0.20392810161E+03 -0.18345292978E+04  0.18894990526E+04  0.39993496128E+03 0.  0.
    9000005    1    3    3    0    0  0.12284382732E+03  0.24819321086E+03 -0.70940960975E+03  0.76154676169E+03  0.99999687468E+00 0.  0.
          4    1    3    3  502    0 -0.66503068239E+02 -0.44265109257E+02 -0.11251196881E+04  0.11279522909E+04  0.00000000000E+00 0.  1.
   -9000007    1    1    2    0  501 -0.56340759077E+02 -0.20392810161E+03 -0.30282536718E+03  0.54448521997E+03  0.40000000000E+03 0.  1.
<mgrwt>
<rscale>  2 0.45247645E+03</rscale>
<asrwt>0</asrwt>
<pdfrwt beam="1">  1        2 0.35164146E+00 0.45247645E+03</pdfrwt>
<pdfrwt beam="2">  1       -2 0.22817662E-01 0.45247645E+03</pdfrwt>
<totfact> 0.84335535E+01</totfact>
</mgrwt>
</event>
<event>
 6    1  0.9022793E-004  0.4756193E+03  0.7818608E-02  0.1020346E+00
         -4   -1    0    0    0  501 -0.00000000000E+00  0.00000000000E+00  0.10909174858E+03  0.10909174858E+03  0.00000000000E+00 0. -1.
          4   -1    0    0  502    0  0.00000000000E+00 -0.00000000000E+00 -0.22990294531E+04  0.22990294531E+04  0.00000000000E+00 0.  1.
    9000007    2    1    2  502    0  0.13132786662E+03  0.22117780668E+03 -0.14720983124E+04  0.15470404717E+04  0.40011766877E+03 0.  0.
    9000005    1    3    3    0    0  0.46286122941E+02 -0.32684969678E+02 -0.63327824371E+01  0.57024701200E+02  0.99999687468E+00 0.  0.
          4    1    3    3  502    0  0.85041743683E+02  0.25386277635E+03 -0.14657655300E+04  0.14900157705E+04  0.00000000000E+00 0.  1.
   -9000007    1    1    2    0  501 -0.13132786662E+03 -0.22117780668E+03 -0.71783939208E+03  0.86108072998E+03  0.40000000000E+03 0. -1.
<mgrwt>
<rscale>  2 0.47561928E+03</rscale>
<asrwt>0</asrwt>
<pdfrwt beam="1">  1        4 0.35369683E+00 0.47561928E+03</pdfrwt>
<pdfrwt beam="2">  1       -4 0.16783346E-01 0.47561928E+03</pdfrwt>
<totfact> 0.94319837E-01</totfact>
</mgrwt>
</event>
<event>
 6    1  0.9022793E-004  0.5143412E+03  0.7818608E-02  0.1010102E+00
         -1   -1    0    0    0  501 -0.00000000000E+00  0.00000000000E+00  0.61356185891E+03  0.61356185891E+03  0.00000000000E+00 0. -1.
          1   -1    0    0  502    0  0.00000000000E+00 -0.00000000000E+00 -0.87295051661E+03  0.87295051661E+03  0.00000000000E+00 0.  1.
    9000007    2    1    2  502    0  0.19010892585E+02 -0.32399641803E+03 -0.65834663347E+03  0.83497376625E+03  0.39802739553E+03 0.  0.
    9000005    1    3    3    0    0  0.83604601852E+02 -0.30485351593E+02  0.21592870954E+02  0.91576952245E+02  0.99999687468E+00 0.  0.
          4    1    3    3  502    0 -0.64593709267E+02 -0.29351106644E+03 -0.67993950442E+03  0.74339681400E+03  0.00000000000E+00 0.  1.
   -9000007    1    1    2    0  501 -0.19010892585E+02  0.32399641803E+03  0.39895797577E+03  0.65153860927E+03  0.40000000000E+03 0. -1.
<mgrwt>
<rscale>  2 0.51434116E+03</rscale>
<asrwt>0</asrwt>
<pdfrwt beam="1">  1        1 0.13430008E+00 0.51434116E+03</pdfrwt>
<pdfrwt beam="2">  1       -1 0.94394132E-01 0.51434116E+03</pdfrwt>
<totfact> 0.22105928E+01</totfact>
</mgrwt>
</event>
<event>
 6    1  0.9022793E-004  0.4079209E+03  0.7818608E-02  0.1041071E+00
         -3   -1    0    0    0  501 -0.00000000000E+00  0.00000000000E+00  0.78445641083E+02  0.78445641083E+02  0.00000000000E+00 0.  1.
          3   -1    0    0  502    0  0.00000000000E+00 -0.00000000000E+00 -0.23486927996E+04  0.23486927996E+04  0.00000000000E+00 0. -1.
    9000007    2    1    2  502    0  0.52760107019E+02 -0.57109989130E+02 -0.15138975058E+04  0.15680051699E+04  0.40088573824E+03 0.  0.
    9000005    1    3    3    0    0  0.21976929114E+03 -0.38223446230E+02 -0.10777599755E+04  0.11006030792E+04  0.99999687468E+00 0.  0.
          4    1    3    3  502    0 -0.16700918412E+03 -0.18886542900E+02 -0.43613753030E+03  0.46740209073E+03  0.00000000000E+00 0.  1.
   -9000007    1    1    2    0  501 -0.52760107019E+02  0.57109989130E+02 -0.75634965278E+03  0.85913327081E+03  0.40000000000E+03 0.  1.
<mgrwt>
<rscale>  2 0.40792094E+03</rscale>
<asrwt>0</asrwt>
<pdfrwt beam="1">  1        3 0.36133735E+00 0.40792094E+03</pdfrwt>
<pdfrwt beam="2">  1       -3 0.12068560E-01 0.40792094E+03</pdfrwt>
<totfact> 0.27975342E+00</totfact>
</mgrwt>
</event>
<event>
 6    1  0.9022793E-004  0.4662764E+03  0.7818608E-02  0.1022976E+00
          1   -1    0    0  502    0  0.00000000000E+00  0.00000000000E+00  0.73357637162E+03  0.73357637162E+03  0.00000000000E+00 0. -1.
         -1   -1    0    0    0  501 -0.00000000000E+00 -0.00000000000E+00 -0.29668377425E+03  0.29668377425E+03  0.00000000000E+00 0.  1.
    9000007    2    1    2  502    0  0.79766244604E+02  0.22619859410E+03  0.20176912653E+03  0.50794653864E+03  0.39971295694E+03 0.  0.
    9000005    1    3    3    0    0  0.22828248753E+03  0.10286350170E+03  0.19040527930E+03  0.31456154322E+03  0.99999687468E+00 0.  0.
          4    1    3    3  502    0 -0.14851624292E+03  0.12333509241E+03  0.11363847237E+02  0.19338499543E+03  0.00000000000E+00 0.  1.
   -9000007    1    1    2    0  501 -0.79766244604E+02 -0.22619859410E+03  0.23512347084E+03  0.52231360722E+03  0.40000000000E+03 0. -1.
<mgrwt>
<rscale>  2 0.46627637E+03</rscale>
<asrwt>0</asrwt>
<pdfrwt beam="1">  1        1 0.11285790E+00 0.46627637E+03</pdfrwt>
<pdfrwt beam="2">  1       -1 0.45643658E-01 0.46627637E+03</pdfrwt>
<totfact> 0.12595542E+02</totfact>
</mgrwt>
</event>
<event>
 6    1  0.9022793E-004  0.5291820E+03  0.7818608E-02  0.1006431E+00
         -2   -1    0    0    0  501 -0.00000000000E+00  0.00000000000E+00  0.10808878356E+03  0.10808878356E+03  0.00000000000E+00 0. -1.
          2   -1    0    0  502    0  0.00000000000E+00 -0.00000000000E+00 -0.25919772742E+04  0.25919772742E+04  0.00000000000E+00 0.  1.
    9000007    2    1    2  502    0 -0.24151172893E+03 -0.24828521479E+03 -0.12711715494E+04  0.13769425402E+04  0.40015020680E+03 0.  0.
    9000005    1    3    3    0    0 -0.29979455483E+03 -0.31271035590E+03 -0.94787682493E+03  0.10421784958E+04  0.99999687468E+00 0.  0.
          4    1    3    3  502    0  0.58282825895E+02  0.64425141111E+02 -0.32329472446E+03  0.33476404447E+03  0.00000000000E+00 0.  1.
   -9000007    1    1    2    0  501  0.24151172893E+03  0.24828521479E+03 -0.12127169413E+04  0.13231235176E+04  0.40000000000E+03 0.  1.
<mgrwt>
<rscale>  2 0.52918196E+03</rscale>
<asrwt>0</asrwt>
<pdfrwt beam="1">  1        2 0.39876574E+00 0.52918196E+03</pdfrwt>
<pdfrwt beam="2">  1       -2 0.16629043E-01 0.52918196E+03</pdfrwt>
<totfact> 0.97178828E+01</totfact>
</mgrwt>
</event>
<event>
 6    1  0.9022793E-004  0.5389285E+03  0.7818608E-02  0.1004090E+00
         -1   -1    0    0    0  501 -0.00000000000E+00  0.00000000000E+00  0.12209630517E+04  0.12209630517E+04  0.00000000000E+00 0. -1.
          1   -1    0    0  502    0  0.00000000000E+00 -0.00000000000E+00 -0.48415601567E+03  0.48415601567E+03  0.00000000000E+00 0.  1.
    9000007    2    1    2  502    0 -0.35494262888E+03 -0.67377680401E+02 -0.23967546029E+03  0.58975272072E+03  0.39979985458E+03 0.  0.
    9000005    1    3    3    0    0 -0.22617270775E+03 -0.96709886757E+02  0.67764093394E+02  0.25514675831E+03  0.99999687468E+00 0.  0.
          4    1    3    3  502    0 -0.12876992113E+03  0.29332206356E+02 -0.30743955368E+03  0.33460596241E+03  0.00000000000E+00 0.  1.
   -9000007    1    1    2    0  501  0.35494262888E+03  0.67377680401E+02  0.97648249630E+03  0.11153663466E+04  0.40000000000E+03 0. -1.
<mgrwt>
<rscale>  2 0.53892854E+03</rscale>
<asrwt>0</asrwt>
<pdfrwt beam="1">  1        1 0.74485541E-01 0.53892854E+03</pdfrwt>
<pdfrwt beam="2">  1       -1 0.18784047E+00 0.53892854E+03</pdfrwt>
<totfact> 0.90330859E+00</totfact>
</mgrwt>
</event>
<event>
 6    1  0.9022793E-004  0.5708764E+03  0.7818608E-02  0.9967741E-01
         -1   -1    0    0    0  501 -0.00000000000E+00  0.00000000000E+00  0.22393732966E+03  0.22393732966E+03  0.00000000000E+00 0. -1.
          1   -1    0    0  502    0  0.00000000000E+00 -0.00000000000E+00 -0.14574820033E+04  0.14574820033E+04  0.00000000000E+00 0.  1.
    9000007    2    1    2  502    0  0.39983657237E+03 -0.74580591626E+02 -0.64961048992E+03  0.86507952615E+03  0.40116985019E+03 0.  0.
    9000005    1    3    3    0    0 -0.76892609176E+02 -0.51461266768E+02 -0.83706834184E+02  0.12477407345E+03  0.99999687468E+00 0.  0.
          4    1    3    3  502    0  0.47672918155E+03 -0.23119324858E+02 -0.56590365573E+03  0.74030545269E+03  0.00000000000E+00 0.  1.
   -9000007    1    1    2    0  501 -0.39983657237E+03  0.74580591626E+02 -0.58393418367E+03  0.81633980677E+03  0.40000000000E+03 0. -1.
<mgrwt>
<rscale>  2 0.57087638E+03</rscale>
<asrwt>0</asrwt>
<pdfrwt beam="1">  1        1 0.22422799E+00 0.57087638E+03</pdfrwt>
<pdfrwt beam="2">  1       -1 0.34451898E-01 0.57087638E+03</pdfrwt>
<totfact> 0.58625910E+01</totfact>
</mgrwt>
</event>
<event>
 6    1  0.9022793E-004  0.5422661E+03  0.7818608E-02  0.1003300E+00
          1   -1    0    0  502    0  0.00000000000E+00  0.00000000000E+00  0.68433958900E+03  0.68433958900E+03  0.00000000000E+00 0. -1.
         -1   -1    0    0    0  501 -0.00000000000E+00 -0.00000000000E+00 -0.50575787040E+03  0.50575787040E+03  0.00000000000E+00 0.  1.
    9000007    2    1    2  502    0  0.36569428630E+03  0.15933598120E+02  0.32007367496E+03  0.62973493005E+03  0.40016588329E+03 0.  0.
    9000005    1    3    3    0    0  0.28714161464E+03 -0.16195372757E+03  0.12026251273E+03  0.35091792301E+03  0.99999687468E+00 0.  0.
          4    1    3    3  502    0  0.78552671663E+02  0.17788732569E+03  0.19981116223E+03  0.27881700704E+03  0.00000000000E+00 0.  1.
   -9000007    1    1    2    0  501 -0.36569428630E+03 -0.15933598120E+02 -0.14149195636E+03  0.56036252935E+03  0.40000000000E+03 0.  1.
<mgrwt>
<rscale>  2 0.54226612E+03</rscale>
<asrwt>0</asrwt>
<pdfrwt beam="1">  1        1 0.10528301E+00 0.54226612E+03</pdfrwt>
<pdfrwt beam="2">  1       -1 0.77808903E-01 0.54226612E+03</pdfrwt>
<totfact> 0.48770189E+01</totfact>
</mgrwt>
</event>
<event>
 6    1  0.9022793E-004  0.4130415E+03  0.7818608E-02  0.1039355E+00
          2   -1    0    0  502    0  0.00000000000E+00  0.00000000000E+00  0.42181038441E+04  0.42181038441E+04  0.00000000000E+00 0.  1.
         -2   -1    0    0    0  501 -0.00000000000E+00 -0.00000000000E+00 -0.44208232498E+02  0.44208232498E+02  0.00000000000E+00 0. -1.
    9000007    2    1    2  502    0  0.49361926001E+02 -0.88974714855E+02  0.14666003721E+04  0.15237356921E+04  0.40062539668E+03 0.  0.
    9000005    1    3    3    0    0  0.27820085396E+02 -0.34483071085E+01 -0.20044735852E+02  0.34476650105E+02  0.99999687468E+00 0.  0.
          4    1    3    3  502    0  0.21541840605E+02 -0.85526407747E+02  0.14866451079E+04  0.14892590420E+04  0.00000000000E+00 0.  1.
   -9000007    1    1    2    0  501 -0.49361926001E+02  0.88974714855E+02  0.27072952395E+04  0.27385763845E+04  0.40000000000E+03 0.  1.
<mgrwt>
<rscale>  2 0.41304149E+03</rscale>
<asrwt>0</asrwt>
<pdfrwt beam="1">  1        2 0.64893873E+00 0.41304149E+03</pdfrwt>
<pdfrwt beam="2">  1       -2 0.68012699E-02 0.41304149E+03</pdfrwt>
<totfact> 0.34510592E+01</totfact>
</mgrwt>
</event>
<event>
 6    1  0.9022793E-004  0.4006988E+03  0.7818608E-02  0.1043538E+00
          2   -1    0    0  502    0  0.00000000000E+00  0.00000000000E+00  0.18763757140E+03  0.18763757140E+03  0.00000000000E+00 0.  1.
         -2   -1    0    0    0  501 -0.00000000000E+00 -0.00000000000E+00 -0.89803717942E+03  0.89803717942E+03  0.00000000000E+00 0. -1.
    9000007    2    1    2  502    0 -0.37023447964E+02 -0.21647361924E+01 -0.23647111731E+03  0.46439893760E+03  0.39796025196E+03 0.  0.
    9000005    1    3    3    0    0 -0.90117611057E+02  0.56860769128E+02 -0.32703783167E+03  0.34396086147E+03  0.99999687468E+00 0.  0.
          4    1    3    3  502    0  0.53094163093E+02 -0.59025505320E+02  0.90566714359E+02  0.12043807613E+03  0.00000000000E+00 0.  1.
   -9000007    1    1    2    0  501  0.37023447964E+02  0.21647361924E+01 -0.47392849071E+03  0.62127581322E+03  0.40000000000E+03 0. -1.
<mgrwt>
<rscale>  2 0.40069882E+03</rscale>
<asrwt>0</asrwt>
<pdfrwt beam="1">  1        2 0.28867318E-01 0.40069882E+03</pdfrwt>
<pdfrwt beam="2">  1       -2 0.13815957E+00 0.40069882E+03</pdfrwt>
<totfact> 0.71279647E+01</totfact>
</mgrwt>
</event>
<event>
 6    1  0.9022793E-004  0.4526060E+03  0.7818608E-02  0.1026948E+00
          3   -1    0    0  502    0  0.00000000000E+00  0.00000000000E+00  0.13140087774E+04  0.13140087774E+04  0.00000000000E+00 0. -1.
         -3   -1    0    0    0  501 -0.00000000000E+00 -0.00000000000E+00 -0.19409292043E+03  0.19409292043E+03  0.00000000000E+00 0.  1.
    9000007    2    1    2  502    0  0.11406919906E+03 -0.17858252047E+03  0.22540249314E+03  0.50557605884E+03  0.39987169012E+03 0.  0.
    9000005    1    3    3    0    0 -0.59533946350E+02  0.94046449641E+02  0.12445128082E+03  0.16696750207E+03  0.99999687468E+00 0.  0.
          4    1    3    3  502    0  0.17360314541E+03 -0.27262897011E+03  0.10095121233E+03  0.33860855676E+03  0.00000000000E+00 0.  1.
   -9000007    1    1    2    0  501 -0.11406919906E+03  0.17858252047E+03  0.89451336381E+03  0.10025256390E+04  0.40000000000E+03 0. -1.
<mgrwt>
<rscale>  2 0.45260598E+03</rscale>
<asrwt>0</asrwt>
<pdfrwt beam="1">  1        3 0.20215519E+00 0.45260598E+03</pdfrwt>
<pdfrwt beam="2">  1       -3 0.29860450E-01 0.45260598E+03</pdfrwt>
<totfact> 0.41453734E+00</totfact>
</mgrwt>
</event>
<event>
 6    1  0.9022793E-004  0.5551405E+03  0.7818608E-02  0.1000311E+00
          1   -1    0    0  502    0  0.00000000000E+00  0.00000000000E+00  0.87828866297E+03  0.87828866297E+03  0.00000000000E+00 0. -1.
         -1   -1    0    0    0  501 -0.00000000000E+00 -0.00000000000E+00 -0.37667686850E+03  0.37667686850E+03  0.00000000000E+00 0.  1.
    9000007    2    1    2  502    0 -0.33852093554E+03 -0.18320532792E+03  0.86628725009E+02  0.56187710716E+03  0.40005091123E+03 0.  0.
    9000005    1    3    3    0    0 -0.33944348656E+02 -0.19055914765E+03 -0.85885193019E+02  0.21175994412E+03  0.99999687468E+00 0.  0.
          4    1    3    3  502    0 -0.30457658689E+03  0.73538197301E+01  0.17251391803E+03  0.35011716304E+03  0.00000000000E+00 0.  1.
   -9000007    1    1    2    0  501  0.33852093554E+03  0.18320532792E+03  0.41498306945E+03  0.69308842431E+03  0.40000000000E+03 0.  1.
<mgrwt>
<rscale>  2 0.55514051E+03</rscale>
<asrwt>0</asrwt>
<pdfrwt beam="1">  1        1 0.13512133E+00 0.55514051E+03</pdfrwt>
<pdfrwt beam="2">  1       -1 0.57950288E-01 0.55514051E+03</pdfrwt>
<totfact> 0.59701104E+01</totfact>
</mgrwt>
</event>
<event>
 6    1  0.9022793E-004  0.8826174E+03  0.7818608E-02  0.9447575E-01
         -2   -1    0    0    0  501 -0.00000000000E+00  0.00000000000E+00  0.24768797184E+03  0.24768797184E+03  0.00000000000E+00 0. -1.
          2   -1    0    0  502    0  0.00000000000E+00 -0.00000000000E+00 -0.44059142802E+04  0.44059142802E+04  0.00000000000E+00 0.  1.
    9000007    2    1    2  502    0 -0.57968873780E+03  0.53186947741E+03 -0.33238842706E+04  0.34390855541E+04  0.40022322506E+03 0.  0.
    9000005    1    3    3    0    0  0.61333760567E+02  0.35920995563E+02 -0.31847544554E+03  0.32631236187E+03  0.99999687468E+00 0.  0.
          4    1    3    3  502    0 -0.64102249837E+03  0.49594848185E+03 -0.30054088251E+04  0.31127731922E+04  0.00000000000E+00 0.  1.
   -9000007    1    1    2    0  501  0.57968873780E+03 -0.53186947741E+03 -0.83434203773E+03  0.12145166980E+04  0.40000000000E+03 0. -1.
<mgrwt>
<rscale>  2 0.88261740E+03</rscale>
<asrwt>0</asrwt>
<pdfrwt beam="1">  1        2 0.67783292E+00 0.88261740E+03</pdfrwt>
<pdfrwt beam="2">  1       -2 0.38105844E-01 0.88261740E+03</pdfrwt>
<totfact> 0.10813295E+00</totfact>
</mgrwt>
</event>
<event>
 6    1  0.9022793E-004  0.4883604E+03  0.7818608E-02  0.1016862E+00
          1   -1    0    0  502    0  0.00000000000E+00  0.00000000000E+00  0.52148488780E+03  0.52148488780E+03  0.00000000000E+00 0.  1.
         -1   -1    0    0    0  501 -0.00000000000E+00 -0.00000000000E+00 -0.45739784556E+03  0.45739784556E+03  0.00000000000E+00 0. -1.
    9000007    2    1    2  502    0 -0.26380245353E+03 -0.96294301149E+02  0.37510575053E+02  0.48942319925E+03  0.39907856093E+03 0.  0.
    9000005    1    3    3    0    0 -0.29845879087E+03 -0.89704508985E+02 -0.11552621044E+03  0.33237306460E+03  0.99999687468E+00 0.  0.
          4    1    3    3  502    0  0.34656337338E+02 -0.65897921640E+01  0.15303678549E+03  0.15705013465E+03  0.00000000000E+00 0.  1.
   -9000007    1    1    2    0  501  0.26380245353E+03  0.96294301149E+02  0.26576467194E+02  0.48945953411E+03  0.40000000000E+03 0.  1.
<mgrwt>
<rscale>  2 0.48836041E+03</rscale>
<asrwt>0</asrwt>
<pdfrwt beam="1">  1        1 0.80228444E-01 0.48836041E+03</pdfrwt>
<pdfrwt beam="2">  1       -1 0.70368900E-01 0.48836041E+03</pdfrwt>
<totfact> 0.88907432E+01</totfact>
</mgrwt>
</event>
<event>
 6    1  0.9022793E-004  0.6621808E+03  0.7818608E-02  0.9784187E-01
          2   -1    0    0  502    0  0.00000000000E+00  0.00000000000E+00  0.19161140276E+04  0.19161140276E+04  0.00000000000E+00 0. -1.
         -2   -1    0    0    0  501 -0.00000000000E+00 -0.00000000000E+00 -0.29714556204E+03  0.29714556204E+03  0.00000000000E+00 0.  1.
    9000007    2    1    2  502    0 -0.41611549582E+03 -0.32473353235E+03  0.27882471667E+03  0.71840533568E+03  0.39969867502E+03 0.  0.
    9000005    1    3    3    0    0 -0.17834432451E+03 -0.20729970259E+03  0.34968146348E+03  0.44391214296E+03  0.99999687468E+00 0.  0.
          4    1    3    3  502    0 -0.23777117131E+03 -0.11743382976E+03 -0.70856746807E+02  0.27449319271E+03  0.00000000000E+00 0.  1.
   -9000007    1    1    2    0  501  0.41611549582E+03  0.32473353235E+03  0.13401437489E+04  0.14948542539E+04  0.40000000000E+03 0.  1.
<mgrwt>
<rscale>  2 0.66218085E+03</rscale>
<asrwt>0</asrwt>
<pdfrwt beam="1">  1        2 0.29478677E+00 0.66218085E+03</pdfrwt>
<pdfrwt beam="2">  1       -2 0.45714703E-01 0.66218085E+03</pdfrwt>
<totfact> 0.35182261E+01</totfact>
</mgrwt>
</event>
<event>
 6    1  0.9022793E-004  0.4711768E+03  0.7818608E-02  0.1021589E+00
         -1   -1    0    0    0  501 -0.00000000000E+00  0.00000000000E+00  0.14756142469E+03  0.14756142469E+03  0.00000000000E+00 0.  1.
          1   -1    0    0  502    0  0.00000000000E+00 -0.00000000000E+00 -0.15636043887E+04  0.15636043887E+04  0.00000000000E+00 0. -1.
    9000007    2    1    2  502    0  0.12280155002E+03  0.21662701806E+03 -0.87435285451E+03  0.99322733388E+03  0.40000017116E+03 0.  0.
    9000005    1    3    3    0    0  0.10990815533E+03  0.15674148039E+03 -0.90479260606E+03  0.92482341788E+03  0.99999687468E+00 0.  0.
          4    1    3    3  502    0  0.12893394687E+02  0.59885537670E+02  0.30439751555E+02  0.68403915994E+02  0.00000000000E+00 0.  1.
   -9000007    1    1    2    0  501 -0.12280155002E+03 -0.21662701806E+03 -0.54169010951E+03  0.71793847953E+03  0.40000000000E+03 0.  1.
<mgrwt>
<rscale>  2 0.47117678E+03</rscale>
<asrwt>0</asrwt>
<pdfrwt beam="1">  1        1 0.24055452E+00 0.47117678E+03</pdfrwt>
<pdfrwt beam="2">  1       -1 0.22701758E-01 0.47117678E+03</pdfrwt>
<totfact> 0.10316669E+02</totfact>
</mgrwt>
</event>
<event>
 6    1  0.9022793E-004  0.4885973E+03  0.7818608E-02  0.1016799E+00
         -2   -1    0    0    0  501 -0.00000000000E+00  0.00000000000E+00  0.46599392913E+03  0.46599392913E+03  0.00000000000E+00 0.  1.
          2   -1    0    0  502    0  0.00000000000E+00 -0.00000000000E+00 -0.51701634409E+03  0.51701634409E+03  0.00000000000E+00 0. -1.
    9000007    2    1    2  502    0  0.27764690227E+03  0.41688764322E+02 -0.72464691498E+02  0.49384207451E+03  0.39975380877E+03 0.  0.
    9000005    1    3    3    0    0  0.65014333069E+02  0.20178564704E+03 -0.82496538707E+02  0.22748843871E+03  0.99999687468E+00 0.  0.
          4    1    3    3  502    0  0.21263256921E+03 -0.16009688272E+03  0.10031847209E+02  0.26635363579E+03  0.00000000000E+00 0.  1.
   -9000007    1    1    2    0  501 -0.27764690227E+03 -0.41688764322E+02  0.21442276542E+02  0.48916819872E+03  0.40000000000E+03 0.  1.
<mgrwt>
<rscale>  2 0.48859727E+03</rscale>
<asrwt>0</asrwt>
<pdfrwt beam="1">  1        2 0.79540976E-01 0.48859727E+03</pdfrwt>
<pdfrwt beam="2">  1       -2 0.71691374E-01 0.48859727E+03</pdfrwt>
<totfact> 0.10740002E+02</totfact>
</mgrwt>
</event>
<event>
 6    1  0.9022793E-004  0.5033801E+03  0.7818608E-02  0.1012900E+00
         -2   -1    0    0    0  501 -0.00000000000E+00  0.00000000000E+00  0.29054739969E+03  0.29054739969E+03  0.00000000000E+00 0.  1.
          2   -1    0    0  502    0  0.00000000000E+00 -0.00000000000E+00 -0.91860031897E+03  0.91860031897E+03  0.00000000000E+00 0. -1.
    9000007    2    1    2  502    0 -0.13934194471E+03 -0.27270617486E+03 -0.17779846978E+03  0.53348959160E+03  0.39901630684E+03 0.  0.
    9000005    1    3    3    0    0 -0.12670240430E+01 -0.13799292540E+03  0.11717564490E+03  0.18103807489E+03  0.99999687468E+00 0.  0.
          4    1    3    3  502    0 -0.13807492067E+03 -0.13471324946E+03 -0.29497411468E+03  0.35245151671E+03  0.00000000000E+00 0.  1.
   -9000007    1    1    2    0  501  0.13934194471E+03  0.27270617486E+03 -0.45025444950E+03  0.67565812706E+03  0.40000000000E+03 0. -1.
<mgrwt>
<rscale>  2 0.50338011E+03</rscale>
<asrwt>0</asrwt>
<pdfrwt beam="1">  1        2 0.14132313E+00 0.50338011E+03</pdfrwt>
<pdfrwt beam="2">  1       -2 0.44699600E-01 0.50338011E+03</pdfrwt>
<totfact> 0.13941829E+02</totfact>
</mgrwt>
</event>
<event>
 6    1  0.9022793E-004  0.5934117E+03  0.7818608E-02  0.9919170E-01
         -1   -1    0    0    0  501 -0.00000000000E+00  0.00000000000E+00  0.90230000074E+02  0.90230000074E+02  0.00000000000E+00 0.  1.
          1   -1    0    0  502    0  0.00000000000E+00 -0.00000000000E+00 -0.41482729069E+04  0.41482729069E+04  0.00000000000E+00 0. -1.
    9000007    2    1    2  502    0  0.25115285046E+03  0.35961589361E+03 -0.15126387653E+04  0.16247922135E+04  0.39933990245E+03 0.  0.
    9000005    1    3    3    0    0  0.24741440832E+03  0.37439126787E+03 -0.15341456355E+04  0.15984325265E+04  0.99999687468E+00 0.  0.
          4    1    3    3  502    0  0.37384421396E+01 -0.14775374267E+02  0.21506870204E+02  0.26359687030E+02  0.00000000000E+00 0.  1.
   -9000007    1    1    2    0  501 -0.25115285046E+03 -0.35961589361E+03 -0.25454041415E+04  0.26137106934E+04  0.40000000000E+03 0. -1.
<mgrwt>
<rscale>  2 0.59341168E+03</rscale>
<asrwt>0</asrwt>
<pdfrwt beam="1">  1        1 0.63819585E+00 0.59341168E+03</pdfrwt>
<pdfrwt beam="2">  1       -1 0.13881538E-01 0.59341168E+03</pdfrwt>
<totfact> 0.30154315E+00</totfact>
</mgrwt>
</event>
<event>
 6    1  0.9022793E-004  0.4106243E+03  0.7818608E-02  0.1040162E+00
          1   -1    0    0  502    0  0.00000000000E+00  0.00000000000E+00  0.45382841497E+03  0.45382841497E+03  0.00000000000E+00 0. -1.
         -1   -1    0    0    0  501 -0.00000000000E+00 -0.00000000000E+00 -0.41974167735E+03  0.41974167735E+03  0.00000000000E+00 0.  1.
    9000007    2    1    2  502    0 -0.70442028923E+02  0.19881805906E+02 -0.13077538834E+03  0.43477983922E+03  0.40813470907E+03 0.  0.
    9000005    1    3    3    0    0  0.48384211194E+02  0.19571328222E+03 -0.50054166466E+02  0.20772852549E+03  0.99999687468E+00 0.  0.
          4    1    3    3  502    0 -0.11882624012E+03 -0.17583147631E+03 -0.80721221873E+02  0.22705131372E+03  0.00000000000E+00 0.  1.
   -9000007    1    1    2    0  501  0.70442028923E+02 -0.19881805906E+02  0.16486212596E+03  0.43879025311E+03  0.40000000000E+03 0. -1.
<mgrwt>
<rscale>  2 0.41062428E+03</rscale>
<asrwt>0</asrwt>
<pdfrwt beam="1">  1        1 0.69819756E-01 0.41062428E+03</pdfrwt>
<pdfrwt beam="2">  1       -1 0.64575642E-01 0.41062428E+03</pdfrwt>
<totfact> 0.12847224E+02</totfact>
</mgrwt>
</event>
<event>
 6    1  0.9022793E-004  0.4722316E+03  0.7818608E-02  0.1021292E+00
         -1   -1    0    0    0  501 -0.00000000000E+00  0.00000000000E+00  0.31585594611E+03  0.31585594611E+03  0.00000000000E+00 0. -1.
          1   -1    0    0  502    0  0.00000000000E+00 -0.00000000000E+00 -0.70604664952E+03  0.70604664952E+03  0.00000000000E+00 0.  1.
    9000007    2    1    2  502    0 -0.23934899348E+03 -0.74318959745E+02 -0.19245405739E+03  0.51013015632E+03  0.40047841855E+03 0.  0.
    9000005    1    3    3    0    0  0.23145780354E+02 -0.18208496746E+03 -0.39418895986E+02  0.18773788077E+03  0.99999687468E+00 0.  0.
          4    1    3    3  502    0 -0.26249477383E+03  0.10776600771E+03 -0.15303516141E+03  0.32239227555E+03  0.00000000000E+00 0.  1.
   -9000007    1    1    2    0  501  0.23934899348E+03  0.74318959745E+02 -0.19773664602E+03  0.51177243931E+03  0.40000000000E+03 0. -1.
<mgrwt>
<rscale>  2 0.47223156E+03</rscale>
<asrwt>0</asrwt>
<pdfrwt beam="1">  1        1 0.10862256E+00 0.47223156E+03</pdfrwt>
<pdfrwt beam="2">  1       -1 0.48593223E-01 0.47223156E+03</pdfrwt>
<totfact> 0.11871244E+02</totfact>
</mgrwt>
</event>
<event>
 6    1  0.9022793E-004  0.4181512E+03  0.7818608E-02  0.1037670E+00
         -2   -1    0    0    0  501 -0.00000000000E+00  0.00000000000E+00  0.19956605133E+03  0.19956605133E+03  0.00000000000E+00 0. -1.
          2   -1    0    0  502    0  0.00000000000E+00 -0.00000000000E+00 -0.10986541746E+04  0.10986541746E+04  0.00000000000E+00 0.  1.
    9000007    2    1    2  502    0 -0.43822556959E+02 -0.11187042017E+03 -0.15785597392E+03  0.44742030431E+03  0.40103742070E+03 0.  0.
    9000005    1    3    3    0    0 -0.31593949476E+02 -0.25619136979E+03 -0.41106302151E+02  0.26138654072E+03  0.99999687468E+00 0.  0.
          4    1    3    3  502    0 -0.12228607484E+02  0.14432094962E+03 -0.11674967177E+03  0.18603376360E+03  0.00000000000E+00 0.  1.
   -9000007    1    1    2    0  501  0.43822556959E+02  0.11187042017E+03 -0.74123214933E+03  0.85079992161E+03  0.40000000000E+03 0.  1.
<mgrwt>
<rscale>  2 0.41815119E+03</rscale>
<asrwt>0</asrwt>
<pdfrwt beam="1">  1        2 0.16902372E+00 0.41815119E+03</pdfrwt>
<pdfrwt beam="2">  1       -2 0.30702469E-01 0.41815119E+03</pdfrwt>
<totfact> 0.22221982E+02</totfact>
</mgrwt>
</event>
<event>
 6    1  0.9022793E-004  0.5713651E+03  0.7818608E-02  0.9966662E-01
         -2   -1    0    0    0  501 -0.00000000000E+00  0.00000000000E+00  0.25595282432E+03  0.25595282432E+03  0.00000000000E+00 0.  1.
          2   -1    0    0  502    0  0.00000000000E+00 -0.00000000000E+00 -0.13448818175E+04  0.13448818175E+04  0.00000000000E+00 0. -1.
    9000007    2    1    2  502    0  0.29005363168E+02  0.40687564937E+03 -0.72637015636E+03  0.92419735693E+03  0.40017251949E+03 0.  0.
    9000005    1    3    3    0    0 -0.60104971905E+02  0.38398743526E+03 -0.30821563433E+03  0.49604116293E+03  0.99999687468E+00 0.  0.
          4    1    3    3  502    0  0.89110335073E+02  0.22888214116E+02 -0.41815452203E+03  0.42815619400E+03  0.00000000000E+00 0.  1.
   -9000007    1    1    2    0  501 -0.29005363168E+02 -0.40687564937E+03 -0.36255883681E+03  0.67663728488E+03  0.40000000000E+03 0.  1.
<mgrwt>
<rscale>  2 0.57136514E+03</rscale>
<asrwt>0</asrwt>
<pdfrwt beam="1">  1        2 0.20690489E+00 0.57136514E+03</pdfrwt>
<pdfrwt beam="2">  1       -2 0.39377358E-01 0.57136514E+03</pdfrwt>
<totfact> 0.98237659E+01</totfact>
</mgrwt>
</event>
<event>
 6    1  0.9022793E-004  0.4130080E+03  0.7818608E-02  0.1039366E+00
         -2   -1    0    0    0  501 -0.00000000000E+00  0.00000000000E+00  0.15692537049E+03  0.15692537049E+03  0.00000000000E+00 0. -1.
          2   -1    0    0  502    0  0.00000000000E+00 -0.00000000000E+00 -0.11653606409E+04  0.11653606409E+04  0.00000000000E+00 0.  1.
    9000007    2    1    2  502    0 -0.82363133607E+02 -0.99735721675E+01 -0.33805978452E+03  0.53724687222E+03  0.40922686359E+03 0.  0.
    9000005    1    3    3    0    0 -0.12102085061E+03  0.14304105026E+03 -0.32967616728E+03  0.37920200897E+03  0.99999687468E+00 0.  0.
          4    1    3    3  502    0  0.38657717005E+02 -0.15301462243E+03 -0.83836172400E+01  0.15804486325E+03  0.00000000000E+00 0.  1.
   -9000007    1    1    2    0  501  0.82363133607E+02  0.99735721675E+01 -0.67037548585E+03  0.78503913912E+03  0.40000000000E+03 0.  1.
<mgrwt>
<rscale>  2 0.41300802E+03</rscale>
<asrwt>0</asrwt>
<pdfrwt beam="1">  1        2 0.17928625E+00 0.41300802E+03</pdfrwt>
<pdfrwt beam="2">  1       -2 0.24142365E-01 0.41300802E+03</pdfrwt>
<totfact> 0.31363410E+02</totfact>
</mgrwt>
</event>
<event>
 6    1  0.9022793E-004  0.4680935E+03  0.7818608E-02  0.1022460E+00
          1   -1    0    0  502    0  0.00000000000E+00  0.00000000000E+00  0.59688182685E+03  0.59688182685E+03  0.00000000000E+00 0.  1.
         -1   -1    0    0    0  501 -0.00000000000E+00 -0.00000000000E+00 -0.40253440600E+03  0.40253440600E+03  0.00000000000E+00 0. -1.
    9000007    2    1    2  502    0  0.11141656230E+03  0.21747288330E+03  0.24532620282E+03  0.52792186222E+03  0.39850776842E+03 0.  0.
    9000005    1    3    3    0    0 -0.18288949526E+02  0.77208945157E+02  0.31479347992E+03  0.32464078900E+03  0.99999687468E+00 0.  0.
          4    1    3    3  502    0  0.12970551183E+03  0.14026393814E+03 -0.69467277101E+02  0.20328107322E+03  0.00000000000E+00 0.  1.
   -9000007    1    1    2    0  501 -0.11141656230E+03 -0.21747288330E+03 -0.50978781969E+02  0.47149437063E+03  0.40000000000E+03 0. -1.
<mgrwt>
<rscale>  2 0.46809349E+03</rscale>
<asrwt>0</asrwt>
<pdfrwt beam="1">  1        1 0.91827973E-01 0.46809349E+03</pdfrwt>
<pdfrwt beam="2">  1       -1 0.61928370E-01 0.46809349E+03</pdfrwt>
<totfact> 0.95313842E+01</totfact>
</mgrwt>
</event>
<event>
 6    1  0.9022793E-004  0.4597846E+03  0.7818608E-02  0.1024844E+00
         -2   -1    0    0    0  501 -0.00000000000E+00  0.00000000000E+00  0.21715020142E+03  0.21715020142E+03  0.00000000000E+00 0. -1.
          2   -1    0    0  502    0  0.00000000000E+00 -0.00000000000E+00 -0.10858689886E+04  0.10858689886E+04  0.00000000000E+00 0.  1.
    9000007    2    1    2  502    0  0.19091874108E+03  0.12313869435E+03 -0.22460877625E+03  0.51150746560E+03  0.39947175276E+03 0.  0.
    9000005    1    3    3    0    0 -0.11010761852E+03  0.12782787614E+02  0.14157080452E+02  0.11175200328E+03  0.99999687468E+00 0.  0.
          4    1    3    3  502    0  0.30102635960E+03  0.11035590674E+03 -0.23876585671E+03  0.39975546232E+03  0.00000000000E+00 0.  1.
   -9000007    1    1    2    0  501 -0.19091874108E+03 -0.12313869435E+03 -0.64411001097E+03  0.79151172447E+03  0.40000000000E+03 0.  1.
<mgrwt>
<rscale>  2 0.45978456E+03</rscale>
<asrwt>0</asrwt>
<pdfrwt beam="1">  1        2 0.16705677E+00 0.45978456E+03</pdfrwt>
<pdfrwt beam="2">  1       -2 0.33407723E-01 0.45978456E+03</pdfrwt>
<totfact> 0.19250052E+02</totfact>
</mgrwt>
</event>
<event>
 6    1  0.9022793E-004  0.8010753E+03  0.7818608E-02  0.9558462E-01
          1   -1    0    0  502    0  0.00000000000E+00  0.00000000000E+00  0.14656779705E+04  0.14656779705E+04  0.00000000000E+00 0. -1.
         -1   -1    0    0    0  501 -0.00000000000E+00 -0.00000000000E+00 -0.61774032507E+03  0.61774032507E+03  0.00000000000E+00 0.  1.
    9000007    2    1    2  502    0  0.56471620902E+03 -0.40345146821E+03  0.98615007194E+03  0.12705344423E+04  0.40011038582E+03 0.  0.
    9000005    1    3    3    0    0  0.18413296557E+03  0.48173590187E+02  0.13021145780E+03  0.23061150781E+03  0.99999687468E+00 0.  0.
          4    1    3    3  502    0  0.38058324346E+03 -0.45162505840E+03  0.85593861414E+03  0.10399229345E+04  0.00000000000E+00 0.  1.
   -9000007    1    1    2    0  501 -0.56471620902E+03  0.40345146821E+03 -0.13821242655E+03  0.81288385320E+03  0.40000000000E+03 0.  1.
<mgrwt>
<rscale>  2 0.80107530E+03</rscale>
<asrwt>0</asrwt>
<pdfrwt beam="1">  1        1 0.22548892E+00 0.80107530E+03</pdfrwt>
<pdfrwt beam="2">  1       -1 0.95036974E-01 0.80107530E+03</pdfrwt>
<totfact> 0.76259395E+00</totfact>
</mgrwt>
</event>
<event>
 6    1  0.9022793E-004  0.6323667E+03  0.7818608E-02  0.9840441E-01
         -2   -1    0    0    0  501 -0.00000000000E+00  0.00000000000E+00  0.30521479472E+03  0.30521479472E+03  0.00000000000E+00 0. -1.
          2   -1    0    0  502    0  0.00000000000E+00 -0.00000000000E+00 -0.14505030042E+04  0.14505030042E+04  0.00000000000E+00 0.  1.
    9000007    2    1    2  502    0 -0.48057455635E+03 -0.95206910614E+02 -0.84559879526E+03  0.10558392344E+04  0.39967850375E+03 0.  0.
    9000005    1    3    3    0    0 -0.30871187408E+03 -0.25249851891E+03 -0.55320248496E+03  0.68197691501E+03  0.99999687468E+00 0.  0.
          4    1    3    3  502    0 -0.17186268227E+03  0.15729160829E+03 -0.29239631030E+03  0.37386231941E+03  0.00000000000E+00 0.  1.
   -9000007    1    1    2    0  501  0.48057455635E+03  0.95206910614E+02 -0.29968941421E+03  0.69987856449E+03  0.40000000000E+03 0. -1.
<mgrwt>
<rscale>  2 0.63236674E+03</rscale>
<asrwt>0</asrwt>
<pdfrwt beam="1">  1        2 0.22315430E+00 0.63236674E+03</pdfrwt>
<pdfrwt beam="2">  1       -2 0.46956124E-01 0.63236674E+03</pdfrwt>
<totfact> 0.60159683E+01</totfact>
</mgrwt>
</event>
<event>
 6    1  0.9022793E-004  0.5873911E+03  0.7818608E-02  0.9931916E-01
         -2   -1    0    0    0  501 -0.00000000000E+00  0.00000000000E+00  0.32922316568E+03  0.32922316568E+03  0.00000000000E+00 0. -1.
          2   -1    0    0  502    0  0.00000000000E+00 -0.00000000000E+00 -0.10675296959E+04  0.10675296959E+04  0.00000000000E+00 0.  1.
    9000007    2    1    2  502    0  0.22258006407E+03 -0.36839159933E+03 -0.27459314190E+03  0.64823141107E+03  0.39943499264E+03 0.  0.
    9000005    1    3    3    0    0  0.30119729088E+03 -0.29364983188E+03 -0.84043940230E+02  0.42896901482E+03  0.99999687468E+00 0.  0.
          4    1    3    3  502    0 -0.78617226814E+02 -0.74741767456E+02 -0.19054920167E+03  0.21926239625E+03  0.00000000000E+00 0.  1.
   -9000007    1    1    2    0  501 -0.22258006407E+03  0.36839159933E+03 -0.46371338836E+03  0.74852145054E+03  0.40000000000E+03 0.  1.
<mgrwt>
<rscale>  2 0.58739113E+03</rscale>
<asrwt>0</asrwt>
<pdfrwt beam="1">  1        2 0.16423534E+00 0.58739113E+03</pdfrwt>
<pdfrwt beam="2">  1       -2 0.50649718E-01 0.58739113E+03</pdfrwt>
<totfact> 0.86591248E+01</totfact>
</mgrwt>
</event>
<event>
 6    1  0.9022793E-004  0.4170133E+03  0.7818608E-02  0.1038043E+00
          1   -1    0    0  502    0  0.00000000000E+00  0.00000000000E+00  0.22910464122E+04  0.22910464122E+04  0.00000000000E+00 0. -1.
         -1   -1    0    0    0  501 -0.00000000000E+00 -0.00000000000E+00 -0.87546218715E+02  0.87546218715E+02  0.00000000000E+00 0.  1.
    9000007    2    1    2  502    0  0.11528462199E+03 -0.25862877870E+02  0.15352828149E+04  0.15908909758E+04  0.39985165056E+03 0.  0.
    9000005    1    3    3    0    0  0.19549338921E+02 -0.20620356223E+03  0.90334080711E+03  0.92678352355E+03  0.99999687468E+00 0.  0.
          4    1    3    3  502    0  0.95735283072E+02  0.18034068436E+03  0.63194200783E+03  0.66410745224E+03  0.00000000000E+00 0.  1.
   -9000007    1    1    2    0  501 -0.11528462199E+03  0.25862877870E+02  0.66821737859E+03  0.78770165518E+03  0.40000000000E+03 0.  1.
<mgrwt>
<rscale>  2 0.41701330E+03</rscale>
<asrwt>0</asrwt>
<pdfrwt beam="1">  1        1 0.35246863E+00 0.41701330E+03</pdfrwt>
<pdfrwt beam="2">  1       -1 0.13468651E-01 0.41701330E+03</pdfrwt>
<totfact> 0.80546820E+01</totfact>
</mgrwt>
</event>
<event>
 6    1  0.9022793E-004  0.4183009E+03  0.7818608E-02  0.1037621E+00
          2   -1    0    0  502    0  0.00000000000E+00  0.00000000000E+00  0.35276491774E+03  0.35276491774E+03  0.00000000000E+00 0. -1.
         -2   -1    0    0    0  501 -0.00000000000E+00 -0.00000000000E+00 -0.49778442595E+03  0.49778442595E+03  0.00000000000E+00 0.  1.
    9000007    2    1    2  502    0  0.48489471698E+02 -0.11131137361E+03 -0.47184149797E+02  0.42123220204E+03  0.40058553804E+03 0.  0.
    9000005    1    3    3    0    0  0.12415502190E+02 -0.24749617238E+03  0.46378658097E+02  0.25211203851E+03  0.99999687468E+00 0.  0.
          4    1    3    3  502    0  0.36073969507E+02  0.13618479877E+03 -0.93562807894E+02  0.16912016353E+03  0.00000000000E+00 0.  1.
   -9000007    1    1    2    0  501 -0.48489471698E+02  0.11131137361E+03 -0.97835358416E+02  0.42931714165E+03  0.40000000000E+03 0. -1.
<mgrwt>
<rscale>  2 0.41830094E+03</rscale>
<asrwt>0</asrwt>
<pdfrwt beam="1">  1        2 0.54271526E-01 0.41830094E+03</pdfrwt>
<pdfrwt beam="2">  1       -2 0.76582220E-01 0.41830094E+03</pdfrwt>
<totfact> 0.14337636E+02</totfact>
</mgrwt>
</event>
<event>
 6    1  0.9022793E-004  0.7119010E+03  0.7818608E-02  0.9697094E-01
          2   -1    0    0  502    0  0.00000000000E+00  0.00000000000E+00  0.37146766874E+03  0.37146766874E+03  0.00000000000E+00 0. -1.
         -2   -1    0    0    0  501 -0.00000000000E+00 -0.00000000000E+00 -0.14352683795E+04  0.14352683795E+04  0.00000000000E+00 0.  1.
    9000007    2    1    2  502    0 -0.58147467406E+03 -0.95693004513E+02 -0.33082783781E+03  0.78471883696E+03  0.39883160248E+03 0.  0.
    9000005    1    3    3    0    0  0.30491194897E+02 -0.35159438099E+02  0.44399206210E+02  0.64328753753E+02  0.99999687468E+00 0.  0.
          4    1    3    3  502    0 -0.61196586895E+03 -0.60533566414E+02 -0.37522704402E+03  0.72039008321E+03  0.00000000000E+00 0.  1.
   -9000007    1    1    2    0  501  0.58147467406E+03  0.95693004513E+02 -0.73297287298E+03  0.10220172113E+04  0.40000000000E+03 0. -1.
<mgrwt>
<rscale>  2 0.71190102E+03</rscale>
<asrwt>0</asrwt>
<pdfrwt beam="1">  1        2 0.57148871E-01 0.71190102E+03</pdfrwt>
<pdfrwt beam="2">  1       -2 0.22081052E+00 0.71190102E+03</pdfrwt>
<totfact> 0.86638471E+00</totfact>
</mgrwt>
</event>
<event>
 6    1  0.9022793E-004  0.4152722E+03  0.7818608E-02  0.1038616E+00
         -2   -1    0    0    0  501 -0.00000000000E+00  0.00000000000E+00  0.52269957940E+03  0.52269957940E+03  0.00000000000E+00 0.  1.
          2   -1    0    0  502    0  0.00000000000E+00 -0.00000000000E+00 -0.34329732935E+03  0.34329732935E+03  0.00000000000E+00 0. -1.
    9000007    2    1    2  502    0  0.55356053209E+02  0.98557718063E+02  0.17508096082E+03  0.45030881660E+03  0.39918262869E+03 0.  0.
    9000005    1    3    3    0    0 -0.60635604725E+02  0.22450234310E+03  0.15132413967E+03  0.27744904732E+03  0.99999687468E+00 0.  0.
          4    1    3    3  502    0  0.11599165793E+03 -0.12594462504E+03  0.23756821150E+02  0.17285976928E+03  0.00000000000E+00 0.  1.
   -9000007    1    1    2    0  501 -0.55356053209E+02 -0.98557718063E+02  0.43212892338E+01  0.41568809215E+03  0.40000000000E+03 0. -1.
<mgrwt>
<rscale>  2 0.41527219E+03</rscale>
<asrwt>0</asrwt>
<pdfrwt beam="1">  1        2 0.52814973E-01 0.41527219E+03</pdfrwt>
<pdfrwt beam="2">  1       -2 0.80415320E-01 0.41527219E+03</pdfrwt>
<totfact> 0.13258072E+02</totfact>
</mgrwt>
</event>
<event>
 6    1  0.9022793E-004  0.4597999E+03  0.7818608E-02  0.1024839E+00
          1   -1    0    0  502    0  0.00000000000E+00  0.00000000000E+00  0.49063169578E+03  0.49063169578E+03  0.00000000000E+00 0. -1.
         -1   -1    0    0    0  501 -0.00000000000E+00 -0.00000000000E+00 -0.50414908795E+03  0.50414908795E+03  0.00000000000E+00 0.  1.
    9000007    2    1    2  502    0  0.16469299311E+03  0.15667016183E+03 -0.19633924436E+03  0.49971194890E+03  0.39936651262E+03 0.  0.
    9000005    1    3    3    0    0  0.26175772218E+03  0.10307251378E+03 -0.83338560778E+01  0.28144537901E+03  0.99999687468E+00 0.  0.
          4    1    3    3  502    0 -0.97064729065E+02  0.53597648052E+02 -0.18800538828E+03  0.21826656988E+03  0.00000000000E+00 0.  1.
   -9000007    1    1    2    0  501 -0.16469299311E+03 -0.15667016183E+03  0.18282185219E+03  0.49506883484E+03  0.40000000000E+03 0. -1.
<mgrwt>
<rscale>  2 0.45979993E+03</rscale>
<asrwt>0</asrwt>
<pdfrwt beam="1">  1        1 0.75481799E-01 0.45979993E+03</pdfrwt>
<pdfrwt beam="2">  1       -1 0.77561399E-01 0.45979993E+03</pdfrwt>
<totfact> 0.79324252E+01</totfact>
</mgrwt>
</event>
<event>
 6    1  0.9022793E-004  0.4343067E+03  0.7818608E-02  0.1032508E+00
         -2   -1    0    0    0  501 -0.00000000000E+00  0.00000000000E+00  0.69864277035E+02  0.69864277035E+02  0.00000000000E+00 0. -1.
          2   -1    0    0  502    0  0.00000000000E+00 -0.00000000000E+00 -0.31681794325E+04  0.31681794325E+04  0.00000000000E+00 0.  1.
    9000007    2    1    2  502    0  0.60858875969E+01  0.16792374102E+03 -0.21729951550E+04  0.22160591088E+04  0.40096709255E+03 0.  0.
    9000005    1    3    3    0    0 -0.26293319940E+01 -0.10004314527E+03 -0.18745434164E+03  0.21249864587E+03  0.99999687468E+00 0.  0.
          4    1    3    3  502    0  0.87152195909E+01  0.26796688628E+03 -0.19855408134E+04  0.20035604630E+04  0.00000000000E+00 0.  1.
   -9000007    1    1    2    0  501 -0.60858875969E+01 -0.16792374102E+03 -0.92532000040E+03  0.10219846007E+04  0.40000000000E+03 0. -1.
<mgrwt>
<rscale>  2 0.43430672E+03</rscale>
<asrwt>0</asrwt>
<pdfrwt beam="1">  1        2 0.48741222E+00 0.43430672E+03</pdfrwt>
<pdfrwt beam="2">  1       -2 0.10748350E-01 0.43430672E+03</pdfrwt>
<totfact> 0.93129346E+01</totfact>
</mgrwt>
</event>
<event>
 6    1  0.9022793E-004  0.4972472E+03  0.7818608E-02  0.1014500E+00
          1   -1    0    0  502    0  0.00000000000E+00  0.00000000000E+00  0.85653721471E+03  0.85653721471E+03  0.00000000000E+00 0.  1.
         -1   -1    0    0    0  501 -0.00000000000E+00 -0.00000000000E+00 -0.29433931049E+03  0.29433931049E+03  0.00000000000E+00 0. -1.
    9000007    2    1    2  502    0 -0.55942535114E+02 -0.29025490718E+03  0.20115403548E+03  0.53627897108E+03  0.39969327046E+03 0.  0.
    9000005    1    3    3    0    0 -0.30574599728E+01 -0.24283173508E+03 -0.72589263305E+02  0.25346952631E+03  0.99999687468E+00 0.  0.
          4    1    3    3  502    0 -0.52885075141E+02 -0.47423172100E+02  0.27374329878E+03  0.28280944477E+03  0.00000000000E+00 0.  1.
   -9000007    1    1    2    0  501  0.55942535114E+02  0.29025490718E+03  0.36104386874E+03  0.61459755412E+03  0.40000000000E+03 0. -1.
<mgrwt>
<rscale>  2 0.49724723E+03</rscale>
<asrwt>0</asrwt>
<pdfrwt beam="1">  1        1 0.13177496E+00 0.49724723E+03</pdfrwt>
<pdfrwt beam="2">  1       -1 0.45282971E-01 0.49724723E+03</pdfrwt>
<totfact> 0.99874328E+01</totfact>
</mgrwt>
</event>
<event>
 6    1  0.9022793E-004  0.5027921E+03  0.7818608E-02  0.1013053E+00
         -2   -1    0    0    0  501 -0.00000000000E+00  0.00000000000E+00  0.11706419561E+03  0.11706419561E+03  0.00000000000E+00 0.  1.
          2   -1    0    0  502    0  0.00000000000E+00 -0.00000000000E+00 -0.24859142140E+04  0.24859142140E+04  0.00000000000E+00 0. -1.
    9000007    2    1    2  502    0 -0.27431185562E+03  0.13309812791E+03 -0.71248490435E+03  0.87193609448E+03  0.39959442957E+03 0.  0.
    9000005    1    3    3    0    0 -0.25171644074E+03  0.14307373113E+03 -0.76279096272E+03  0.81589356651E+03  0.99999687468E+00 0.  0.
          4    1    3    3  502    0 -0.22595414878E+02 -0.99756032199E+01  0.50306058363E+02  0.56042527969E+02  0.00000000000E+00 0.  1.
   -9000007    1    1    2    0  501  0.27431185562E+03 -0.13309812791E+03 -0.16563651141E+04  0.17310423152E+04  0.40000000000E+03 0.  1.
<mgrwt>
<rscale>  2 0.50279211E+03</rscale>
<asrwt>0</asrwt>
<pdfrwt beam="1">  1        2 0.38244829E+00 0.50279211E+03</pdfrwt>
<pdfrwt beam="2">  1       -2 0.18009878E-01 0.50279211E+03</pdfrwt>
<totfact> 0.97753672E+01</totfact>
</mgrwt>
</event>
<event>
 6    1  0.9022793E-004  0.4107075E+03  0.7818608E-02  0.1040134E+00
          1   -1    0    0  502    0  0.00000000000E+00  0.00000000000E+00  0.11772672655E+04  0.11772672655E+04  0.00000000000E+00 0.  1.
         -1   -1    0    0    0  501 -0.00000000000E+00 -0.00000000000E+00 -0.20883873313E+03  0.20883873313E+03  0.00000000000E+00 0. -1.
    9000007    2    1    2  502    0  0.77813180340E+02  0.54096496144E+02  0.87222132141E+03  0.96392458103E+03  0.39924834684E+03 0.  0.
    9000005    1    3    3    0    0 -0.77953818534E+02 -0.14050072131E+03  0.36282301796E+03  0.39681077716E+03  0.99999687468E+00 0.  0.
          4    1    3    3  502    0  0.15576699887E+03  0.19459721746E+03  0.50939830345E+03  0.56711380386E+03  0.00000000000E+00 0.  1.
   -9000007    1    1    2    0  501 -0.77813180340E+02 -0.54096496144E+02  0.96207210950E+02  0.42218141760E+03  0.40000000000E+03 0. -1.
<mgrwt>
<rscale>  2 0.41070753E+03</rscale>
<asrwt>0</asrwt>
<pdfrwt beam="1">  1        1 0.18111804E+00 0.41070753E+03</pdfrwt>
<pdfrwt beam="2">  1       -1 0.32129037E-01 0.41070753E+03</pdfrwt>
<totfact> 0.10633373E+02</totfact>
</mgrwt>
</event>
<event>
 6    1  0.9022793E-004  0.5434082E+03  0.7818608E-02  0.1003031E+00
         -2   -1    0    0    0  501 -0.00000000000E+00  0.00000000000E+00  0.17003436178E+03  0.17003436178E+03  0.00000000000E+00 0.  1.
          2   -1    0    0  502    0  0.00000000000E+00 -0.00000000000E+00 -0.18263546347E+04  0.18263546347E+04  0.00000000000E+00 0. -1.
    9000007    2    1    2  502    0 -0.13536151226E+03 -0.34192161285E+03 -0.60703278111E+03  0.81476411151E+03  0.40014826217E+03 0.  0.
    9000005    1    3    3    0    0  0.76053994624E+02 -0.30692689224E+03 -0.44594517533E+03  0.54667762591E+03  0.99999687468E+00 0.  0.
          4    1    3    3  502    0 -0.21141550689E+03 -0.34994720611E+02 -0.16108760579E+03  0.26808648560E+03  0.00000000000E+00 0.  1.
   -9000007    1    1    2    0  501  0.13536151226E+03  0.34192161285E+03 -0.10492874918E+04  0.11816248849E+04  0.40000000000E+03 0. -1.
<mgrwt>
<rscale>  2 0.54340817E+03</rscale>
<asrwt>0</asrwt>
<pdfrwt beam="1">  1        2 0.28097763E+00 0.54340817E+03</pdfrwt>
<pdfrwt beam="2">  1       -2 0.26159133E-01 0.54340817E+03</pdfrwt>
<totfact> 0.11528820E+02</totfact>
</mgrwt>
</event>
<event>
 6    1  0.9022793E-004  0.4807281E+03  0.7818608E-02  0.1018935E+00
          2   -1    0    0  502    0  0.00000000000E+00  0.00000000000E+00  0.12878709746E+04  0.12878709746E+04  0.00000000000E+00 0. -1.
         -2   -1    0    0    0  501 -0.00000000000E+00 -0.00000000000E+00 -0.22561918594E+03  0.22561918594E+03  0.00000000000E+00 0.  1.
    9000007    2    1    2  502    0  0.25873908719E+03 -0.62265857841E+02  0.18902918678E+03  0.51682539004E+03  0.40069127523E+03 0.  0.
    9000005    1    3    3    0    0  0.33440457569E+03 -0.28200010433E+02  0.24606141587E+03  0.41613565241E+03  0.99999687468E+00 0.  0.
          4    1    3    3  502    0 -0.75665488503E+02 -0.34065847408E+02 -0.57032229091E+02  0.10068973764E+03  0.00000000000E+00 0.  1.
   -9000007    1    1    2    0  501 -0.25873908719E+03  0.62265857841E+02  0.87322260186E+03  0.99666477047E+03  0.40000000000E+03 0. -1.
<mgrwt>
<rscale>  2 0.48072813E+03</rscale>
<asrwt>0</asrwt>
<pdfrwt beam="1">  1        2 0.19813399E+00 0.48072813E+03</pdfrwt>
<pdfrwt beam="2">  1       -2 0.34710645E-01 0.48072813E+03</pdfrwt>
<totfact> 0.13612575E+02</totfact>
</mgrwt>
</event>
<event>
 6    1  0.9022793E-004  0.4431344E+03  0.7818608E-02  0.1029789E+00
         -2   -1    0    0    0  501 -0.00000000000E+00  0.00000000000E+00  0.41763511148E+03  0.41763511148E+03  0.00000000000E+00 0.  1.
          2   -1    0    0  502    0  0.00000000000E+00 -0.00000000000E+00 -0.51747017703E+03  0.51747017703E+03  0.00000000000E+00 0. -1.
    9000007    2    1    2  502    0 -0.18477226960E+03 -0.48641624111E+02 -0.19122823885E+03  0.48249120197E+03  0.39965325151E+03 0.  0.
    9000005    1    3    3    0    0 -0.25519615930E+03 -0.71780549139E+02 -0.26716506864E+03  0.37637175884E+03  0.99999687468E+00 0.  0.
          4    1    3    3  502    0  0.70423889699E+02  0.23138925029E+02  0.75936829796E+02  0.10611944314E+03  0.00000000000E+00 0.  1.
   -9000007    1    1    2    0  501  0.18477226960E+03  0.48641624111E+02  0.91393173296E+02  0.45261408654E+03  0.40000000000E+03 0.  1.
<mgrwt>
<rscale>  2 0.44313442E+03</rscale>
<asrwt>0</asrwt>
<pdfrwt beam="1">  1        2 0.79610796E-01 0.44313442E+03</pdfrwt>
<pdfrwt beam="2">  1       -2 0.64251556E-01 0.44313442E+03</pdfrwt>
<totfact> 0.13631828E+02</totfact>
</mgrwt>
</event>
<event>
 6    1  0.9022793E-004  0.4793319E+03  0.7818608E-02  0.1019319E+00
          1   -1    0    0  502    0  0.00000000000E+00  0.00000000000E+00  0.13035461322E+04  0.13035461322E+04  0.00000000000E+00 0.  1.
         -1   -1    0    0    0  501 -0.00000000000E+00 -0.00000000000E+00 -0.20031810495E+03  0.20031810495E+03  0.00000000000E+00 0. -1.
    9000007    2    1    2  502    0  0.18162242342E+03 -0.19174368086E+03  0.29101994847E+03  0.56076598826E+03  0.40001692382E+03 0.  0.
    9000005    1    3    3    0    0  0.58617465887E+02 -0.64205965194E+02 -0.99375618478E+02  0.13204138296E+03  0.99999687468E+00 0.  0.
          4    1    3    3  502    0  0.12300495754E+03 -0.12753771567E+03  0.39039556695E+03  0.42872460530E+03  0.00000000000E+00 0.  1.
   -9000007    1    1    2    0  501 -0.18162242342E+03  0.19174368086E+03  0.81220807880E+03  0.94309824891E+03  0.40000000000E+03 0. -1.
<mgrwt>
<rscale>  2 0.47933194E+03</rscale>
<asrwt>0</asrwt>
<pdfrwt beam="1">  1        1 0.20054555E+00 0.47933194E+03</pdfrwt>
<pdfrwt beam="2">  1       -1 0.30818171E-01 0.47933194E+03</pdfrwt>
<totfact> 0.92167538E+01</totfact>
</mgrwt>
</event>
<event>
 6    1  0.9022793E-004  0.4429327E+03  0.7818608E-02  0.1029851E+00
          1   -1    0    0  502    0  0.00000000000E+00  0.00000000000E+00  0.88480228905E+03  0.88480228905E+03  0.00000000000E+00 0. -1.
         -1   -1    0    0    0  501 -0.00000000000E+00 -0.00000000000E+00 -0.22650742154E+03  0.22650742154E+03  0.00000000000E+00 0.  1.
    9000007    2    1    2  502    0  0.18901936915E+03  0.28233048250E+02  0.40954718927E+03  0.60297828882E+03  0.39915972945E+03 0.  0.
    9000005    1    3    3    0    0  0.82780980518E+02 -0.31721245799E+01  0.46967760280E+03  0.47692851003E+03  0.99999687468E+00 0.  0.
          4    1    3    3  502    0  0.10623838864E+03  0.31405172829E+02 -0.60130413536E+02  0.12604977879E+03  0.00000000000E+00 0.  1.
   -9000007    1    1    2    0  501 -0.18901936915E+03 -0.28233048250E+02  0.24874767825E+03  0.50833142177E+03  0.40000000000E+03 0. -1.
<mgrwt>
<rscale>  2 0.44293271E+03</rscale>
<asrwt>0</asrwt>
<pdfrwt beam="1">  1        1 0.13612343E+00 0.44293271E+03</pdfrwt>
<pdfrwt beam="2">  1       -1 0.34847296E-01 0.44293271E+03</pdfrwt>
<totfact> 0.15276599E+02</totfact>
</mgrwt>
</event>
<event>
 6    1  0.9022793E-004  0.4297248E+03  0.7818608E-02  0.1033947E+00
         -1   -1    0    0    0  501 -0.00000000000E+00  0.00000000000E+00  0.16396003002E+03  0.16396003002E+03  0.00000000000E+00 0.  1.
          1   -1    0    0  502    0  0.00000000000E+00 -0.00000000000E+00 -0.11287229887E+04  0.11287229887E+04  0.00000000000E+00 0. -1.
    9000007    2    1    2  502    0  0.10723877325E+03  0.11356369783E+03 -0.45260759191E+03  0.62432683550E+03  0.40066631667E+03 0.  0.
    9000005    1    3    3    0    0  0.18939823370E+02 -0.10451002889E+03 -0.35335890366E+03  0.36897774708E+03  0.99999687468E+00 0.  0.
          4    1    3    3  502    0  0.88298949878E+02  0.21807372672E+03 -0.99248688248E+02  0.25534908842E+03  0.00000000000E+00 0.  1.
   -9000007    1    1    2    0  501 -0.10723877325E+03 -0.11356369783E+03 -0.51215536681E+03  0.66835618327E+03  0.40000000000E+03 0. -1.
<mgrwt>
<rscale>  2 0.42972482E+03</rscale>
<asrwt>0</asrwt>
<pdfrwt beam="1">  1        1 0.17364970E+00 0.42972482E+03</pdfrwt>
<pdfrwt beam="2">  1       -1 0.25224619E-01 0.42972482E+03</pdfrwt>
<totfact> 0.17398514E+02</totfact>
</mgrwt>
</event>
<event>
 6    1  0.9022793E-004  0.4238192E+03  0.7818608E-02  0.1035830E+00
         -2   -1    0    0    0  501 -0.00000000000E+00  0.00000000000E+00  0.26572671817E+03  0.26572671817E+03  0.00000000000E+00 0.  1.
          2   -1    0    0  502    0  0.00000000000E+00 -0.00000000000E+00 -0.76475495792E+03  0.76475495792E+03  0.00000000000E+00 0. -1.
    9000007    2    1    2  502    0 -0.27781338135E+02 -0.13481127795E+03 -0.74373611847E+02  0.43108411486E+03  0.40169166849E+03 0.  0.
    9000005    1    3    3    0    0 -0.10662335332E+03 -0.12759317458E+03 -0.21373780654E+03  0.27080141730E+03  0.99999687468E+00 0.  0.
          4    1    3    3  502    0  0.78842015183E+02 -0.72181033738E+01  0.13936419470E+03  0.16028269756E+03  0.00000000000E+00 0.  1.
   -9000007    1    1    2    0  501  0.27781338135E+02  0.13481127795E+03 -0.42465462790E+03  0.59939756123E+03  0.40000000000E+03 0. -1.
<mgrwt>
<rscale>  2 0.42381919E+03</rscale>
<asrwt>0</asrwt>
<pdfrwt beam="1">  1        2 0.11765461E+00 0.42381919E+03</pdfrwt>
<pdfrwt beam="2">  1       -2 0.40881034E-01 0.42381919E+03</pdfrwt>
<totfact> 0.21344540E+02</totfact>
</mgrwt>
</event>
<event>
 6    1  0.9022793E-004  0.4836420E+03  0.7818608E-02  0.1018139E+00
         -2   -1    0    0    0  501 -0.00000000000E+00  0.00000000000E+00  0.16660564074E+03  0.16660564074E+03  0.00000000000E+00 0.  1.
          2   -1    0    0  502    0  0.00000000000E+00 -0.00000000000E+00 -0.21034928579E+04  0.21034928579E+04  0.00000000000E+00 0. -1.
    9000007    2    1    2  502    0  0.24247670092E+03 -0.12331605582E+03 -0.31376370547E+03  0.57642446438E+03  0.39976955881E+03 0.  0.
    9000005    1    3    3    0    0  0.71615161692E+02 -0.25109970771E+02 -0.36499344221E+03  0.37280082465E+03  0.99999687468E+00 0.  0.
          4    1    3    3  502    0  0.17086153923E+03 -0.98206085054E+02  0.51229736738E+02  0.20362363973E+03  0.00000000000E+00 0.  1.
   -9000007    1    1    2    0  501 -0.24247670092E+03  0.12331605582E+03 -0.16231235117E+04  0.16936740343E+04  0.40000000000E+03 0. -1.
<mgrwt>
<rscale>  2 0.48364205E+03</rscale>
<asrwt>0</asrwt>
<pdfrwt beam="1">  1        2 0.32361427E+00 0.48364205E+03</pdfrwt>
<pdfrwt beam="2">  1       -2 0.25631638E-01 0.48364205E+03</pdfrwt>
<totfact> 0.85581994E+01</totfact>
</mgrwt>
</event>
<event>
 6    1  0.9022793E-004  0.4162572E+03  0.7818608E-02  0.1038291E+00
         -2   -1    0    0    0  501 -0.00000000000E+00  0.00000000000E+00  0.30484580890E+03  0.30484580890E+03  0.00000000000E+00 0. -1.
          2   -1    0    0  502    0  0.00000000000E+00 -0.00000000000E+00 -0.59949877759E+03  0.59949877759E+03  0.00000000000E+00 0.  1.
    9000007    2    1    2  502    0  0.88925839024E+02 -0.27566110439E+02 -0.46376287512E+02  0.42443938157E+03  0.41149767107E+03 0.  0.
    9000005    1    3    3    0    0 -0.78029905213E+02  0.15439052609E+03  0.97512751112E+00  0.17299436847E+03  0.99999687468E+00 0.  0.
          4    1    3    3  502    0  0.16695574424E+03 -0.18195663653E+03 -0.47351415023E+02  0.25144501310E+03  0.00000000000E+00 0.  1.
   -9000007    1    1    2    0  501 -0.88925839024E+02  0.27566110439E+02 -0.24827668118E+03  0.47990520492E+03  0.40000000000E+03 0.  1.
<mgrwt>
<rscale>  2 0.41625722E+03</rscale>
<asrwt>0</asrwt>
<pdfrwt beam="1">  1        2 0.92230580E-01 0.41625722E+03</pdfrwt>
<pdfrwt beam="2">  1       -2 0.46899356E-01 0.41625722E+03</pdfrwt>
<totfact> 0.21984832E+02</totfact>
</mgrwt>
</event>
<event>
 6    1  0.9022793E-004  0.4548741E+03  0.7818608E-02  0.1026278E+00
          1   -1    0    0  502    0  0.00000000000E+00  0.00000000000E+00  0.18939909809E+03  0.18939909809E+03  0.00000000000E+00 0. -1.
         -1   -1    0    0    0  501 -0.00000000000E+00 -0.00000000000E+00 -0.12393880031E+04  0.12393880031E+04  0.00000000000E+00 0.  1.
    9000007    2    1    2  502    0  0.19439068316E+02 -0.21556680094E+03 -0.77103989854E+03  0.89525221833E+03  0.40015882627E+03 0.  0.
    9000005    1    3    3    0    0  0.20526873122E+03 -0.14185427856E+03 -0.49609240753E+03  0.55530763111E+03  0.99999687468E+00 0.  0.
          4    1    3    3  502    0 -0.18582966290E+03 -0.73712522379E+02 -0.27494749101E+03  0.33994458723E+03  0.00000000000E+00 0.  1.
   -9000007    1    1    2    0  501 -0.19439068316E+02  0.21556680094E+03 -0.27894900651E+03  0.53353488290E+03  0.40000000000E+03 0. -1.
<mgrwt>
<rscale>  2 0.45487411E+03</rscale>
<asrwt>0</asrwt>
<pdfrwt beam="1">  1        1 0.29138321E-01 0.45487411E+03</pdfrwt>
<pdfrwt beam="2">  1       -1 0.19067509E+00 0.45487411E+03</pdfrwt>
<totfact> 0.29563496E+01</totfact>
</mgrwt>
</event>
<event>
 6    1  0.9022793E-004  0.5598623E+03  0.7818608E-02  0.9992366E-01
          2   -1    0    0  502    0  0.00000000000E+00  0.00000000000E+00  0.15731533766E+04  0.15731533766E+04  0.00000000000E+00 0.  1.
         -2   -1    0    0    0  501 -0.00000000000E+00 -0.00000000000E+00 -0.20836179332E+03  0.20836179332E+03  0.00000000000E+00 0. -1.
    9000007    2    1    2  502    0 -0.11284638753E+03 -0.37522671391E+03  0.49600250102E+03  0.74791763534E+03  0.39979108823E+03 0.  0.
    9000005    1    3    3    0    0 -0.20428502160E+02 -0.69684049675E+02 -0.68229565662E+02  0.99646696402E+02  0.99999687468E+00 0.  0.
          4    1    3    3  502    0 -0.92417885368E+02 -0.30554266423E+03  0.56423206668E+03  0.64827093894E+03  0.00000000000E+00 0.  1.
   -9000007    1    1    2    0  501  0.11284638753E+03  0.37522671391E+03  0.86878908221E+03  0.10335975345E+04  0.40000000000E+03 0. -1.
<mgrwt>
<rscale>  2 0.55986234E+03</rscale>
<asrwt>0</asrwt>
<pdfrwt beam="1">  1        2 0.24202359E+00 0.55986234E+03</pdfrwt>
<pdfrwt beam="2">  1       -2 0.32055662E-01 0.55986234E+03</pdfrwt>
<totfact> 0.10863900E+02</totfact>
</mgrwt>
</event>
<event>
 6    1  0.9022793E-004  0.5639790E+03  0.7818608E-02  0.9983091E-01
          2   -1    0    0  502    0  0.00000000000E+00  0.00000000000E+00  0.12552042981E+04  0.12552042981E+04  0.00000000000E+00 0. -1.
         -2   -1    0    0    0  501 -0.00000000000E+00 -0.00000000000E+00 -0.25946364365E+03  0.25946364365E+03  0.00000000000E+00 0.  1.
    9000007    2    1    2  502    0  0.14320155752E+03 -0.37127593565E+03  0.61340424329E+03  0.83310089608E+03  0.39929917468E+03 0.  0.
    9000005    1    3    3    0    0  0.97587658009E+01 -0.36074807398E+03  0.59787185705E+03  0.69834530416E+03  0.99999687468E+00 0.  0.
          4    1    3    3  502    0  0.13344279172E+03 -0.10527861662E+02  0.15532386242E+02  0.13475559192E+03  0.00000000000E+00 0.  1.
   -9000007    1    1    2    0  501 -0.14320155752E+03  0.37127593565E+03  0.38233641120E+03  0.68156704571E+03  0.40000000000E+03 0.  1.
<mgrwt>
<rscale>  2 0.56397899E+03</rscale>
<asrwt>0</asrwt>
<pdfrwt beam="1">  1        2 0.19310835E+00 0.56397899E+03</pdfrwt>
<pdfrwt beam="2">  1       -2 0.39917485E-01 0.56397899E+03</pdfrwt>
<totfact> 0.10774282E+02</totfact>
</mgrwt>
</event>
<event>
 6    1  0.9022793E-004  0.5114983E+03  0.7818608E-02  0.1010821E+00
         -2   -1    0    0    0  501 -0.00000000000E+00  0.00000000000E+00  0.44863230539E+03  0.44863230539E+03  0.00000000000E+00 0. -1.
          2   -1    0    0  502    0  0.00000000000E+00 -0.00000000000E+00 -0.60305017743E+03  0.60305017743E+03  0.00000000000E+00 0.  1.
    9000007    2    1    2  502    0  0.97992041292E+02 -0.30328161313E+03 -0.17268183762E+03  0.53990543228E+03  0.40012083393E+03 0.  0.
    9000005    1    3    3    0    0  0.28478997559E+02 -0.24219111096E+03  0.91129935663E+02  0.26033296506E+03  0.99999687468E+00 0.  0.
          4    1    3    3  502    0  0.69513043733E+02 -0.61090502173E+02 -0.26381177329E+03  0.27957246722E+03  0.00000000000E+00 0.  1.
   -9000007    1    1    2    0  501 -0.97992041292E+02  0.30328161313E+03  0.18263965587E+02  0.51177705054E+03  0.40000000000E+03 0.  1.
<mgrwt>
<rscale>  2 0.51149830E+03</rscale>
<asrwt>0</asrwt>
<pdfrwt beam="1">  1        2 0.92776950E-01 0.51149830E+03</pdfrwt>
<pdfrwt beam="2">  1       -2 0.69020355E-01 0.51149830E+03</pdfrwt>
<totfact> 0.97185594E+01</totfact>
</mgrwt>
</event>
<event>
 6    1  0.9022793E-004  0.4176294E+03  0.7818608E-02  0.1037841E+00
         -2   -1    0    0    0  501 -0.00000000000E+00  0.00000000000E+00  0.56148927252E+02  0.56148927252E+02  0.00000000000E+00 0. -1.
          2   -1    0    0  502    0  0.00000000000E+00 -0.00000000000E+00 -0.34216392793E+04  0.34216392793E+04  0.00000000000E+00 0.  1.
    9000007    2    1    2  502    0  0.11012350585E+03 -0.58018405167E+02 -0.11501525160E+04  0.12231895616E+04  0.39730161305E+03 0.  0.
    9000005    1    3    3    0    0  0.20599786242E+03 -0.10202922095E+03 -0.36762341885E+03  0.43358166397E+03  0.99999687468E+00 0.  0.
          4    1    3    3  502    0 -0.95874356573E+02  0.44010815787E+02 -0.78252909717E+03  0.78960789768E+03  0.00000000000E+00 0.  1.
   -9000007    1    1    2    0  501 -0.11012350585E+03  0.58018405167E+02 -0.22153378360E+04  0.22545986449E+04  0.40000000000E+03 0.  1.
<mgrwt>
<rscale>  2 0.41762937E+03</rscale>
<asrwt>0</asrwt>
<pdfrwt beam="1">  1        2 0.52640623E+00 0.41762937E+03</pdfrwt>
<pdfrwt beam="2">  1       -2 0.86382934E-02 0.41762937E+03</pdfrwt>
<totfact> 0.91458524E+01</totfact>
</mgrwt>
</event>
<event>
 6    1  0.9022793E-004  0.4268958E+03  0.7818608E-02  0.1034845E+00
          2   -1    0    0  502    0  0.00000000000E+00  0.00000000000E+00  0.28256156843E+04  0.28256156843E+04  0.00000000000E+00 0.  1.
         -2   -1    0    0    0  501 -0.00000000000E+00 -0.00000000000E+00 -0.64546462253E+02  0.64546462253E+02  0.00000000000E+00 0. -1.
    9000007    2    1    2  502    0 -0.48705201040E+02  0.14047731639E+03  0.13405186286E+04  0.14068988315E+04  0.40033492931E+03 0.  0.
    9000005    1    3    3    0    0  0.91908160569E+02  0.14574366317E+03  0.22938881684E+03  0.28689467513E+03  0.99999687468E+00 0.  0.
          4    1    3    3  502    0 -0.14061336161E+03 -0.52663467743E+01  0.11111298117E+04  0.11200041564E+04  0.00000000000E+00 0.  1.
   -9000007    1    1    2    0  501  0.48705201040E+02 -0.14047731639E+03  0.14205505935E+04  0.14832633150E+04  0.40000000000E+03 0.  1.
<mgrwt>
<rscale>  2 0.42689583E+03</rscale>
<asrwt>0</asrwt>
<pdfrwt beam="1">  1        2 0.43471001E+00 0.42689583E+03</pdfrwt>
<pdfrwt beam="2">  1       -2 0.99302272E-02 0.42689583E+03</pdfrwt>
<totfact> 0.17041854E+02</totfact>
</mgrwt>
</event>
<event>
 6    1  0.9022793E-004  0.5751017E+03  0.7818608E-02  0.9958452E-01
         -1   -1    0    0    0  501 -0.00000000000E+00  0.00000000000E+00  0.23437811216E+03  0.23437811216E+03  0.00000000000E+00 0. -1.
          1   -1    0    0  502    0  0.00000000000E+00 -0.00000000000E+00 -0.16188047781E+04  0.16188047781E+04  0.00000000000E+00 0.  1.
    9000007    2    1    2  502    0  0.15351552537E+03 -0.38335097617E+03 -0.36054353081E+03  0.67893348667E+03  0.40054220034E+03 0.  0.
    9000005    1    3    3    0    0  0.22635943835E+03 -0.41555563715E+03 -0.36726188025E+03  0.59900531849E+03  0.99999687468E+00 0.  0.
          4    1    3    3  502    0 -0.72843912986E+02  0.32204660988E+02  0.67183494409E+01  0.79928168174E+02  0.00000000000E+00 0.  1.
   -9000007    1    1    2    0  501 -0.15351552537E+03  0.38335097617E+03 -0.10238831351E+04  0.11742494036E+04  0.40000000000E+03 0.  1.
<mgrwt>
<rscale>  2 0.57510168E+03</rscale>
<asrwt>0</asrwt>
<pdfrwt beam="1">  1        1 0.24904688E+00 0.57510168E+03</pdfrwt>
<pdfrwt beam="2">  1       -1 0.36058172E-01 0.57510168E+03</pdfrwt>
<totfact> 0.42025361E+01</totfact>
</mgrwt>
</event>
<event>
 6    1  0.9022793E-004  0.7286883E+03  0.7818608E-02  0.9669391E-01
          1   -1    0    0  502    0  0.00000000000E+00  0.00000000000E+00  0.11357738636E+04  0.11357738636E+04  0.00000000000E+00 0.  1.
         -1   -1    0    0    0  501 -0.00000000000E+00 -0.00000000000E+00 -0.62539120126E+03  0.62539120126E+03  0.00000000000E+00 0. -1.
    9000007    2    1    2  502    0  0.54515875578E+03 -0.27137214722E+03 -0.18722640722E+03  0.75245334923E+03  0.40036408919E+03 0.  0.
    9000005    1    3    3    0    0  0.56258073947E+03 -0.33823513407E+03 -0.18977063971E+03  0.68331104925E+03  0.99999687468E+00 0.  0.
          4    1    3    3  502    0 -0.17421983687E+02  0.66862986857E+02  0.25442324887E+01  0.69142299976E+02  0.00000000000E+00 0.  1.
   -9000007    1    1    2    0  501 -0.54515875578E+03  0.27137214722E+03  0.69760906955E+03  0.10087117156E+04  0.40000000000E+03 0.  1.
<mgrwt>
<rscale>  2 0.72868827E+03</rscale>
<asrwt>0</asrwt>
<pdfrwt beam="1">  1        1 0.17473444E+00 0.72868827E+03</pdfrwt>
<pdfrwt beam="2">  1       -1 0.96214031E-01 0.72868827E+03</pdfrwt>
<totfact> 0.12845372E+01</totfact>
</mgrwt>
</event>
<event>
 6    1  0.9022793E-004  0.8225041E+03  0.7818608E-02  0.9528003E-01
         -2   -1    0    0    0  501 -0.00000000000E+00  0.00000000000E+00  0.97224245437E+03  0.97224245437E+03  0.00000000000E+00 0.  1.
          2   -1    0    0  502    0  0.00000000000E+00 -0.00000000000E+00 -0.96404123443E+03  0.96404123443E+03  0.00000000000E+00 0. -1.
    9000007    2    1    2  502    0 -0.50703210241E+03  0.50917052611E+03  0.51476090525E+03  0.97039606991E+03  0.40044171286E+03 0.  0.
    9000005    1    3    3    0    0 -0.53426623696E+03  0.42865611922E+03  0.31625033102E+03  0.75445460590E+03  0.99999687468E+00 0.  0.
          4    1    3    3  502    0  0.27234134546E+02  0.80514406891E+02  0.19851057423E+03  0.21594146402E+03  0.00000000000E+00 0.  1.
   -9000007    1    1    2    0  501  0.50703210241E+03 -0.50917052611E+03 -0.50655968532E+03  0.96588761889E+03  0.40000000000E+03 0. -1.
<mgrwt>
<rscale>  2 0.82250407E+03</rscale>
<asrwt>0</asrwt>
<pdfrwt beam="1">  1        2 0.14831404E+00 0.82250407E+03</pdfrwt>
<pdfrwt beam="2">  1       -2 0.14957576E+00 0.82250407E+03</pdfrwt>
<totfact> 0.80986104E+00</totfact>
</mgrwt>
</event>
<event>
 6    1  0.9022793E-004  0.5894330E+03  0.7818608E-02  0.9927575E-01
          1   -1    0    0  502    0  0.00000000000E+00  0.00000000000E+00  0.72040797234E+03  0.72040797234E+03  0.00000000000E+00 0. -1.
         -1   -1    0    0    0  501 -0.00000000000E+00 -0.00000000000E+00 -0.57441691700E+03  0.57441691700E+03  0.00000000000E+00 0.  1.
    9000007    2    1    2  502    0 -0.35219088098E+03  0.25152351474E+03 -0.18629608191E+03  0.61827685949E+03  0.40032180771E+03 0.  0.
    9000005    1    3    3    0    0 -0.38295140299E+02  0.17286320090E+03  0.84622697449E+02  0.19624017151E+03  0.99999687468E+00 0.  0.
          4    1    3    3  502    0 -0.31389574068E+03  0.78660313843E+02 -0.27091877936E+03  0.42203668798E+03  0.00000000000E+00 0.  1.
   -9000007    1    1    2    0  501  0.35219088098E+03 -0.25152351474E+03  0.33228713725E+03  0.67654802985E+03  0.40000000000E+03 0. -1.
<mgrwt>
<rscale>  2 0.58943299E+03</rscale>
<asrwt>0</asrwt>
<pdfrwt beam="1">  1        1 0.11083200E+00 0.58943299E+03</pdfrwt>
<pdfrwt beam="2">  1       -1 0.88371833E-01 0.58943299E+03</pdfrwt>
<totfact> 0.34203478E+01</totfact>
</mgrwt>
</event>
<event>
 6    1  0.9022793E-004  0.4301307E+03  0.7818608E-02  0.1033819E+00
          2   -1    0    0  502    0  0.00000000000E+00  0.00000000000E+00  0.20477671868E+04  0.20477671868E+04  0.00000000000E+00 0. -1.
         -2   -1    0    0    0  501 -0.00000000000E+00 -0.00000000000E+00 -0.11038366490E+03  0.11038366490E+03  0.00000000000E+00 0.  1.
    9000007    2    1    2  502    0 -0.15349616056E+03 -0.31721669246E+02  0.14293691037E+04  0.14928343972E+04  0.40111241200E+03 0.  0.
    9000005    1    3    3    0    0 -0.18008089310E+03 -0.19351748063E+03  0.95588469899E+03  0.99176343002E+03  0.99999687468E+00 0.  0.
          4    1    3    3  502    0  0.26584732542E+02  0.16179581138E+03  0.47348440474E+03  0.50107096714E+03  0.00000000000E+00 0.  1.
   -9000007    1    1    2    0  501  0.15349616056E+03  0.31721669246E+02  0.50801441818E+03  0.66531645454E+03  0.40000000000E+03 0.  1.
<mgrwt>
<rscale>  2 0.43013066E+03</rscale>
<asrwt>0</asrwt>
<pdfrwt beam="1">  1        2 0.31504108E+00 0.43013066E+03</pdfrwt>
<pdfrwt beam="2">  1       -2 0.16982104E-01 0.43013066E+03</pdfrwt>
<totfact> 0.18982713E+02</totfact>
</mgrwt>
</event>
<event>
 6    1  0.9022793E-004  0.4045695E+03  0.7818608E-02  0.1042209E+00
          2   -1    0    0  502    0  0.00000000000E+00  0.00000000000E+00  0.53828676570E+03  0.53828676570E+03  0.00000000000E+00 0. -1.
         -2   -1    0    0    0  501 -0.00000000000E+00 -0.00000000000E+00 -0.30794110660E+03  0.30794110660E+03  0.00000000000E+00 0.  1.
    9000007    2    1    2  502    0 -0.15681569039E+02 -0.57577764412E+02  0.16265682804E+03  0.43617557270E+03  0.40028836599E+03 0.  0.
    9000005    1    3    3    0    0 -0.17569935316E+03 -0.45330409753E+02  0.20139247498E+03  0.27108123823E+03  0.99999687468E+00 0.  0.
          4    1    3    3  502    0  0.16001778412E+03 -0.12247354660E+02 -0.38735646938E+02  0.16509433447E+03  0.00000000000E+00 0.  1.
   -9000007    1    1    2    0  501  0.15681569039E+02  0.57577764412E+02  0.67688831056E+02  0.41005229961E+03  0.40000000000E+03 0.  1.
<mgrwt>
<rscale>  2 0.40456947E+03</rscale>
<asrwt>0</asrwt>
<pdfrwt beam="1">  1        2 0.82813348E-01 0.40456947E+03</pdfrwt>
<pdfrwt beam="2">  1       -2 0.47375555E-01 0.40456947E+03</pdfrwt>
<totfact> 0.24458422E+02</totfact>
</mgrwt>
</event>
<event>
 6    1  0.9022793E-004  0.4272579E+03  0.7818608E-02  0.1034730E+00
          1   -1    0    0  502    0  0.00000000000E+00  0.00000000000E+00  0.25446259094E+04  0.25446259094E+04  0.00000000000E+00 0. -1.
         -1   -1    0    0    0  501 -0.00000000000E+00 -0.00000000000E+00 -0.84133376008E+02  0.84133376008E+02  0.00000000000E+00 0.  1.
    9000007    2    1    2  502    0  0.38428406959E+02  0.14481006181E+03  0.17350236969E+04  0.17868853464E+04  0.40025656260E+03 0.  0.
    9000005    1    3    3    0    0 -0.78018462193E+02  0.25119524011E+03  0.12297454847E+04  0.12575614841E+04  0.99999687468E+00 0.  0.
          4    1    3    3  502    0  0.11644686915E+03 -0.10638517831E+03  0.50527821217E+03  0.52932386230E+03  0.00000000000E+00 0.  1.
   -9000007    1    1    2    0  501 -0.38428406959E+02 -0.14481006181E+03  0.72546883650E+03  0.84187393902E+03  0.40000000000E+03 0.  1.
<mgrwt>
<rscale>  2 0.42725791E+03</rscale>
<asrwt>0</asrwt>
<pdfrwt beam="1">  1        1 0.39148085E+00 0.42725791E+03</pdfrwt>
<pdfrwt beam="2">  1       -1 0.12943598E-01 0.42725791E+03</pdfrwt>
<totfact> 0.57928756E+01</totfact>
</mgrwt>
</event>
<event>
 6    1  0.9022793E-004  0.5897894E+03  0.7818608E-02  0.9926819E-01
         -2   -1    0    0    0  501 -0.00000000000E+00  0.00000000000E+00  0.19838653926E+03  0.19838653926E+03  0.00000000000E+00 0.  1.
          2   -1    0    0  502    0  0.00000000000E+00 -0.00000000000E+00 -0.19932563828E+04  0.19932563828E+04  0.00000000000E+00 0. -1.
    9000007    2    1    2  502    0  0.43190393603E+03 -0.28344658754E+02 -0.12781390194E+04  0.14078347987E+04  0.40126679140E+03 0.  0.
    9000005    1    3    3    0    0  0.28787219839E+03  0.16526857279E+03 -0.56879995220E+03  0.65857307064E+03  0.99999687468E+00 0.  0.
          4    1    3    3  502    0  0.14403173765E+03 -0.19361323154E+03 -0.70933906723E+03  0.74926172808E+03  0.00000000000E+00 0.  1.
   -9000007    1    1    2    0  501 -0.43190393603E+03  0.28344658754E+02 -0.51673082413E+03  0.78380812336E+03  0.40000000000E+03 0.  1.
<mgrwt>
<rscale>  2 0.58978944E+03</rscale>
<asrwt>0</asrwt>
<pdfrwt beam="1">  1        2 0.30665482E+00 0.58978944E+03</pdfrwt>
<pdfrwt beam="2">  1       -2 0.30521007E-01 0.58978944E+03</pdfrwt>
<totfact> 0.70187977E+01</totfact>
</mgrwt>
</event>
<event>
 6    1  0.9022793E-004  0.4111076E+03  0.7818608E-02  0.1040000E+00
         -2   -1    0    0    0  501 -0.00000000000E+00  0.00000000000E+00  0.19422457006E+03  0.19422457006E+03  0.00000000000E+00 0. -1.
          2   -1    0    0  502    0  0.00000000000E+00 -0.00000000000E+00 -0.10493366768E+04  0.10493366768E+04  0.00000000000E+00 0.  1.
    9000007    2    1    2  502    0  0.28025815827E+02 -0.88594209109E+02 -0.68487132458E+03  0.79902069288E+03  0.40093759635E+03 0.  0.
    9000005    1    3    3    0    0  0.19136561562E+03 -0.76966862453E+01 -0.18228895080E+03  0.26440555856E+03  0.99999687468E+00 0.  0.
          4    1    3    3  502    0 -0.16333979979E+03 -0.80897522864E+02 -0.50258237378E+03  0.53461513431E+03  0.00000000000E+00 0.  1.
   -9000007    1    1    2    0  501 -0.28025815827E+02  0.88594209109E+02 -0.17024078218E+03  0.44454055401E+03  0.40000000000E+03 0. -1.
<mgrwt>
<rscale>  2 0.41110758E+03</rscale>
<asrwt>0</asrwt>
<pdfrwt beam="1">  1        2 0.16143641E+00 0.41110758E+03</pdfrwt>
<pdfrwt beam="2">  1       -2 0.29880703E-01 0.41110758E+03</pdfrwt>
<totfact> 0.25039759E+02</totfact>
</mgrwt>
</event>
<event>
 6    1  0.9022793E-004  0.4755353E+03  0.7818608E-02  0.1020369E+00
         -1   -1    0    0    0  501 -0.00000000000E+00  0.00000000000E+00  0.24406623841E+03  0.24406623841E+03  0.00000000000E+00 0.  1.
          1   -1    0    0  502    0  0.00000000000E+00 -0.00000000000E+00 -0.11244523906E+04  0.11244523906E+04  0.00000000000E+00 0. -1.
    9000007    2    1    2  502    0  0.14518016540E+03 -0.21191840435E+03 -0.15323226650E+03  0.49976120372E+03  0.40036788422E+03 0.  0.
    9000005    1    3    3    0    0  0.26547361621E+03 -0.22970618507E+03 -0.13800421923E+03  0.37720993741E+03  0.99999687468E+00 0.  0.
          4    1    3    3  502    0 -0.12029345081E+03  0.17787780716E+02 -0.15228047265E+02  0.12255126631E+03  0.00000000000E+00 0.  1.
   -9000007    1    1    2    0  501 -0.14518016540E+03  0.21191840435E+03 -0.72715388567E+03  0.86875742528E+03  0.40000000000E+03 0. -1.
<mgrwt>
<rscale>  2 0.47553534E+03</rscale>
<asrwt>0</asrwt>
<pdfrwt beam="1">  1        1 0.17299267E+00 0.47553534E+03</pdfrwt>
<pdfrwt beam="2">  1       -1 0.37548652E-01 0.47553534E+03</pdfrwt>
<totfact> 0.87403051E+01</totfact>
</mgrwt>
</event>
<event>
 6    1  0.9022793E-004  0.4084131E+03  0.7818608E-02  0.1040905E+00
         -1   -1    0    0    0  501 -0.00000000000E+00  0.00000000000E+00  0.25368275568E+03  0.25368275568E+03  0.00000000000E+00 0. -1.
          1   -1    0    0  502    0  0.00000000000E+00 -0.00000000000E+00 -0.15640450503E+04  0.15640450503E+04  0.00000000000E+00 0.  1.
    9000007    2    1    2  502    0  0.80176118615E+02 -0.15625905078E+02 -0.13472210063E+04  0.14078120298E+04  0.40032223583E+03 0.  0.
    9000005    1    3    3    0    0  0.10501473048E+03  0.13452292550E+03 -0.11286265147E+04  0.11414566662E+04  0.99999687468E+00 0.  0.
          4    1    3    3  502    0 -0.24838611865E+02 -0.15014883058E+03 -0.21859449163E+03  0.26635536363E+03  0.00000000000E+00 0.  1.
   -9000007    1    1    2    0  501 -0.80176118615E+02  0.15625905078E+02  0.36858711729E+02  0.40991577615E+03  0.40000000000E+03 0. -1.
<mgrwt>
<rscale>  2 0.40841312E+03</rscale>
<asrwt>0</asrwt>
<pdfrwt beam="1">  1        1 0.24062231E+00 0.40841312E+03</pdfrwt>
<pdfrwt beam="2">  1       -1 0.39028117E-01 0.40841312E+03</pdfrwt>
<totfact> 0.40926109E+01</totfact>
</mgrwt>
</event>
<event>
 6    1  0.9022793E-004  0.4622118E+03  0.7818608E-02  0.1024142E+00
         -1   -1    0    0    0  501 -0.00000000000E+00  0.00000000000E+00  0.23560068637E+03  0.23560068637E+03  0.00000000000E+00 0. -1.
          1   -1    0    0  502    0  0.00000000000E+00 -0.00000000000E+00 -0.10480729823E+04  0.10480729823E+04  0.00000000000E+00 0.  1.
    9000007    2    1    2  502    0 -0.89951644061E+02  0.21292435683E+03 -0.64206577802E+03  0.79126483313E+03  0.40052901622E+03 0.  0.
    9000005    1    3    3    0    0 -0.18809293130E+03 -0.33752094023E+02 -0.20809127169E+03  0.28252633860E+03  0.99999687468E+00 0.  0.
          4    1    3    3  502    0  0.98141287236E+02  0.24667645085E+03 -0.43397450634E+03  0.50873849453E+03  0.00000000000E+00 0.  1.
   -9000007    1    1    2    0  501  0.89951644061E+02 -0.21292435683E+03 -0.17040651796E+03  0.49240883559E+03  0.40000000000E+03 0. -1.
<mgrwt>
<rscale>  2 0.46221177E+03</rscale>
<asrwt>0</asrwt>
<pdfrwt beam="1">  1        1 0.16124200E+00 0.46221177E+03</pdfrwt>
<pdfrwt beam="2">  1       -1 0.36246259E-01 0.46221177E+03</pdfrwt>
<totfact> 0.10618206E+02</totfact>
</mgrwt>
</event>
<event>
 6    1  0.9022793E-004  0.4024047E+03  0.7818608E-02  0.1042950E+00
          2   -1    0    0  502    0  0.00000000000E+00  0.00000000000E+00  0.16956524998E+04  0.16956524998E+04  0.00000000000E+00 0.  1.
         -2   -1    0    0    0  501 -0.00000000000E+00 -0.00000000000E+00 -0.95695759288E+02  0.95695759288E+02  0.00000000000E+00 0. -1.
    9000007    2    1    2  502    0 -0.21580672769E+02 -0.39250156310E+02  0.75896137638E+03  0.85899666087E+03  0.39980819443E+03 0.  0.
    9000005    1    3    3    0    0 -0.11506088667E+03  0.14889468700E+03  0.29834298612E+03  0.35272960298E+03  0.99999687468E+00 0.  0.
          4    1    3    3  502    0  0.93480213901E+02 -0.18814484331E+03  0.46061839027E+03  0.50626705789E+03  0.00000000000E+00 0.  1.
   -9000007    1    1    2    0  501  0.21580672769E+02  0.39250156310E+02  0.84099536409E+03  0.93235159818E+03  0.40000000000E+03 0. -1.
<mgrwt>
<rscale>  2 0.40240474E+03</rscale>
<asrwt>0</asrwt>
<pdfrwt beam="1">  1        2 0.26086959E+00 0.40240474E+03</pdfrwt>
<pdfrwt beam="2">  1       -2 0.14722426E-01 0.40240474E+03</pdfrwt>
<totfact> 0.37383242E+02</totfact>
</mgrwt>
</event>
<event>
 6    1  0.9022793E-004  0.8809013E+03  0.7818608E-02  0.9449776E-01
          2   -1    0    0  502    0  0.00000000000E+00  0.00000000000E+00  0.23040066883E+04  0.23040066883E+04  0.00000000000E+00 0. -1.
         -2   -1    0    0    0  501 -0.00000000000E+00 -0.00000000000E+00 -0.41657680590E+03  0.41657680590E+03  0.00000000000E+00 0.  1.
    9000007    2    1    2  502    0 -0.54994743746E+03  0.55990344901E+03  0.34845495006E+03  0.94734411428E+03  0.40013243116E+03 0.  0.
    9000005    1    3    3    0    0 -0.14245044473E+03 -0.17128586241E+01  0.18672629703E+03  0.23486756499E+03  0.99999687468E+00 0.  0.
          4    1    3    3  502    0 -0.40749699272E+03  0.56161630763E+03  0.16172865303E+03  0.71247654929E+03  0.00000000000E+00 0.  1.
   -9000007    1    1    2    0  501  0.54994743746E+03 -0.55990344901E+03  0.15389749324E+04  0.17732393800E+04  0.40000000000E+03 0. -1.
<mgrwt>
<rscale>  2 0.88090126E+03</rscale>
<asrwt>0</asrwt>
<pdfrwt beam="1">  1        2 0.35446256E+00 0.88090126E+03</pdfrwt>
<pdfrwt beam="2">  1       -2 0.64088741E-01 0.88090126E+03</pdfrwt>
<totfact> 0.10384478E+01</totfact>
</mgrwt>
</event>
<event>
 6    1  0.9022793E-004  0.7287652E+03  0.7818608E-02  0.9669266E-01
          1   -1    0    0  502    0  0.00000000000E+00  0.00000000000E+00  0.35020572212E+04  0.35020572212E+04  0.00000000000E+00 0. -1.
         -1   -1    0    0    0  501 -0.00000000000E+00 -0.00000000000E+00 -0.16079083264E+03  0.16079083264E+03  0.00000000000E+00 0.  1.
    9000007    2    1    2  502    0  0.13701090239E+03 -0.59032595448E+03  0.21128901902E+04  0.22359055867E+04  0.40952669851E+03 0.  0.
    9000005    1    3    3    0    0  0.13976861479E+03 -0.63738055950E+03  0.17100513194E+04  0.18303184855E+04  0.99999687468E+00 0.  0.
          4    1    3    3  502    0 -0.27577123975E+01  0.47054605025E+02  0.40283887080E+03  0.40558710120E+03  0.00000000000E+00 0.  1.
   -9000007    1    1    2    0  501 -0.13701090239E+03  0.59032595448E+03  0.12283761984E+04  0.14269424672E+04  0.40000000000E+03 0.  1.
<mgrwt>
<rscale>  2 0.72876524E+03</rscale>
<asrwt>0</asrwt>
<pdfrwt beam="1">  1        1 0.53877798E+00 0.72876524E+03</pdfrwt>
<pdfrwt beam="2">  1       -1 0.24737054E-01 0.72876524E+03</pdfrwt>
<totfact> 0.38523990E+00</totfact>
</mgrwt>
</event>
<event>
 6    1  0.9022793E-004  0.4409035E+03  0.7818608E-02  0.1030470E+00
          2   -1    0    0  502    0  0.00000000000E+00  0.00000000000E+00  0.10882559051E+04  0.10882559051E+04  0.00000000000E+00 0.  1.
         -2   -1    0    0    0  501 -0.00000000000E+00 -0.00000000000E+00 -0.25237009813E+03  0.25237009813E+03  0.00000000000E+00 0. -1.
    9000007    2    1    2  502    0  0.17641453061E+03 -0.55864810162E+02  0.78039282202E+03  0.89641610355E+03  0.40038220543E+03 0.  0.
    9000005    1    3    3    0    0  0.76646281514E+02 -0.21386963520E+03  0.26987094989E+03  0.35276933387E+03  0.99999687468E+00 0.  0.
          4    1    3    3  502    0  0.99768249100E+02  0.15800482504E+03  0.51052187213E+03  0.54364676968E+03  0.00000000000E+00 0.  1.
   -9000007    1    1    2    0  501 -0.17641453061E+03  0.55864810162E+02  0.55492984990E+02  0.44420989972E+03  0.40000000000E+03 0. -1.
<mgrwt>
<rscale>  2 0.44090346E+03</rscale>
<asrwt>0</asrwt>
<pdfrwt beam="1">  1        2 0.16742398E+00 0.44090346E+03</pdfrwt>
<pdfrwt beam="2">  1       -2 0.38826170E-01 0.44090346E+03</pdfrwt>
<totfact> 0.14453377E+02</totfact>
</mgrwt>
</event>
<event>
 6    1  0.9022793E-004  0.4135217E+03  0.7818608E-02  0.1039196E+00
          2   -1    0    0  502    0  0.00000000000E+00  0.00000000000E+00  0.77612753108E+03  0.77612753108E+03  0.00000000000E+00 0.  1.
         -2   -1    0    0    0  501 -0.00000000000E+00 -0.00000000000E+00 -0.30123014240E+03  0.30123014240E+03  0.00000000000E+00 0. -1.
    9000007    2    1    2  502    0  0.81631044296E+02  0.68433093963E+02  0.51644258316E+03  0.66133757910E+03  0.39913373208E+03 0.  0.
    9000005    1    3    3    0    0 -0.58754009185E+02  0.11708293843E+03  0.75717663510E+01  0.13122034791E+03  0.99999687468E+00 0.  0.
          4    1    3    3  502    0  0.14038505348E+03 -0.48649844462E+02  0.50887081681E+03  0.53011723119E+03  0.00000000000E+00 0.  1.
   -9000007    1    1    2    0  501 -0.81631044296E+02 -0.68433093963E+02 -0.41545194480E+02  0.41602009438E+03  0.40000000000E+03 0. -1.
<mgrwt>
<rscale>  2 0.41352174E+03</rscale>
<asrwt>0</asrwt>
<pdfrwt beam="1">  1        2 0.11940423E+00 0.41352174E+03</pdfrwt>
<pdfrwt beam="2">  1       -2 0.46343099E-01 0.41352174E+03</pdfrwt>
<totfact> 0.16389149E+02</totfact>
</mgrwt>
</event>
<event>
 6    1  0.9022793E-004  0.4523368E+03  0.7818608E-02  0.1027027E+00
          1   -1    0    0  502    0  0.00000000000E+00  0.00000000000E+00  0.22944378936E+03  0.22944378936E+03  0.00000000000E+00 0. -1.
         -1   -1    0    0    0  501 -0.00000000000E+00 -0.00000000000E+00 -0.90752058140E+03  0.90752058140E+03  0.00000000000E+00 0.  1.
    9000007    2    1    2  502    0 -0.20881557244E+03  0.25583329738E+02 -0.41424047762E+03  0.61364033074E+03  0.40087508298E+03 0.  0.
    9000005    1    3    3    0    0 -0.46556380325E+01  0.13098324138E+03  0.97136872520E+01  0.13142922126E+03  0.99999687468E+00 0.  0.
          4    1    3    3  502    0 -0.20415993441E+03 -0.10539991164E+03 -0.42395416487E+03  0.48221110948E+03  0.00000000000E+00 0.  1.
   -9000007    1    1    2    0  501  0.20881557244E+03 -0.25583329738E+02 -0.26383631443E+03  0.52332404002E+03  0.40000000000E+03 0. -1.
<mgrwt>
<rscale>  2 0.45233678E+03</rscale>
<asrwt>0</asrwt>
<pdfrwt beam="1">  1        1 0.35299045E-01 0.45233678E+03</pdfrwt>
<pdfrwt beam="2">  1       -1 0.13961855E+00 0.45233678E+03</pdfrwt>
<totfact> 0.55027391E+01</totfact>
</mgrwt>
</event>
<event>
 6    1  0.9022793E-004  0.4314521E+03  0.7818608E-02  0.1033402E+00
          1   -1    0    0  502    0  0.00000000000E+00  0.00000000000E+00  0.54079700835E+03  0.54079700835E+03  0.00000000000E+00 0. -1.
         -1   -1    0    0    0  501 -0.00000000000E+00 -0.00000000000E+00 -0.36404548375E+03  0.36404548375E+03  0.00000000000E+00 0.  1.
    9000007    2    1    2  502    0 -0.91731328221E+02  0.13336210654E+03  0.19395466216E+03  0.47299062400E+03  0.39987702033E+03 0.  0.
    9000005    1    3    3    0    0  0.13516971582E+03  0.10790208776E+03 -0.68869143627E+00  0.17296007316E+03  0.99999687468E+00 0.  0.
          4    1    3    3  502    0 -0.22690104404E+03  0.25460018780E+02  0.19464335359E+03  0.30003055085E+03  0.00000000000E+00 0.  1.
   -9000007    1    1    2    0  501  0.91731328221E+02 -0.13336210654E+03 -0.17203137550E+02  0.43185186810E+03  0.40000000000E+03 0. -1.
<mgrwt>
<rscale>  2 0.43145208E+03</rscale>
<asrwt>0</asrwt>
<pdfrwt beam="1">  1        1 0.83199540E-01 0.43145208E+03</pdfrwt>
<pdfrwt beam="2">  1       -1 0.56006998E-01 0.43145208E+03</pdfrwt>
<totfact> 0.13352064E+02</totfact>
</mgrwt>
</event>
<event>
 6    1  0.9022793E-004  0.6563677E+03  0.7818608E-02  0.9794903E-01
         -1   -1    0    0    0  501 -0.00000000000E+00  0.00000000000E+00  0.13482632329E+04  0.13482632329E+04  0.00000000000E+00 0.  1.
          1   -1    0    0  502    0  0.00000000000E+00 -0.00000000000E+00 -0.31953630121E+03  0.31953630121E+03  0.00000000000E+00 0. -1.
    9000007    2    1    2  502    0  0.40196001690E+03  0.33021004365E+03  0.51366587666E+03  0.83359427248E+03  0.40051997473E+03 0.  0.
    9000005    1    3    3    0    0  0.48407269033E+03  0.29285215954E+03  0.45447430769E+03  0.72569735649E+03  0.99999687468E+00 0.  0.
          4    1    3    3  502    0 -0.82112673432E+02  0.37357884109E+02  0.59191568965E+02  0.10789691599E+03  0.00000000000E+00 0.  1.
   -9000007    1    1    2    0  501 -0.40196001690E+03 -0.33021004365E+03  0.51506105505E+03  0.83420526164E+03  0.40000000000E+03 0. -1.
<mgrwt>
<rscale>  2 0.65636773E+03</rscale>
<asrwt>0</asrwt>
<pdfrwt beam="1">  1        1 0.49159432E-01 0.65636773E+03</pdfrwt>
<pdfrwt beam="2">  1       -1 0.20742511E+00 0.65636773E+03</pdfrwt>
<totfact> 0.11271568E+01</totfact>
</mgrwt>
</event>
<event>
 6    1  0.9022793E-004  0.4263303E+03  0.7818608E-02  0.1035026E+00
          2   -1    0    0  502    0  0.00000000000E+00  0.00000000000E+00  0.13953603301E+04  0.13953603301E+04  0.00000000000E+00 0. -1.
         -2   -1    0    0    0  501 -0.00000000000E+00 -0.00000000000E+00 -0.13394094225E+03  0.13394094225E+03  0.00000000000E+00 0.  1.
    9000007    2    1    2  502    0 -0.14426577196E+03 -0.33850395766E+02  0.75715756128E+03  0.86881777371E+03  0.39949754574E+03 0.  0.
    9000005    1    3    3    0    0 -0.24697372139E+02 -0.81582978271E+01  0.74551285187E+03  0.74596711075E+03  0.99999687468E+00 0.  0.
          4    1    3    3  502    0 -0.11956839983E+03 -0.25692097939E+02  0.11644709408E+02  0.12285066296E+03  0.00000000000E+00 0.  1.
   -9000007    1    1    2    0  501  0.14426577196E+03  0.33850395766E+02  0.50426182657E+03  0.66048349865E+03  0.40000000000E+03 0. -1.
<mgrwt>
<rscale>  2 0.42633027E+03</rscale>
<asrwt>0</asrwt>
<pdfrwt beam="1">  1        2 0.21467081E+00 0.42633027E+03</pdfrwt>
<pdfrwt beam="2">  1       -2 0.20606300E-01 0.42633027E+03</pdfrwt>
<totfact> 0.30621337E+02</totfact>
</mgrwt>
</event>
<event>
 6    1  0.9022793E-004  0.5127985E+03  0.7818608E-02  0.1010491E+00
         -2   -1    0    0    0  501 -0.00000000000E+00  0.00000000000E+00  0.35403189697E+03  0.35403189697E+03  0.00000000000E+00 0. -1.
          2   -1    0    0  502    0  0.00000000000E+00 -0.00000000000E+00 -0.74281465636E+03  0.74281465636E+03  0.00000000000E+00 0.  1.
    9000007    2    1    2  502    0  0.32031553186E+03 -0.17362215599E+02 -0.18990386710E+03  0.54688628178E+03  0.40014702295E+03 0.  0.
    9000005    1    3    3    0    0 -0.41593840195E+02 -0.12730695445E+03 -0.37388341254E+02  0.13905393288E+03  0.99999687468E+00 0.  0.
          4    1    3    3  502    0  0.36190937206E+03  0.10994473885E+03 -0.15251552585E+03  0.40783234890E+03  0.00000000000E+00 0.  1.
   -9000007    1    1    2    0  501 -0.32031553186E+03  0.17362215599E+02 -0.19887889229E+03  0.54996027155E+03  0.40000000000E+03 0.  1.
<mgrwt>
<rscale>  2 0.51279850E+03</rscale>
<asrwt>0</asrwt>
<pdfrwt beam="1">  1        2 0.11427918E+00 0.51279850E+03</pdfrwt>
<pdfrwt beam="2">  1       -2 0.54466446E-01 0.51279850E+03</pdfrwt>
<totfact> 0.12392011E+02</totfact>
</mgrwt>
</event>
<event>
 6    1  0.9022793E-004  0.4076289E+03  0.7818608E-02  0.1041170E+00
         -2   -1    0    0    0  501 -0.00000000000E+00  0.00000000000E+00  0.20723726201E+03  0.20723726201E+03  0.00000000000E+00 0.  1.
          2   -1    0    0  502    0  0.00000000000E+00 -0.00000000000E+00 -0.95472075366E+03  0.95472075366E+03  0.00000000000E+00 0. -1.
    9000007    2    1    2  502    0  0.77705455619E+02 -0.13463937823E+02 -0.14116381318E+03  0.43131243267E+03  0.39985469482E+03 0.  0.
    9000005    1    3    3    0    0  0.11942306150E+03 -0.18819759087E+03 -0.11153306816E+03  0.24924049854E+03  0.99999687468E+00 0.  0.
          4    1    3    3  502    0 -0.41717605879E+02  0.17473365304E+03 -0.29630745029E+02  0.18207193413E+03  0.00000000000E+00 0.  1.
   -9000007    1    1    2    0  501 -0.77705455619E+02  0.13463937823E+02 -0.60631967847E+03  0.73064558300E+03  0.40000000000E+03 0. -1.
<mgrwt>
<rscale>  2 0.40762887E+03</rscale>
<asrwt>0</asrwt>
<pdfrwt beam="1">  1        2 0.14688012E+00 0.40762887E+03</pdfrwt>
<pdfrwt beam="2">  1       -2 0.31882656E-01 0.40762887E+03</pdfrwt>
<totfact> 0.25460428E+02</totfact>
</mgrwt>
</event>
<event>
 6    1  0.9022793E-004  0.4998229E+03  0.7818608E-02  0.1013825E+00
          1   -1    0    0  502    0  0.00000000000E+00  0.00000000000E+00  0.61151227734E+03  0.61151227734E+03  0.00000000000E+00 0. -1.
         -1   -1    0    0    0  501 -0.00000000000E+00 -0.00000000000E+00 -0.41308797527E+03  0.41308797527E+03  0.00000000000E+00 0.  1.
    9000007    2    1    2  502    0  0.17977364665E+03  0.24124203265E+03  0.15286758448E+03  0.52201523804E+03  0.39826514789E+03 0.  0.
    9000005    1    3    3    0    0  0.11020055948E+03  0.33983181845E+03  0.17740768524E+03  0.39887882235E+03  0.99999687468E+00 0.  0.
          4    1    3    3  502    0  0.69573087169E+02 -0.98589785809E+02 -0.24540100763E+02  0.12313641569E+03  0.00000000000E+00 0.  1.
   -9000007    1    1    2    0  501 -0.17977364665E+03 -0.24124203265E+03  0.45556717584E+02  0.50258501456E+03  0.40000000000E+03 0.  1.
<mgrwt>
<rscale>  2 0.49982286E+03</rscale>
<asrwt>0</asrwt>
<pdfrwt beam="1">  1        1 0.94078812E-01 0.49982286E+03</pdfrwt>
<pdfrwt beam="2">  1       -1 0.63551996E-01 0.49982286E+03</pdfrwt>
<totfact> 0.87187158E+01</totfact>
</mgrwt>
</event>
<event>
 6    1  0.9022793E-004  0.4187722E+03  0.7818608E-02  0.1037467E+00
         -1   -1    0    0    0  501 -0.00000000000E+00  0.00000000000E+00  0.39599070913E+03  0.39599070913E+03  0.00000000000E+00 0.  1.
          1   -1    0    0  502    0  0.00000000000E+00 -0.00000000000E+00 -0.59122608244E+03  0.59122608244E+03  0.00000000000E+00 0. -1.
    9000007    2    1    2  502    0  0.12309422987E+03  0.13505950310E+02  0.14964217980E+03  0.44474547734E+03  0.40008893701E+03 0.  0.
    9000005    1    3    3    0    0 -0.11882168474E+03  0.60672916941E+02 -0.33641720801E+02  0.13759564305E+03  0.99999687468E+00 0.  0.
          4    1    3    3  502    0  0.24191591461E+03 -0.47166966632E+02  0.18328390060E+03  0.30714983429E+03  0.00000000000E+00 0.  1.
   -9000007    1    1    2    0  501 -0.12309422987E+03 -0.13505950310E+02 -0.34487755311E+03  0.54247131423E+03  0.40000000000E+03 0. -1.
<mgrwt>
<rscale>  2 0.41877222E+03</rscale>
<asrwt>0</asrwt>
<pdfrwt beam="1">  1        1 0.90957858E-01 0.41877222E+03</pdfrwt>
<pdfrwt beam="2">  1       -1 0.60921648E-01 0.41877222E+03</pdfrwt>
<totfact> 0.10034415E+02</totfact>
</mgrwt>
</event>
<event>
 6    1  0.9022793E-004  0.6057100E+03  0.7818608E-02  0.9893630E-01
         -2   -1    0    0    0  501 -0.00000000000E+00  0.00000000000E+00  0.52698156746E+03  0.52698156746E+03  0.00000000000E+00 0. -1.
          2   -1    0    0  502    0  0.00000000000E+00 -0.00000000000E+00 -0.75345759469E+03  0.75345759469E+03  0.00000000000E+00 0.  1.
    9000007    2    1    2  502    0 -0.28933206118E+03  0.34877149105E+03 -0.28994000681E+03  0.67267089109E+03  0.40381471690E+03 0.  0.
    9000005    1    3    3    0    0 -0.68599514842E+02 -0.83406859971E+02 -0.12424778817E+01  0.10800528446E+03  0.99999687468E+00 0.  0.
          4    1    3    3  502    0 -0.22073254634E+03  0.43217835102E+03 -0.28869752893E+03  0.56466560663E+03  0.00000000000E+00 0.  1.
   -9000007    1    1    2    0  501  0.28933206118E+03 -0.34877149105E+03  0.63463979570E+02  0.60776827105E+03  0.40000000000E+03 0. -1.
<mgrwt>
<rscale>  2 0.60570996E+03</rscale>
<asrwt>0</asrwt>
<pdfrwt beam="1">  1        2 0.11591655E+00 0.60570996E+03</pdfrwt>
<pdfrwt beam="2">  1       -2 0.81074087E-01 0.60570996E+03</pdfrwt>
<totfact> 0.51292730E+01</totfact>
</mgrwt>
</event>
<event>
 6    1  0.9022793E-004  0.4002003E+03  0.7818608E-02  0.1043710E+00
         -2   -1    0    0    0  501 -0.00000000000E+00  0.00000000000E+00  0.90113172184E+02  0.90113172184E+02  0.00000000000E+00 0.  1.
          2   -1    0    0  502    0  0.00000000000E+00 -0.00000000000E+00 -0.22627638206E+04  0.22627638206E+04  0.00000000000E+00 0. -1.
    9000007    2    1    2  502    0  0.11251698648E+02  0.78800240760E+01 -0.54134904685E+03  0.67319440052E+03  0.39992901227E+03 0.  0.
    9000005    1    3    3    0    0 -0.15648048920E+03 -0.74299896142E+02 -0.40930188241E+03  0.44444982732E+03  0.99999687468E+00 0.  0.
          4    1    3    3  502    0  0.16773218785E+03  0.82179920218E+02 -0.13204716444E+03  0.22874457319E+03  0.00000000000E+00 0.  1.
   -9000007    1    1    2    0  501 -0.11251698648E+02 -0.78800240760E+01 -0.16313016015E+04  0.16796825922E+04  0.40000000000E+03 0. -1.
<mgrwt>
<rscale>  2 0.40020033E+03</rscale>
<asrwt>0</asrwt>
<pdfrwt beam="1">  1        2 0.34811750E+00 0.40020033E+03</pdfrwt>
<pdfrwt beam="2">  1       -2 0.13863565E-01 0.40020033E+03</pdfrwt>
<totfact> 0.20535296E+02</totfact>
</mgrwt>
</event>
<event>
 6    1  0.9022793E-004  0.5467115E+03  0.7818608E-02  0.1002258E+00
          2   -1    0    0  502    0  0.00000000000E+00  0.00000000000E+00  0.21183086623E+04  0.21183086623E+04  0.00000000000E+00 0. -1.
         -2   -1    0    0    0  501 -0.00000000000E+00 -0.00000000000E+00 -0.17934871318E+03  0.17934871318E+03  0.00000000000E+00 0.  1.
    9000007    2    1    2  502    0 -0.37154732969E+03 -0.24117100168E+02  0.43928262759E+03  0.70151793249E+03  0.40066086655E+03 0.  0.
    9000005    1    3    3    0    0 -0.42213111296E+02  0.13876792319E+03  0.24797513390E+03  0.28728235292E+03  0.99999687468E+00 0.  0.
          4    1    3    3  502    0 -0.32933421840E+03 -0.16288502336E+03  0.19130749369E+03  0.41423557957E+03  0.00000000000E+00 0.  1.
   -9000007    1    1    2    0  501  0.37154732969E+03  0.24117100168E+02  0.14996773215E+04  0.15961394430E+04  0.40000000000E+03 0. -1.
<mgrwt>
<rscale>  2 0.54671153E+03</rscale>
<asrwt>0</asrwt>
<pdfrwt beam="1">  1        2 0.32589362E+00 0.54671153E+03</pdfrwt>
<pdfrwt beam="2">  1       -2 0.27592111E-01 0.54671153E+03</pdfrwt>
<totfact> 0.72757586E+01</totfact>
</mgrwt>
</event>
<event>
 6    1  0.9022793E-004  0.4131186E+03  0.7818608E-02  0.1039330E+00
          2   -1    0    0  502    0  0.00000000000E+00  0.00000000000E+00  0.29604011809E+04  0.29604011809E+04  0.00000000000E+00 0.  1.
         -2   -1    0    0    0  501 -0.00000000000E+00 -0.00000000000E+00 -0.67586783434E+02  0.67586783434E+02  0.00000000000E+00 0. -1.
    9000007    2    1    2  502    0 -0.96558050282E+02 -0.33286523822E+02  0.86674021503E+03  0.96028197883E+03  0.40058885254E+03 0.  0.
    9000005    1    3    3    0    0  0.39697794119E+02 -0.13682255857E+03  0.72267820863E+03  0.73658748334E+03  0.99999687468E+00 0.  0.
          4    1    3    3  502    0 -0.13625584440E+03  0.10353603475E+03  0.14406200640E+03  0.22369449549E+03  0.00000000000E+00 0.  1.
   -9000007    1    1    2    0  501  0.96558050282E+02  0.33286523822E+02  0.20260741825E+04  0.20677059855E+04  0.40000000000E+03 0.  1.
<mgrwt>
<rscale>  2 0.41311863E+03</rscale>
<asrwt>0</asrwt>
<pdfrwt beam="1">  1        2 0.45544623E+00 0.41311863E+03</pdfrwt>
<pdfrwt beam="2">  1       -2 0.10397969E-01 0.41311863E+03</pdfrwt>
<totfact> 0.13213621E+02</totfact>
</mgrwt>
</event>
<event>
 6    1  0.9022793E-004  0.4517858E+03  0.7818608E-02  0.1027191E+00
          1   -1    0    0  502    0  0.00000000000E+00  0.00000000000E+00  0.37547442475E+04  0.37547442475E+04  0.00000000000E+00 0. -1.
         -1   -1    0    0    0  501 -0.00000000000E+00 -0.00000000000E+00 -0.13743965093E+03  0.13743965093E+03  0.00000000000E+00 0.  1.
    9000007    2    1    2  502    0 -0.20908935745E+03 -0.28791548276E+02  0.29483976332E+03  0.53907789342E+03  0.39890747861E+03 0.  0.
    9000005    1    3    3    0    0 -0.22694967187E+02  0.10413004711E+03  0.29122513463E+03  0.31011482919E+03  0.99999687468E+00 0.  0.
          4    1    3    3  502    0 -0.18639439027E+03 -0.13292159539E+03  0.36146286967E+01  0.22896306424E+03  0.00000000000E+00 0.  1.
   -9000007    1    1    2    0  501  0.20908935745E+03  0.28791548276E+02  0.33224648333E+04  0.33531060050E+04  0.40000000000E+03 0. -1.
<mgrwt>
<rscale>  2 0.45178583E+03</rscale>
<asrwt>0</asrwt>
<pdfrwt beam="1">  1        1 0.57765288E+00 0.45178583E+03</pdfrwt>
<pdfrwt beam="2">  1       -1 0.21144565E-01 0.45178583E+03</pdfrwt>
<totfact> 0.34069076E+00</totfact>
</mgrwt>
</event>
<event>
 6    1  0.9022793E-004  0.4379851E+03  0.7818608E-02  0.1031367E+00
         -2   -1    0    0    0  501 -0.00000000000E+00  0.00000000000E+00  0.31278141334E+03  0.31278141334E+03  0.00000000000E+00 0. -1.
          2   -1    0    0  502    0  0.00000000000E+00 -0.00000000000E+00 -0.62611137191E+03  0.62611137191E+03  0.00000000000E+00 0.  1.
    9000007    2    1    2  502    0 -0.51443265873E+02 -0.17146952945E+03 -0.89444163104E+02  0.44678196588E+03  0.39945670302E+03 0.  0.
    9000005    1    3    3    0    0 -0.18677459893E+03 -0.13343549747E+03  0.64377936404E+02  0.23840155511E+03  0.99999687468E+00 0.  0.
          4    1    3    3  502    0  0.13533133305E+03 -0.38034031977E+02 -0.15382209951E+03  0.20838041077E+03  0.00000000000E+00 0.  1.
   -9000007    1    1    2    0  501  0.51443265873E+02  0.17146952945E+03 -0.22388579547E+03  0.49211081937E+03  0.40000000000E+03 0.  1.
<mgrwt>
<rscale>  2 0.43798506E+03</rscale>
<asrwt>0</asrwt>
<pdfrwt beam="1">  1        2 0.96324826E-01 0.43798506E+03</pdfrwt>
<pdfrwt beam="2">  1       -2 0.48120217E-01 0.43798506E+03</pdfrwt>
<totfact> 0.19799384E+02</totfact>
</mgrwt>
</event>
<event>
 6    1  0.9022793E-004  0.4138040E+03  0.7818608E-02  0.1039102E+00
          2   -1    0    0  502    0  0.00000000000E+00  0.00000000000E+00  0.77937874780E+03  0.77937874780E+03  0.00000000000E+00 0. -1.
         -2   -1    0    0    0  501 -0.00000000000E+00 -0.00000000000E+00 -0.24844471730E+03  0.24844471730E+03  0.00000000000E+00 0.  1.
    9000007    2    1    2  502    0 -0.19146570454E+02 -0.10501631866E+03  0.90568654508E+02  0.42340913476E+03  0.39959679162E+03 0.  0.
    9000005    1    3    3    0    0  0.17547460000E+03 -0.27566074060E+02  0.11637933339E+03  0.21235906601E+03  0.99999687468E+00 0.  0.
          4    1    3    3  502    0 -0.19462117045E+03 -0.77450244602E+02 -0.25810678883E+02  0.21105006875E+03  0.00000000000E+00 0.  1.
   -9000007    1    1    2    0  501  0.19146570454E+02  0.10501631866E+03  0.44036537599E+03  0.60441433034E+03  0.40000000000E+03 0.  1.
<mgrwt>
<rscale>  2 0.41380399E+03</rscale>
<asrwt>0</asrwt>
<pdfrwt beam="1">  1        2 0.11990442E+00 0.41380399E+03</pdfrwt>
<pdfrwt beam="2">  1       -2 0.38222264E-01 0.41380399E+03</pdfrwt>
<totfact> 0.23735842E+02</totfact>
</mgrwt>
</event>
<event>
 6    1  0.9022793E-004  0.4316729E+03  0.7818608E-02  0.1033333E+00
          1   -1    0    0  502    0  0.00000000000E+00  0.00000000000E+00  0.30494524545E+03  0.30494524545E+03  0.00000000000E+00 0.  1.
         -1   -1    0    0    0  501 -0.00000000000E+00 -0.00000000000E+00 -0.61550244688E+03  0.61550244688E+03  0.00000000000E+00 0. -1.
    9000007    2    1    2  502    0  0.21996256912E+02 -0.16039668200E+03 -0.11625817861E+03  0.44720035616E+03  0.40032644622E+03 0.  0.
    9000005    1    3    3    0    0  0.82023616264E+02 -0.92133232949E+02 -0.25388235798E+03  0.28226522621E+03  0.99999687468E+00 0.  0.
          4    1    3    3  502    0 -0.60027359353E+02 -0.68263449050E+02  0.13762417937E+03  0.16493512996E+03  0.00000000000E+00 0.  1.
   -9000007    1    1    2    0  501 -0.21996256912E+02  0.16039668200E+03 -0.19429902282E+03  0.47324733616E+03  0.40000000000E+03 0.  1.
<mgrwt>
<rscale>  2 0.43167293E+03</rscale>
<asrwt>0</asrwt>
<pdfrwt beam="1">  1        1 0.46914653E-01 0.43167293E+03</pdfrwt>
<pdfrwt beam="2">  1       -1 0.94692684E-01 0.43167293E+03</pdfrwt>
<totfact> 0.96566784E+01</totfact>
</mgrwt>
</event>
<event>
 6    1  0.9022793E-004  0.5375993E+03  0.7818608E-02  0.1004406E+00
         -1   -1    0    0    0  501 -0.00000000000E+00  0.00000000000E+00  0.55967429759E+03  0.55967429759E+03  0.00000000000E+00 0.  1.
          1   -1    0    0  502    0  0.00000000000E+00 -0.00000000000E+00 -0.58845752804E+03  0.58845752804E+03  0.00000000000E+00 0. -1.
    9000007    2    1    2  502    0 -0.31415849218E+03 -0.17480187536E+03  0.18650368632E+03  0.56882214129E+03  0.39940424330E+03 0.  0.
    9000005    1    3    3    0    0  0.28155560452E+02 -0.17772984982E+03  0.12968955905E+03  0.22181302221E+03  0.99999687468E+00 0.  0.
          4    1    3    3  502    0 -0.34231405263E+03  0.29279744624E+01  0.56814127272E+02  0.34700911908E+03  0.00000000000E+00 0.  1.
   -9000007    1    1    2    0  501  0.31415849218E+03  0.17480187536E+03 -0.21528691678E+03  0.57930968434E+03  0.40000000000E+03 0. -1.
<mgrwt>
<rscale>  2 0.53759932E+03</rscale>
<asrwt>0</asrwt>
<pdfrwt beam="1">  1        1 0.90531927E-01 0.53759932E+03</pdfrwt>
<pdfrwt beam="2">  1       -1 0.86103738E-01 0.53759932E+03</pdfrwt>
<totfact> 0.48981360E+01</totfact>
</mgrwt>
</event>
<event>
 6    1  0.9022793E-004  0.4082074E+03  0.7818608E-02  0.1040974E+00
          2   -1    0    0  502    0  0.00000000000E+00  0.00000000000E+00  0.20718196532E+04  0.20718196532E+04  0.00000000000E+00 0.  1.
         -2   -1    0    0    0  501 -0.00000000000E+00 -0.00000000000E+00 -0.11777175492E+03  0.11777175492E+03  0.00000000000E+00 0. -1.
    9000007    2    1    2  502    0 -0.41193701768E+02 -0.68320902221E+02  0.36108284834E+03  0.54523672707E+03  0.40067143452E+03 0.  0.
    9000005    1    3    3    0    0 -0.10975064147E+03  0.14604001973E+03  0.17875496407E+03  0.25559191662E+03  0.99999687468E+00 0.  0.
          4    1    3    3  502    0  0.68556939700E+02 -0.21436092195E+03  0.18232788426E+03  0.28964481045E+03  0.00000000000E+00 0.  1.
   -9000007    1    1    2    0  501  0.41193701768E+02  0.68320902221E+02  0.15929650499E+04  0.16443546810E+04  0.40000000000E+03 0.  1.
<mgrwt>
<rscale>  2 0.40820736E+03</rscale>
<asrwt>0</asrwt>
<pdfrwt beam="1">  1        2 0.31874146E+00 0.40820736E+03</pdfrwt>
<pdfrwt beam="2">  1       -2 0.18118733E-01 0.40820736E+03</pdfrwt>
<totfact> 0.16562350E+02</totfact>
</mgrwt>
</event>
<event>
 6    1  0.9022793E-004  0.5967186E+03  0.7818608E-02  0.9912237E-01
         -1   -1    0    0    0  501 -0.00000000000E+00  0.00000000000E+00  0.10587167536E+04  0.10587167536E+04  0.00000000000E+00 0. -1.
          1   -1    0    0  502    0  0.00000000000E+00 -0.00000000000E+00 -0.36970845873E+03  0.36970845873E+03  0.00000000000E+00 0.  1.
    9000007    2    1    2  502    0  0.10945097831E+03 -0.42893814135E+03  0.12993470853E+03  0.61078793292E+03  0.40026419370E+03 0.  0.
    9000005    1    3    3    0    0 -0.84080244073E+02  0.19045465822E+02  0.84429438977E+02  0.12067123672E+03  0.99999687468E+00 0.  0.
          4    1    3    3  502    0  0.19353122239E+03 -0.44798360718E+03  0.45505269553E+02  0.49011669620E+03  0.00000000000E+00 0.  1.
   -9000007    1    1    2    0  501 -0.10945097831E+03  0.42893814135E+03  0.55907358635E+03  0.81763727943E+03  0.40000000000E+03 0. -1.
<mgrwt>
<rscale>  2 0.59671865E+03</rscale>
<asrwt>0</asrwt>
<pdfrwt beam="1">  1        1 0.56878225E-01 0.59671865E+03</pdfrwt>
<pdfrwt beam="2">  1       -1 0.16287950E+00 0.59671865E+03</pdfrwt>
<totfact> 0.19346586E+01</totfact>
</mgrwt>
</event>
<event>
 6    1  0.9022793E-004  0.4035440E+03  0.7818608E-02  0.1042559E+00
         -2   -1    0    0    0  501 -0.00000000000E+00  0.00000000000E+00  0.13470627153E+03  0.13470627153E+03  0.00000000000E+00 0. -1.
          2   -1    0    0  502    0  0.00000000000E+00 -0.00000000000E+00 -0.12199183109E+04  0.12199183109E+04  0.00000000000E+00 0.  1.
    9000007    2    1    2  502    0  0.53777101657E+02  0.19168411300E+02 -0.47759263729E+03  0.62492550581E+03  0.39897087107E+03 0.  0.
    9000005    1    3    3    0    0 -0.90787668730E+02  0.17004179101E+03 -0.25446234757E+03  0.31923141732E+03  0.99999687468E+00 0.  0.
          4    1    3    3  502    0  0.14456477039E+03 -0.15087337971E+03 -0.22313028972E+03  0.30569408849E+03  0.00000000000E+00 0.  1.
   -9000007    1    1    2    0  501 -0.53777101657E+02 -0.19168411300E+02 -0.60761940209E+03  0.72969907664E+03  0.40000000000E+03 0.  1.
<mgrwt>
<rscale>  2 0.40354400E+03</rscale>
<asrwt>0</asrwt>
<pdfrwt beam="1">  1        2 0.18767974E+00 0.40354400E+03</pdfrwt>
<pdfrwt beam="2">  1       -2 0.20724042E-01 0.40354400E+03</pdfrwt>
<totfact> 0.38165466E+02</totfact>
</mgrwt>
</event>
<event>
 6    1  0.9022793E-004  0.4037416E+03  0.7818608E-02  0.1042492E+00
          2   -1    0    0  502    0  0.00000000000E+00  0.00000000000E+00  0.11598346139E+04  0.11598346139E+04  0.00000000000E+00 0. -1.
         -2   -1    0    0    0  501 -0.00000000000E+00 -0.00000000000E+00 -0.21972992344E+03  0.21972992344E+03  0.00000000000E+00 0.  1.
    9000007    2    1    2  502    0 -0.44449903322E+02  0.32453730653E+02  0.55944208391E+02  0.40757235806E+03  0.39994553887E+03 0.  0.
    9000005    1    3    3    0    0  0.21299667377E+02  0.10715640110E+03  0.20269211537E+03  0.23026346595E+03  0.99999687468E+00 0.  0.
          4    1    3    3  502    0 -0.65749570699E+02 -0.74702670448E+02 -0.14674790697E+03  0.17730889211E+03  0.00000000000E+00 0.  1.
   -9000007    1    1    2    0  501  0.44449903322E+02 -0.32453730653E+02  0.88416048202E+03  0.97199217924E+03  0.40000000000E+03 0. -1.
<mgrwt>
<rscale>  2 0.40374157E+03</rscale>
<asrwt>0</asrwt>
<pdfrwt beam="1">  1        2 0.17843609E+00 0.40374157E+03</pdfrwt>
<pdfrwt beam="2">  1       -2 0.33804604E-01 0.40374157E+03</pdfrwt>
<totfact> 0.17120584E+02</totfact>
</mgrwt>
</event>
<event>
 6    1  0.9022793E-004  0.4465125E+03  0.7818608E-02  0.1028767E+00
          2   -1    0    0  502    0  0.00000000000E+00  0.00000000000E+00  0.10025969740E+04  0.10025969740E+04  0.00000000000E+00 0. -1.
         -2   -1    0    0    0  501 -0.00000000000E+00 -0.00000000000E+00 -0.25686296258E+03  0.25686296258E+03  0.00000000000E+00 0.  1.
    9000007    2    1    2  502    0 -0.19791170227E+03  0.51128364230E+01  0.73742157143E+02  0.45275786319E+03  0.40044549436E+03 0.  0.
    9000005    1    3    3    0    0 -0.15317525535E+02 -0.13042636657E+03  0.16225061757E+03  0.20873889571E+03  0.99999687468E+00 0.  0.
          4    1    3    3  502    0 -0.18259417674E+03  0.13553920299E+03 -0.88508460431E+02  0.24401896749E+03  0.00000000000E+00 0.  1.
   -9000007    1    1    2    0  501  0.19791170227E+03 -0.51128364230E+01  0.67199185427E+03  0.80670207338E+03  0.40000000000E+03 0. -1.
<mgrwt>
<rscale>  2 0.44651249E+03</rscale>
<asrwt>0</asrwt>
<pdfrwt beam="1">  1        2 0.15424569E+00 0.44651249E+03</pdfrwt>
<pdfrwt beam="2">  1       -2 0.39517379E-01 0.44651249E+03</pdfrwt>
<totfact> 0.15759360E+02</totfact>
</mgrwt>
</event>
<event>
 6    1  0.9022793E-004  0.5298848E+03  0.7818608E-02  0.1006260E+00
          1   -1    0    0  502    0  0.00000000000E+00  0.00000000000E+00  0.16161605908E+04  0.16161605908E+04  0.00000000000E+00 0. -1.
         -1   -1    0    0    0  501 -0.00000000000E+00 -0.00000000000E+00 -0.17439430116E+03  0.17439430116E+03  0.00000000000E+00 0.  1.
    9000007    2    1    2  502    0  0.26795754364E+03 -0.22236985115E+03  0.77547169606E+03  0.93896926424E+03  0.39881992416E+03 0.  0.
    9000005    1    3    3    0    0  0.92416300142E+02 -0.29436324017E+03  0.62429986220E+03  0.69637763293E+03  0.99999687468E+00 0.  0.
          4    1    3    3  502    0  0.17554124350E+03  0.71993389023E+02  0.15117183386E+03  0.24259163132E+03  0.00000000000E+00 0.  1.
   -9000007    1    1    2    0  501 -0.26795754364E+03  0.22236985115E+03  0.66629459358E+03  0.85158562771E+03  0.40000000000E+03 0.  1.
<mgrwt>
<rscale>  2 0.52988477E+03</rscale>
<asrwt>0</asrwt>
<pdfrwt beam="1">  1        1 0.24864008E+00 0.52988477E+03</pdfrwt>
<pdfrwt beam="2">  1       -1 0.26829893E-01 0.52988477E+03</pdfrwt>
<totfact> 0.71111612E+01</totfact>
</mgrwt>
</event>
<event>
 6    1  0.9022793E-004  0.5046309E+03  0.7818608E-02  0.1012577E+00
         -1   -1    0    0    0  501 -0.00000000000E+00  0.00000000000E+00  0.37473528896E+03  0.37473528896E+03  0.00000000000E+00 0. -1.
          1   -1    0    0  502    0  0.00000000000E+00 -0.00000000000E+00 -0.76543969678E+03  0.76543969678E+03  0.00000000000E+00 0.  1.
    9000007    2    1    2  502    0 -0.19389402771E+03  0.23895154609E+03 -0.43752500668E+01  0.50460991945E+03  0.39989910306E+03 0.  0.
    9000005    1    3    3    0    0  0.96808147177E+02 -0.15651064357E+02  0.56850902541E+02  0.11335695077E+03  0.99999687468E+00 0.  0.
          4    1    3    3  502    0 -0.29070217489E+03  0.25460261045E+03 -0.61226152608E+02  0.39125296867E+03  0.00000000000E+00 0.  1.
   -9000007    1    1    2    0  501  0.19389402771E+03 -0.23895154609E+03 -0.38632915776E+03  0.63556506629E+03  0.40000000000E+03 0. -1.
<mgrwt>
<rscale>  2 0.50463093E+03</rscale>
<asrwt>0</asrwt>
<pdfrwt beam="1">  1        1 0.11775995E+00 0.50463093E+03</pdfrwt>
<pdfrwt beam="2">  1       -1 0.57651583E-01 0.50463093E+03</pdfrwt>
<totfact> 0.75584506E+01</totfact>
</mgrwt>
</event>
<event>
 6    1  0.9022793E-004  0.4498020E+03  0.7818608E-02  0.1027781E+00
          1   -1    0    0  502    0  0.00000000000E+00  0.00000000000E+00  0.48996793023E+03  0.48996793023E+03  0.00000000000E+00 0.  1.
         -1   -1    0    0    0  501 -0.00000000000E+00 -0.00000000000E+00 -0.22045510684E+04  0.22045510684E+04  0.00000000000E+00 0. -1.
    9000007    2    1    2  502    0  0.13084345480E+03 -0.15825098081E+03  0.35719270901E+03  0.57451462514E+03  0.40039610455E+03 0.  0.
    9000005    1    3    3    0    0 -0.24259555826E+02 -0.23533149620E+03  0.31899854366E+03  0.39715300578E+03  0.99999687468E+00 0.  0.
          4    1    3    3  502    0  0.15510301063E+03  0.77080515381E+02  0.38194165357E+02  0.17736161937E+03  0.00000000000E+00 0.  1.
   -9000007    1    1    2    0  501 -0.13084345480E+03  0.15825098081E+03 -0.20717758472E+04  0.21200043735E+04  0.40000000000E+03 0. -1.
<mgrwt>
<rscale>  2 0.44980200E+03</rscale>
<asrwt>0</asrwt>
<pdfrwt beam="1">  1        1 0.75379680E-01 0.44980200E+03</pdfrwt>
<pdfrwt beam="2">  1       -1 0.33916171E+00 0.44980200E+03</pdfrwt>
<totfact> 0.95546375E-01</totfact>
</mgrwt>
</event>
<event>
 6    1  0.9022793E-004  0.4026734E+03  0.7818608E-02  0.1042858E+00
          3   -1    0    0  502    0  0.00000000000E+00  0.00000000000E+00  0.87726469949E+02  0.87726469949E+02  0.00000000000E+00 0. -1.
         -3   -1    0    0    0  501 -0.00000000000E+00 -0.00000000000E+00 -0.20054302909E+04  0.20054302909E+04  0.00000000000E+00 0.  1.
    9000007    2    1    2  502    0  0.32440169583E+02  0.30285863197E+02 -0.66639075595E+03  0.77871620123E+03  0.40044061275E+03 0.  0.
    9000005    1    3    3    0    0 -0.16765779244E+03  0.93395784858E+02 -0.28895493718E+03  0.34688306922E+03  0.99999687468E+00 0.  0.
          4    1    3    3  502    0  0.20009796202E+03 -0.63109921661E+02 -0.37743581877E+03  0.43183313202E+03  0.00000000000E+00 0.  1.
   -9000007    1    1    2    0  501 -0.32440169583E+02 -0.30285863197E+02 -0.12513130650E+04  0.13144405596E+04  0.40000000000E+03 0.  1.
<mgrwt>
<rscale>  2 0.40267337E+03</rscale>
<asrwt>0</asrwt>
<pdfrwt beam="1">  1        3 0.13496382E-01 0.40267337E+03</pdfrwt>
<pdfrwt beam="2">  1       -3 0.30852770E+00 0.40267337E+03</pdfrwt>
<totfact> 0.43112941E+00</totfact>
</mgrwt>
</event>
<event>
 6    1  0.9022793E-004  0.4372736E+03  0.7818608E-02  0.1031587E+00
         -4   -1    0    0    0  501 -0.00000000000E+00  0.00000000000E+00  0.28131089897E+03  0.28131089897E+03  0.00000000000E+00 0. -1.
          4   -1    0    0  502    0  0.00000000000E+00 -0.00000000000E+00 -0.68083345618E+03  0.68083345618E+03  0.00000000000E+00 0.  1.
    9000007    2    1    2  502    0  0.11246140082E+03 -0.13345094470E+03 -0.18058553623E+03  0.47389222717E+03  0.40187807325E+03 0.  0.
    9000005    1    3    3    0    0  0.91575040269E+02 -0.25998331191E+03 -0.31808271248E+02  0.27747085718E+03  0.99999687468E+00 0.  0.
          4    1    3    3  502    0  0.20886360554E+02  0.12653236721E+03 -0.14877726498E+03  0.19642136998E+03  0.00000000000E+00 0.  1.
   -9000007    1    1    2    0  501 -0.11246140082E+03  0.13345094470E+03 -0.21893702098E+03  0.48825212797E+03  0.40000000000E+03 0.  1.
<mgrwt>
<rscale>  2 0.43727363E+03</rscale>
<asrwt>0</asrwt>
<pdfrwt beam="1">  1        4 0.10474361E+00 0.43727363E+03</pdfrwt>
<pdfrwt beam="2">  1       -4 0.43278600E-01 0.43727363E+03</pdfrwt>
<totfact> 0.74326316E+00</totfact>
</mgrwt>
</event>
<event>
 6    1  0.9022793E-004  0.4551193E+03  0.7818608E-02  0.1026206E+00
          1   -1    0    0  502    0  0.00000000000E+00  0.00000000000E+00  0.13239061716E+04  0.13239061716E+04  0.00000000000E+00 0.  1.
         -1   -1    0    0    0  501 -0.00000000000E+00 -0.00000000000E+00 -0.16480133498E+03  0.16480133498E+03  0.00000000000E+00 0. -1.
    9000007    2    1    2  502    0 -0.10780935144E+03  0.18854228131E+03  0.74700131985E+03  0.87470395883E+03  0.39990623356E+03 0.  0.
    9000005    1    3    3    0    0 -0.16263051668E+03  0.31917278326E+02  0.73928304694E+02  0.18147669779E+03  0.99999687468E+00 0.  0.
          4    1    3    3  502    0  0.54821165244E+02  0.15662500298E+03  0.67307301515E+03  0.69322726104E+03  0.00000000000E+00 0.  1.
   -9000007    1    1    2    0  501  0.10780935144E+03 -0.18854228131E+03  0.41210351673E+03  0.61400354771E+03  0.40000000000E+03 0. -1.
<mgrwt>
<rscale>  2 0.45511926E+03</rscale>
<asrwt>0</asrwt>
<pdfrwt beam="1">  1        1 0.20367786E+00 0.45511926E+03</pdfrwt>
<pdfrwt beam="2">  1       -1 0.25354053E-01 0.45511926E+03</pdfrwt>
<totfact> 0.12503538E+02</totfact>
</mgrwt>
</event>
<event>
 6    1  0.9022793E-004  0.5199818E+03  0.7818608E-02  0.1008691E+00
          1   -1    0    0  502    0  0.00000000000E+00  0.00000000000E+00  0.29372057687E+03  0.29372057687E+03  0.00000000000E+00 0.  1.
         -1   -1    0    0    0  501 -0.00000000000E+00 -0.00000000000E+00 -0.12491486493E+04  0.12491486493E+04  0.00000000000E+00 0. -1.
    9000007    2    1    2  502    0 -0.22632033794E+03  0.24425412512E+03 -0.87305785251E+03  0.10159291668E+04  0.39874940145E+03 0.  0.
    9000005    1    3    3    0    0 -0.26492587344E+03  0.19942199841E+03 -0.89372673626E+03  0.95325931990E+03  0.99999687468E+00 0.  0.
          4    1    3    3  502    0  0.38605535502E+02  0.44832126713E+02  0.20668883755E+02  0.62669846917E+02  0.00000000000E+00 0.  1.
   -9000007    1    1    2    0  501  0.22632033794E+03 -0.24425412512E+03 -0.82370219892E+02  0.52694005933E+03  0.40000000000E+03 0.  1.
<mgrwt>
<rscale>  2 0.51998178E+03</rscale>
<asrwt>0</asrwt>
<pdfrwt beam="1">  1        1 0.45187781E-01 0.51998178E+03</pdfrwt>
<pdfrwt beam="2">  1       -1 0.19217672E+00 0.51998178E+03</pdfrwt>
<totfact> 0.16280157E+01</totfact>
</mgrwt>
</event>
<event>
 6    1  0.9022793E-004  0.4434184E+03  0.7818608E-02  0.1029703E+00
         -1   -1    0    0    0  501 -0.00000000000E+00  0.00000000000E+00  0.12061997024E+03  0.12061997024E+03  0.00000000000E+00 0. -1.
          1   -1    0    0  502    0  0.00000000000E+00 -0.00000000000E+00 -0.16366094431E+04  0.16366094431E+04  0.00000000000E+00 0.  1.
    9000007    2    1    2  502    0  0.19027156410E+03 -0.35758210922E+02 -0.81181694086E+03  0.92455848640E+03  0.39784385323E+03 0.  0.
    9000005    1    3    3    0    0  0.11376433063E+03 -0.21729153910E+03 -0.43708458752E+03  0.50120043150E+03  0.99999687468E+00 0.  0.
          4    1    3    3  502    0  0.76507233465E+02  0.18153332818E+03 -0.37473235334E+03  0.42335805491E+03  0.00000000000E+00 0.  1.
   -9000007    1    1    2    0  501 -0.19027156410E+03  0.35758210922E+02 -0.70417253200E+03  0.83267092695E+03  0.40000000000E+03 0. -1.
<mgrwt>
<rscale>  2 0.44341843E+03</rscale>
<asrwt>0</asrwt>
<pdfrwt beam="1">  1        1 0.25178606E+00 0.44341843E+03</pdfrwt>
<pdfrwt beam="2">  1       -1 0.18556919E-01 0.44341843E+03</pdfrwt>
<totfact> 0.12925403E+02</totfact>
</mgrwt>
</event>
<event>
 6    1  0.9022793E-004  0.4678497E+03  0.7818608E-02  0.1022529E+00
         -1   -1    0    0    0  501 -0.00000000000E+00  0.00000000000E+00  0.71084900136E+02  0.71084900136E+02  0.00000000000E+00 0. -1.
          1   -1    0    0  502    0  0.00000000000E+00 -0.00000000000E+00 -0.30821456111E+04  0.30821456111E+04  0.00000000000E+00 0.  1.
    9000007    2    1    2  502    0 -0.93203554300E+02  0.21696722043E+03 -0.15638920863E+04  0.16333427833E+04  0.40778488562E+03 0.  0.
    9000005    1    3    3    0    0 -0.53280891504E+02  0.28525703314E+03 -0.15099866025E+04  0.15376186030E+04  0.99999687468E+00 0.  0.
          4    1    3    3  502    0 -0.39922662797E+02 -0.68289812707E+02 -0.53905483769E+02  0.95724180355E+02  0.00000000000E+00 0.  1.
   -9000007    1    1    2    0  501  0.93203554300E+02 -0.21696722043E+03 -0.14471686247E+04  0.15198877279E+04  0.40000000000E+03 0.  1.
<mgrwt>
<rscale>  2 0.46784971E+03</rscale>
<asrwt>0</asrwt>
<pdfrwt beam="1">  1        1 0.47417613E+00 0.46784971E+03</pdfrwt>
<pdfrwt beam="2">  1       -1 0.10936141E-01 0.46784971E+03</pdfrwt>
<totfact> 0.31741100E+01</totfact>
</mgrwt>
</event>
<event>
 6    1  0.9022793E-004  0.4013146E+03  0.7818608E-02  0.1043325E+00
         -2   -1    0    0    0  501 -0.00000000000E+00  0.00000000000E+00  0.45320688726E+02  0.45320688726E+02  0.00000000000E+00 0. -1.
          2   -1    0    0  502    0  0.00000000000E+00 -0.00000000000E+00 -0.35640692699E+04  0.35640692699E+04  0.00000000000E+00 0.  1.
    9000007    2    1    2  502    0  0.10599577828E+02  0.19477288388E+02 -0.16648653460E+04  0.17127152987E+04  0.40140423315E+03 0.  0.
    9000005    1    3    3    0    0 -0.62526608986E+02 -0.49927213224E+02 -0.49259956259E+02  0.93967264172E+02  0.99999687468E+00 0.  0.
          4    1    3    3  502    0  0.73126186814E+02  0.69404501612E+02 -0.16156053897E+04  0.16187480345E+04  0.00000000000E+00 0.  1.
   -9000007    1    1    2    0  501 -0.10599577828E+02 -0.19477288388E+02 -0.18538832352E+04  0.18966746599E+04  0.40000000000E+03 0.  1.
<mgrwt>
<rscale>  2 0.40131460E+03</rscale>
<asrwt>0</asrwt>
<pdfrwt beam="1">  1        2 0.54831868E+00 0.40131460E+03</pdfrwt>
<pdfrwt beam="2">  1       -2 0.69724095E-02 0.40131460E+03</pdfrwt>
<totfact> 0.10344001E+02</totfact>
</mgrwt>
</event>
<event>
 6    1  0.9022793E-004  0.4354453E+03  0.7818608E-02  0.1032154E+00
         -2   -1    0    0    0  501 -0.00000000000E+00  0.00000000000E+00  0.33325347074E+03  0.33325347074E+03  0.00000000000E+00 0. -1.
          2   -1    0    0  502    0  0.00000000000E+00 -0.00000000000E+00 -0.61988233711E+03  0.61988233711E+03  0.00000000000E+00 0.  1.
    9000007    2    1    2  502    0  0.15659116279E+03 -0.81055706068E+02 -0.27936392604E+03  0.51593608335E+03  0.39630167698E+03 0.  0.
    9000005    1    3    3    0    0  0.28598572534E+03 -0.14657398585E+02 -0.20801908090E+03  0.35394295083E+03  0.99999687468E+00 0.  0.
          4    1    3    3  502    0 -0.12939456255E+03 -0.66398307483E+02 -0.71344845147E+02  0.16199313252E+03  0.00000000000E+00 0.  1.
   -9000007    1    1    2    0  501 -0.15659116279E+03  0.81055706068E+02 -0.72649403312E+01  0.43719972450E+03  0.40000000000E+03 0. -1.
<mgrwt>
<rscale>  2 0.43544530E+03</rscale>
<asrwt>0</asrwt>
<pdfrwt beam="1">  1        2 0.95366513E-01 0.43544530E+03</pdfrwt>
<pdfrwt beam="2">  1       -2 0.51269765E-01 0.43544530E+03</pdfrwt>
<totfact> 0.17637415E+02</totfact>
</mgrwt>
</event>
<event>
 6    1  0.9022793E-004  0.4245092E+03  0.7818608E-02  0.1035609E+00
          2   -1    0    0  502    0  0.00000000000E+00  0.00000000000E+00  0.15175946661E+04  0.15175946661E+04  0.00000000000E+00 0. -1.
         -2   -1    0    0    0  501 -0.00000000000E+00 -0.00000000000E+00 -0.13219751939E+03  0.13219751939E+03  0.00000000000E+00 0.  1.
    9000007    2    1    2  502    0  0.12817153328E+03 -0.60865417019E+02  0.42969579774E+03  0.60408782509E+03  0.40018880656E+03 0.  0.
    9000005    1    3    3    0    0 -0.14182091295E+03 -0.61260711482E+02  0.14963054009E+03  0.21507288216E+03  0.99999687468E+00 0.  0.
          4    1    3    3  502    0  0.26999244623E+03  0.39529446349E+00  0.28006525765E+03  0.38901494293E+03  0.00000000000E+00 0.  1.
   -9000007    1    1    2    0  501 -0.12817153328E+03  0.60865417019E+02  0.95570134901E+03  0.10457043604E+04  0.40000000000E+03 0. -1.
<mgrwt>
<rscale>  2 0.42450921E+03</rscale>
<asrwt>0</asrwt>
<pdfrwt beam="1">  1        2 0.23347609E+00 0.42450921E+03</pdfrwt>
<pdfrwt beam="2">  1       -2 0.20338081E-01 0.42450921E+03</pdfrwt>
<totfact> 0.26845532E+02</totfact>
</mgrwt>
</event>
<event>
 6    1  0.9022793E-004  0.4030308E+03  0.7818608E-02  0.1042735E+00
         -1   -1    0    0    0  501 -0.00000000000E+00  0.00000000000E+00  0.10925337655E+04  0.10925337655E+04  0.00000000000E+00 0.  1.
          1   -1    0    0  502    0  0.00000000000E+00 -0.00000000000E+00 -0.21497946454E+03  0.21497946454E+03  0.00000000000E+00 0. -1.
    9000007    2    1    2  502    0 -0.27191782292E+02  0.38775586133E+02  0.80202081594E+03  0.89769833708E+03  0.40047718548E+03 0.  0.
    9000005    1    3    3    0    0 -0.39119530113E+01  0.19024505996E+03  0.19830236723E+03  0.27483324955E+03  0.99999687468E+00 0.  0.
          4    1    3    3  502    0 -0.23279829280E+02 -0.15146947382E+03  0.60371844871E+03  0.62286508753E+03  0.00000000000E+00 0.  1.
   -9000007    1    1    2    0  501  0.27191782292E+02 -0.38775586133E+02  0.75533484976E+02  0.40981489292E+03  0.40000000000E+03 0. -1.
<mgrwt>
<rscale>  2 0.40303079E+03</rscale>
<asrwt>0</asrwt>
<pdfrwt beam="1">  1        1 0.33073764E-01 0.40303079E+03</pdfrwt>
<pdfrwt beam="2">  1       -1 0.16808212E+00 0.40303079E+03</pdfrwt>
<totfact> 0.36581276E+01</totfact>
</mgrwt>
</event>
<event>
 6    1  0.9022793E-004  0.5941896E+03  0.7818608E-02  0.9917535E-01
          2   -1    0    0  502    0  0.00000000000E+00  0.00000000000E+00  0.37475056636E+03  0.37475056636E+03  0.00000000000E+00 0.  1.
         -2   -1    0    0    0  501 -0.00000000000E+00 -0.00000000000E+00 -0.95348143252E+03  0.95348143252E+03  0.00000000000E+00 0. -1.
    9000007    2    1    2  502    0  0.38864002599E+03  0.20520724963E+03 -0.21684594173E+03  0.63245057945E+03  0.39977554690E+03 0.  0.
    9000005    1    3    3    0    0  0.19027932154E+02  0.17266943318E+03  0.43624168882E+02  0.17911131584E+03  0.99999687468E+00 0.  0.
          4    1    3    3  502    0  0.36961209384E+03  0.32537816448E+02 -0.26047011061E+03  0.45333926361E+03  0.00000000000E+00 0.  1.
   -9000007    1    1    2    0  501 -0.38864002599E+03 -0.20520724963E+03 -0.36188492443E+03  0.69578141944E+03  0.40000000000E+03 0. -1.
<mgrwt>
<rscale>  2 0.59418963E+03</rscale>
<asrwt>0</asrwt>
<pdfrwt beam="1">  1        2 0.57653934E-01 0.59418963E+03</pdfrwt>
<pdfrwt beam="2">  1       -2 0.14668945E+00 0.59418963E+03</pdfrwt>
<totfact> 0.27900882E+01</totfact>
</mgrwt>
</event>
<event>
 6    1  0.9022793E-004  0.6192657E+03  0.7818608E-02  0.9866223E-01
          2   -1    0    0  502    0  0.00000000000E+00  0.00000000000E+00  0.43640386333E+04  0.43640386333E+04  0.00000000000E+00 0.  1.
         -2   -1    0    0    0  501 -0.00000000000E+00 -0.00000000000E+00 -0.97216891718E+02  0.97216891718E+02  0.00000000000E+00 0. -1.
    9000007    2    1    2  502    0 -0.21378253200E+03  0.42161880714E+03  0.28249421653E+04  0.28920257452E+04  0.40006159998E+03 0.  0.
    9000005    1    3    3    0    0  0.77447352810E+01  0.10178183971E+03  0.11285242422E+03  0.15217159217E+03  0.99999687468E+00 0.  0.
          4    1    3    3  502    0 -0.22152726728E+03  0.31983696743E+03  0.27120897411E+04  0.27398541530E+04  0.00000000000E+00 0.  1.
   -9000007    1    1    2    0  501  0.21378253200E+03 -0.42161880714E+03  0.14418795762E+04  0.15692297798E+04  0.40000000000E+03 0. -1.
<mgrwt>
<rscale>  2 0.61926572E+03</rscale>
<asrwt>0</asrwt>
<pdfrwt beam="1">  1        2 0.67139041E+00 0.61926572E+03</pdfrwt>
<pdfrwt beam="2">  1       -2 0.14956448E-01 0.61926572E+03</pdfrwt>
<totfact> 0.67641417E+00</totfact>
</mgrwt>
</event>
<event>
 6    1  0.9022793E-004  0.4759939E+03  0.7818608E-02  0.1020242E+00
          1   -1    0    0  502    0  0.00000000000E+00  0.00000000000E+00  0.16345582097E+04  0.16345582097E+04  0.00000000000E+00 0.  1.
         -1   -1    0    0    0  501 -0.00000000000E+00 -0.00000000000E+00 -0.14823444208E+03  0.14823444208E+03  0.00000000000E+00 0. -1.
    9000007    2    1    2  502    0 -0.22683201361E+03 -0.12321606789E+03  0.97016817239E+03  0.10806163489E+04  0.39983802856E+03 0.  0.
    9000005    1    3    3    0    0 -0.20044388933E+03 -0.25611102690E+03  0.79656446461E+03  0.86039906854E+03  0.99999687468E+00 0.  0.
          4    1    3    3  502    0 -0.26388124276E+02  0.13289495900E+03  0.17360370778E+03  0.22021728040E+03  0.00000000000E+00 0.  1.
   -9000007    1    1    2    0  501  0.22683201361E+03  0.12321606789E+03  0.51615559521E+03  0.70217630283E+03  0.40000000000E+03 0. -1.
<mgrwt>
<rscale>  2 0.47599388E+03</rscale>
<asrwt>0</asrwt>
<pdfrwt beam="1">  1        1 0.25147048E+00 0.47599388E+03</pdfrwt>
<pdfrwt beam="2">  1       -1 0.22805300E-01 0.47599388E+03</pdfrwt>
<totfact> 0.91714509E+01</totfact>
</mgrwt>
</event>
<event>
 6    1  0.9022793E-004  0.4019782E+03  0.7818608E-02  0.1043097E+00
         -1   -1    0    0    0  501 -0.00000000000E+00  0.00000000000E+00  0.72496768355E+02  0.72496768355E+02  0.00000000000E+00 0.  1.
          1   -1    0    0  502    0  0.00000000000E+00 -0.00000000000E+00 -0.33951753447E+04  0.33951753447E+04  0.00000000000E+00 0. -1.
    9000007    2    1    2  502    0  0.40247127201E+02 -0.25328547614E+02 -0.26752662455E+04  0.27051735277E+04  0.39831264598E+03 0.  0.
    9000005    1    3    3    0    0 -0.14963719508E+03  0.94059193718E+02 -0.11496146853E+04  0.11631222407E+04  0.99999687468E+00 0.  0.
          4    1    3    3  502    0  0.18988432229E+03 -0.11938774133E+03 -0.15256515602E+04  0.15420512870E+04  0.00000000000E+00 0.  1.
   -9000007    1    1    2    0  501 -0.40247127201E+02  0.25328547614E+02 -0.64741233083E+03  0.76249858536E+03  0.40000000000E+03 0.  1.
<mgrwt>
<rscale>  2 0.40197816E+03</rscale>
<asrwt>0</asrwt>
<pdfrwt beam="1">  1        1 0.52233463E+00 0.40197816E+03</pdfrwt>
<pdfrwt beam="2">  1       -1 0.11153350E-01 0.40197816E+03</pdfrwt>
<totfact> 0.18466387E+01</totfact>
</mgrwt>
</event>
<event>
 6    1  0.9022793E-004  0.4689826E+03  0.7818608E-02  0.1022208E+00
          2   -1    0    0  502    0  0.00000000000E+00  0.00000000000E+00  0.11630788062E+04  0.11630788062E+04  0.00000000000E+00 0.  1.
         -2   -1    0    0    0  501 -0.00000000000E+00 -0.00000000000E+00 -0.18913966097E+03  0.18913966097E+03  0.00000000000E+00 0. -1.
    9000007    2    1    2  502    0 -0.15687370329E+03 -0.19036400564E+03  0.49494251848E+03  0.68118524753E+03  0.39774040708E+03 0.  0.
    9000005    1    3    3    0    0 -0.18528365189E+03 -0.12804583762E+03  0.49620408442E+02  0.23062730349E+03  0.99999687468E+00 0.  0.
          4    1    3    3  502    0  0.28409948602E+02 -0.62318168023E+02  0.44532211004E+03  0.45055794404E+03  0.00000000000E+00 0.  1.
   -9000007    1    1    2    0  501  0.15687370329E+03  0.19036400564E+03  0.47899662673E+03  0.67103321963E+03  0.40000000000E+03 0. -1.
<mgrwt>
<rscale>  2 0.46898260E+03</rscale>
<asrwt>0</asrwt>
<pdfrwt beam="1">  1        2 0.17893520E+00 0.46898260E+03</pdfrwt>
<pdfrwt beam="2">  1       -2 0.29098410E-01 0.46898260E+03</pdfrwt>
<totfact> 0.22342410E+02</totfact>
</mgrwt>
</event>
<event>
 6    1  0.9022793E-004  0.4347843E+03  0.7818608E-02  0.1032359E+00
         -1   -1    0    0    0  501 -0.00000000000E+00  0.00000000000E+00  0.12233659323E+03  0.12233659323E+03  0.00000000000E+00 0. -1.
          1   -1    0    0  502    0  0.00000000000E+00 -0.00000000000E+00 -0.19034003705E+04  0.19034003705E+04  0.00000000000E+00 0.  1.
    9000007    2    1    2  502    0  0.17389039440E+03 -0.22940013028E+02 -0.44789194468E+03  0.62284308013E+03  0.39567940923E+03 0.  0.
    9000005    1    3    3    0    0  0.18207667691E+03 -0.13558396415E+03 -0.84379370439E+02  0.24218960704E+03  0.99999687468E+00 0.  0.
          4    1    3    3  502    0 -0.81862825095E+01  0.11264395112E+03 -0.36351257424E+03  0.38065347309E+03  0.00000000000E+00 0.  1.
   -9000007    1    1    2    0  501 -0.17389039440E+03  0.22940013028E+02 -0.13331718326E+04  0.14028938836E+04  0.40000000000E+03 0.  1.
<mgrwt>
<rscale>  2 0.43478431E+03</rscale>
<asrwt>0</asrwt>
<pdfrwt beam="1">  1        1 0.29283080E+00 0.43478431E+03</pdfrwt>
<pdfrwt beam="2">  1       -1 0.18821016E-01 0.43478431E+03</pdfrwt>
<totfact> 0.84248343E+01</totfact>
</mgrwt>
</event>
<event>
 6    1  0.9022793E-004  0.4773458E+03  0.7818608E-02  0.1019867E+00
         -2   -1    0    0    0  501 -0.00000000000E+00  0.00000000000E+00  0.22487364844E+03  0.22487364844E+03  0.00000000000E+00 0.  1.
          2   -1    0    0  502    0  0.00000000000E+00 -0.00000000000E+00 -0.10444997887E+04  0.10444997887E+04  0.00000000000E+00 0. -1.
    9000007    2    1    2  502    0  0.30544068444E+02 -0.25941514395E+03 -0.29975550369E+03  0.56333191160E+03  0.39907433344E+03 0.  0.
    9000005    1    3    3    0    0 -0.14541070752E+02 -0.35730491706E+03 -0.27903355671E+03  0.45358458115E+03  0.99999687468E+00 0.  0.
          4    1    3    3  502    0  0.45085139196E+02  0.97889773104E+02 -0.20721946972E+02  0.10974733045E+03  0.00000000000E+00 0.  1.
   -9000007    1    1    2    0  501 -0.30544068444E+02  0.25941514395E+03 -0.51987063659E+03  0.70604152556E+03  0.40000000000E+03 0. -1.
<mgrwt>
<rscale>  2 0.47734581E+03</rscale>
<asrwt>0</asrwt>
<pdfrwt beam="1">  1        2 0.16069228E+00 0.47734581E+03</pdfrwt>
<pdfrwt beam="2">  1       -2 0.34595945E-01 0.47734581E+03</pdfrwt>
<totfact> 0.19071533E+02</totfact>
</mgrwt>
</event>
<event>
 6    1  0.9022793E-004  0.4621718E+03  0.7818608E-02  0.1024153E+00
         -2   -1    0    0    0  501 -0.00000000000E+00  0.00000000000E+00  0.89302968767E+03  0.89302968767E+03  0.00000000000E+00 0.  1.
          2   -1    0    0  502    0  0.00000000000E+00 -0.00000000000E+00 -0.46786095079E+03  0.46786095079E+03  0.00000000000E+00 0. -1.
    9000007    2    1    2  502    0 -0.22512931983E+03  0.47795073946E+02  0.68845442446E+03  0.82958382218E+03  0.40158715583E+03 0.  0.
    9000005    1    3    3    0    0 -0.32337626059E+02  0.11782356762E+03  0.12066815666E+02  0.12277916427E+03  0.99999687468E+00 0.  0.
          4    1    3    3  502    0 -0.19279169377E+03 -0.70028493672E+02  0.67638760879E+03  0.70680465791E+03  0.00000000000E+00 0.  1.
   -9000007    1    1    2    0  501  0.22512931983E+03 -0.47795073946E+02 -0.26328568758E+03  0.53130681628E+03  0.40000000000E+03 0. -1.
<mgrwt>
<rscale>  2 0.46217178E+03</rscale>
<asrwt>0</asrwt>
<pdfrwt beam="1">  1        2 0.71978608E-01 0.46217178E+03</pdfrwt>
<pdfrwt beam="2">  1       -2 0.13738918E+00 0.46217178E+03</pdfrwt>
<totfact> 0.26143515E+01</totfact>
</mgrwt>
</event>
<event>
 6    1  0.9022793E-004  0.4056994E+03  0.7818608E-02  0.1041824E+00
         -2   -1    0    0    0  501 -0.00000000000E+00  0.00000000000E+00  0.67211037210E+02  0.67211037210E+02  0.00000000000E+00 0.  1.
          2   -1    0    0  502    0  0.00000000000E+00 -0.00000000000E+00 -0.32292668566E+04  0.32292668566E+04  0.00000000000E+00 0. -1.
    9000007    2    1    2  502    0 -0.91117721740E+01 -0.64120906339E+02 -0.77222372059E+03  0.87253648043E+03  0.40099366581E+03 0.  0.
    9000005    1    3    3    0    0 -0.69850812742E+02  0.90906564770E+02 -0.66429184199E+03  0.67411259511E+03  0.99999687468E+00 0.  0.
          4    1    3    3  502    0  0.60739040568E+02 -0.15502747111E+03 -0.10793187859E+03  0.19842388532E+03  0.00000000000E+00 0.  1.
   -9000007    1    1    2    0  501  0.91117721740E+01  0.64120906339E+02 -0.23898320988E+04  0.24239414134E+04  0.40000000000E+03 0. -1.
<mgrwt>
<rscale>  2 0.40569939E+03</rscale>
<asrwt>0</asrwt>
<pdfrwt beam="1">  1        2 0.49681034E+00 0.40569939E+03</pdfrwt>
<pdfrwt beam="2">  1       -2 0.10340158E-01 0.40569939E+03</pdfrwt>
<totfact> 0.91431566E+01</totfact>
</mgrwt>
</event>
<event>
 6    1  0.9022793E-004  0.5208615E+03  0.7818608E-02  0.1008473E+00
         -2   -1    0    0    0  501 -0.00000000000E+00  0.00000000000E+00  0.82503363300E+03  0.82503363300E+03  0.00000000000E+00 0. -1.
          2   -1    0    0  502    0  0.00000000000E+00 -0.00000000000E+00 -0.36348518171E+03  0.36348518171E+03  0.00000000000E+00 0.  1.
    9000007    2    1    2  502    0 -0.28728579153E+03  0.17147083848E+03  0.41401642823E+03  0.66488280785E+03  0.39840202165E+03 0.  0.
    9000005    1    3    3    0    0 -0.20042141893E+03 -0.70754520349E+02  0.33309298032E+03  0.39512894206E+03  0.99999687468E+00 0.  0.
          4    1    3    3  502    0 -0.86864372603E+02  0.24222535883E+03  0.80923447910E+02  0.26975386579E+03  0.00000000000E+00 0.  1.
   -9000007    1    1    2    0  501  0.28728579153E+03 -0.17147083848E+03  0.47532023051E+02  0.52363600686E+03  0.40000000000E+03 0.  1.
<mgrwt>
<rscale>  2 0.52086151E+03</rscale>
<asrwt>0</asrwt>
<pdfrwt beam="1">  1        2 0.55920797E-01 0.52086151E+03</pdfrwt>
<pdfrwt beam="2">  1       -2 0.12692825E+00 0.52086151E+03</pdfrwt>
<totfact> 0.42060276E+01</totfact>
</mgrwt>
</event>
<event>
 6    1  0.9022793E-004  0.4667114E+03  0.7818608E-02  0.1022853E+00
         -2   -1    0    0    0  501 -0.00000000000E+00  0.00000000000E+00  0.17210248884E+03  0.17210248884E+03  0.00000000000E+00 0. -1.
          2   -1    0    0  502    0  0.00000000000E+00 -0.00000000000E+00 -0.14963188633E+04  0.14963188633E+04  0.00000000000E+00 0.  1.
    9000007    2    1    2  502    0  0.19267664066E+03  0.14714861924E+03 -0.98841864942E+03  0.10926287539E+04  0.39760427992E+03 0.  0.
    9000005    1    3    3    0    0  0.86929821012E+02 -0.91038637360E+02 -0.83806354673E+02  0.15122609679E+03  0.99999687468E+00 0.  0.
          4    1    3    3  502    0  0.10574681964E+03  0.23818725660E+03 -0.90461229475E+03  0.94140265715E+03  0.00000000000E+00 0.  1.
   -9000007    1    1    2    0  501 -0.19267664066E+03 -0.14714861924E+03 -0.33579772501E+03  0.57579259818E+03  0.40000000000E+03 0. -1.
<mgrwt>
<rscale>  2 0.46671136E+03</rscale>
<asrwt>0</asrwt>
<pdfrwt beam="1">  1        2 0.23020290E+00 0.46671136E+03</pdfrwt>
<pdfrwt beam="2">  1       -2 0.26477307E-01 0.46671136E+03</pdfrwt>
<totfact> 0.17198947E+02</totfact>
</mgrwt>
</event>
<event>
 6    1  0.9022793E-004  0.7644751E+03  0.7818608E-02  0.9612911E-01
         -2   -1    0    0    0  501 -0.00000000000E+00  0.00000000000E+00  0.80885474338E+03  0.80885474338E+03  0.00000000000E+00 0. -1.
          2   -1    0    0  502    0  0.00000000000E+00 -0.00000000000E+00 -0.89100725230E+03  0.89100725230E+03  0.00000000000E+00 0.  1.
    9000007    2    1    2  502    0 -0.37784489981E+03  0.53079307803E+03 -0.41065781438E+03  0.86774193481E+03  0.39978514845E+03 0.  0.
    9000005    1    3    3    0    0 -0.27895589935E+03  0.21436207998E+03 -0.15796939233E+02  0.35216194911E+03  0.99999687468E+00 0.  0.
          4    1    3    3  502    0 -0.98889000466E+02  0.31643099805E+03 -0.39486087515E+03  0.51557998570E+03  0.00000000000E+00 0.  1.
   -9000007    1    1    2    0  501  0.37784489981E+03 -0.53079307803E+03  0.32850530546E+03  0.83212006088E+03  0.40000000000E+03 0. -1.
<mgrwt>
<rscale>  2 0.76447507E+03</rscale>
<asrwt>0</asrwt>
<pdfrwt beam="1">  1        2 0.13707804E+00 0.76447507E+03</pdfrwt>
<pdfrwt beam="2">  1       -2 0.12443919E+00 0.76447507E+03</pdfrwt>
<totfact> 0.14625494E+01</totfact>
</mgrwt>
</event>
<event>
 6    1  0.9022793E-004  0.6586915E+03  0.7818608E-02  0.9790606E-01
         -2   -1    0    0    0  501 -0.00000000000E+00  0.00000000000E+00  0.26976726612E+03  0.26976726612E+03  0.00000000000E+00 0.  1.
          2   -1    0    0  502    0  0.00000000000E+00 -0.00000000000E+00 -0.16184867417E+04  0.16184867417E+04  0.00000000000E+00 0. -1.
    9000007    2    1    2  502    0  0.41793459104E+03 -0.31766947317E+03 -0.74781614802E+03  0.99569139061E+03  0.39571345381E+03 0.  0.
    9000005    1    3    3    0    0  0.43685593084E+03 -0.11239381510E+03 -0.50272125855E+03  0.67542959498E+03  0.99999687468E+00 0.  0.
          4    1    3    3  502    0 -0.18921339802E+02 -0.20527565807E+03 -0.24509488946E+03  0.32026179563E+03  0.00000000000E+00 0.  1.
   -9000007    1    1    2    0  501 -0.41793459104E+03  0.31766947317E+03 -0.60090332757E+03  0.89256261721E+03  0.40000000000E+03 0.  1.
<mgrwt>
<rscale>  2 0.65869146E+03</rscale>
<asrwt>0</asrwt>
<pdfrwt beam="1">  1        2 0.24899796E+00 0.65869146E+03</pdfrwt>
<pdfrwt beam="2">  1       -2 0.41502656E-01 0.65869146E+03</pdfrwt>
<totfact> 0.61870780E+01</totfact>
</mgrwt>
</event>
<event>
 6    1  0.9022793E-004  0.5756583E+03  0.7818608E-02  0.9957235E-01
          1   -1    0    0  502    0  0.00000000000E+00  0.00000000000E+00  0.25612881380E+04  0.25612881380E+04  0.00000000000E+00 0. -1.
         -1   -1    0    0    0  501 -0.00000000000E+00 -0.00000000000E+00 -0.13191999094E+03  0.13191999094E+03  0.00000000000E+00 0.  1.
    9000007    2    1    2  502    0  0.29926713495E+03  0.28474287634E+03  0.14028256746E+04  0.15165906162E+04  0.40185557094E+03 0.  0.
    9000005    1    3    3    0    0  0.31441198905E+03  0.38893308319E+02  0.94527827727E+03  0.99695516938E+03  0.99999687468E+00 0.  0.
          4    1    3    3  502    0 -0.15144854098E+02  0.24584956802E+03  0.45754739737E+03  0.51963544677E+03  0.00000000000E+00 0.  1.
   -9000007    1    1    2    0  501 -0.29926713495E+03 -0.28474287634E+03  0.10265424724E+04  0.11766175127E+04  0.40000000000E+03 0.  1.
<mgrwt>
<rscale>  2 0.57565827E+03</rscale>
<asrwt>0</asrwt>
<pdfrwt beam="1">  1        1 0.39404429E+00 0.57565827E+03</pdfrwt>
<pdfrwt beam="2">  1       -1 0.20295385E-01 0.57565827E+03</pdfrwt>
<totfact> 0.26386929E+01</totfact>
</mgrwt>
</event>
<event>
 6    1  0.9022793E-004  0.4013991E+03  0.7818608E-02  0.1043296E+00
          2   -1    0    0  502    0  0.00000000000E+00  0.00000000000E+00  0.11109499094E+04  0.11109499094E+04  0.00000000000E+00 0.  1.
         -2   -1    0    0    0  501 -0.00000000000E+00 -0.00000000000E+00 -0.15221045954E+03  0.15221045954E+03  0.00000000000E+00 0. -1.
    9000007    2    1    2  502    0  0.31197693339E+02  0.10704213561E+02  0.61659257994E+03  0.73575885506E+03  0.40008349991E+03 0.  0.
    9000005    1    3    3    0    0  0.84761608074E+02 -0.17111289039E+03  0.19206684843E+03  0.27084096020E+03  0.99999687468E+00 0.  0.
          4    1    3    3  502    0 -0.53563914734E+02  0.18181710395E+03  0.42452573151E+03  0.46491789487E+03  0.00000000000E+00 0.  1.
   -9000007    1    1    2    0  501 -0.31197693339E+02 -0.10704213561E+02  0.34214686996E+03  0.52740151392E+03  0.40000000000E+03 0. -1.
<mgrwt>
<rscale>  2 0.40139915E+03</rscale>
<asrwt>0</asrwt>
<pdfrwt beam="1">  1        2 0.17091537E+00 0.40139915E+03</pdfrwt>
<pdfrwt beam="2">  1       -2 0.23416994E-01 0.40139915E+03</pdfrwt>
<totfact> 0.35686565E+02</totfact>
</mgrwt>
</event>
<event>
 6    1  0.9022793E-004  0.4084330E+03  0.7818608E-02  0.1040898E+00
          2   -1    0    0  502    0  0.00000000000E+00  0.00000000000E+00  0.14893982976E+04  0.14893982976E+04  0.00000000000E+00 0. -1.
         -2   -1    0    0    0  501 -0.00000000000E+00 -0.00000000000E+00 -0.11336298071E+03  0.11336298071E+03  0.00000000000E+00 0.  1.
    9000007    2    1    2  502    0 -0.12800195155E+02 -0.77702350730E+02  0.60152294082E+03  0.72750650340E+03  0.40153999036E+03 0.  0.
    9000005    1    3    3    0    0 -0.43993905223E+02 -0.26979726177E+01  0.63724379315E+03  0.63876708952E+03  0.99999687468E+00 0.  0.
          4    1    3    3  502    0  0.31193710068E+02 -0.75004378112E+02 -0.35720852337E+02  0.88739413879E+02  0.00000000000E+00 0.  1.
   -9000007    1    1    2    0  501  0.12800195155E+02  0.77702350730E+02  0.77451237607E+03  0.87525477490E+03  0.40000000000E+03 0. -1.
<mgrwt>
<rscale>  2 0.40843303E+03</rscale>
<asrwt>0</asrwt>
<pdfrwt beam="1">  1        2 0.22913818E+00 0.40843303E+03</pdfrwt>
<pdfrwt beam="2">  1       -2 0.17440460E-01 0.40843303E+03</pdfrwt>
<totfact> 0.36287869E+02</totfact>
</mgrwt>
</event>
<event>
 6    1  0.9022793E-004  0.5188784E+03  0.7818608E-02  0.1008966E+00
         -2   -1    0    0    0  501 -0.00000000000E+00  0.00000000000E+00  0.14581915723E+03  0.14581915723E+03  0.00000000000E+00 0. -1.
          2   -1    0    0  502    0  0.00000000000E+00 -0.00000000000E+00 -0.21378548271E+04  0.21378548271E+04  0.00000000000E+00 0.  1.
    9000007    2    1    2  502    0  0.26891270935E+03 -0.19129282709E+03 -0.14181696837E+04  0.15102212314E+04  0.40081906765E+03 0.  0.
    9000005    1    3    3    0    0 -0.45148009875E+02  0.40852443889E+02 -0.29473537595E+02  0.67653191939E+02  0.99999687468E+00 0.  0.
          4    1    3    3  502    0  0.31406071922E+03 -0.23214527098E+03 -0.13886961461E+04  0.14425680395E+04  0.00000000000E+00 0.  1.
   -9000007    1    1    2    0  501 -0.26891270935E+03  0.19129282709E+03 -0.57386598611E+03  0.77345275290E+03  0.40000000000E+03 0.  1.
<mgrwt>
<rscale>  2 0.51887836E+03</rscale>
<asrwt>0</asrwt>
<pdfrwt beam="1">  1        2 0.32890074E+00 0.51887836E+03</pdfrwt>
<pdfrwt beam="2">  1       -2 0.22433717E-01 0.51887836E+03</pdfrwt>
<totfact> 0.10335726E+02</totfact>
</mgrwt>
</event>
<event>
 6    1  0.9022793E-004  0.4749466E+03  0.7818608E-02  0.1020533E+00
         -1   -1    0    0    0  501 -0.00000000000E+00  0.00000000000E+00  0.10375430903E+04  0.10375430903E+04  0.00000000000E+00 0. -1.
          1   -1    0    0  502    0  0.00000000000E+00 -0.00000000000E+00 -0.22522805860E+03  0.22522805860E+03  0.00000000000E+00 0.  1.
    9000007    2    1    2  502    0  0.30561481599E+02 -0.25452273177E+03  0.52365346524E+03  0.70685629473E+03  0.39964614924E+03 0.  0.
    9000005    1    3    3    0    0  0.16756326258E+03 -0.28451920467E+03  0.32184675792E+03  0.46110189803E+03  0.99999687468E+00 0.  0.
          4    1    3    3  502    0 -0.13700178098E+03  0.29996472904E+02  0.20180670733E+03  0.24575439670E+03  0.00000000000E+00 0.  1.
   -9000007    1    1    2    0  501 -0.30561481599E+02  0.25452273177E+03  0.28866156649E+03  0.55591485419E+03  0.40000000000E+03 0.  1.
<mgrwt>
<rscale>  2 0.47494663E+03</rscale>
<asrwt>0</asrwt>
<pdfrwt beam="1">  1        1 0.34650471E-01 0.47494663E+03</pdfrwt>
<pdfrwt beam="2">  1       -1 0.15962201E+00 0.47494663E+03</pdfrwt>
<totfact> 0.39374665E+01</totfact>
</mgrwt>
</event>
<event>
 6    1  0.9022793E-004  0.4215321E+03  0.7818608E-02  0.1036569E+00
          1   -1    0    0  502    0  0.00000000000E+00  0.00000000000E+00  0.45390040183E+03  0.45390040183E+03  0.00000000000E+00 0.  1.
         -1   -1    0    0    0  501 -0.00000000000E+00 -0.00000000000E+00 -0.40402951263E+03  0.40402951263E+03  0.00000000000E+00 0. -1.
    9000007    2    1    2  502    0  0.89882374901E+02  0.97664952729E+02 -0.50684684867E+02  0.42465320405E+03  0.40018011210E+03 0.  0.
    9000005    1    3    3    0    0 -0.34905183900E+02  0.19686427884E+02 -0.20649013111E+03  0.21034519616E+03  0.99999687468E+00 0.  0.
          4    1    3    3  502    0  0.12478755880E+03  0.77978524845E+02  0.15580544624E+03  0.21430800789E+03  0.00000000000E+00 0.  1.
   -9000007    1    1    2    0  501 -0.89882374901E+02 -0.97664952729E+02  0.10055557406E+03  0.43327671041E+03  0.40000000000E+03 0.  1.
<mgrwt>
<rscale>  2 0.42153212E+03</rscale>
<asrwt>0</asrwt>
<pdfrwt beam="1">  1        1 0.69830831E-01 0.42153212E+03</pdfrwt>
<pdfrwt beam="2">  1       -1 0.62158387E-01 0.42153212E+03</pdfrwt>
<totfact> 0.13833403E+02</totfact>
</mgrwt>
</event>
<event>
 6    1  0.9022793E-004  0.5121648E+03  0.7818608E-02  0.1010652E+00
         -2   -1    0    0    0  501 -0.00000000000E+00  0.00000000000E+00  0.13357365723E+03  0.13357365723E+03  0.00000000000E+00 0.  1.
          2   -1    0    0  502    0  0.00000000000E+00 -0.00000000000E+00 -0.25358032378E+04  0.25358032378E+04  0.00000000000E+00 0. -1.
    9000007    2    1    2  502    0  0.27942714694E+03  0.15540813361E+03 -0.18351569098E+04  0.19053071126E+04  0.40020381236E+03 0.  0.
    9000005    1    3    3    0    0 -0.77379722692E+00  0.77581459699E+02 -0.12447487817E+04  0.12471647891E+04  0.99999687468E+00 0.  0.
          4    1    3    3  502    0  0.28020094417E+03  0.77826673913E+02 -0.59040812806E+03  0.65814232348E+03  0.00000000000E+00 0.  1.
   -9000007    1    1    2    0  501 -0.27942714694E+03 -0.15540813361E+03 -0.56707267077E+03  0.76406978240E+03  0.40000000000E+03 0.  1.
<mgrwt>
<rscale>  2 0.51216477E+03</rscale>
<asrwt>0</asrwt>
<pdfrwt beam="1">  1        2 0.39012352E+00 0.51216477E+03</pdfrwt>
<pdfrwt beam="2">  1       -2 0.20549796E-01 0.51216477E+03</pdfrwt>
<totfact> 0.72831758E+01</totfact>
</mgrwt>
</event>
<event>
 6    1  0.9022793E-004  0.9882829E+03  0.7818608E-02  0.9321490E-01
         -2   -1    0    0    0  501 -0.00000000000E+00  0.00000000000E+00  0.68149572033E+03  0.68149572033E+03  0.00000000000E+00 0. -1.
          2   -1    0    0  502    0  0.00000000000E+00 -0.00000000000E+00 -0.14509365259E+04  0.14509365259E+04  0.00000000000E+00 0.  1.
    9000007    2    1    2  502    0 -0.90365762269E+03 -0.51157939230E+01 -0.50270126451E+03  0.11088242875E+04  0.40019928635E+03 0.  0.
    9000005    1    3    3    0    0  0.35336342303E+02  0.23998608313E+01  0.12718790296E+02  0.37645504907E+02  0.99999687468E+00 0.  0.
          4    1    3    3  502    0 -0.93899396499E+03 -0.75156547543E+01 -0.51542005480E+03  0.10711787826E+04  0.00000000000E+00 0.  1.
   -9000007    1    1    2    0  501  0.90365762269E+03  0.51157939230E+01 -0.26673954103E+03  0.10236079587E+04  0.40000000000E+03 0. -1.
<mgrwt>
<rscale>  2 0.98828286E+03</rscale>
<asrwt>0</asrwt>
<pdfrwt beam="1">  1        2 0.22322100E+00 0.98828286E+03</pdfrwt>
<pdfrwt beam="2">  1       -2 0.10484550E+00 0.98828286E+03</pdfrwt>
<totfact> 0.99432718E+00</totfact>
</mgrwt>
</event>
<event>
 6    1  0.9022793E-004  0.5739627E+03  0.7818608E-02  0.9960948E-01
         -2   -1    0    0    0  501 -0.00000000000E+00  0.00000000000E+00  0.33536574231E+03  0.33536574231E+03  0.00000000000E+00 0.  1.
          2   -1    0    0  502    0  0.00000000000E+00 -0.00000000000E+00 -0.13247787087E+04  0.13247787087E+04  0.00000000000E+00 0. -1.
    9000007    2    1    2  502    0  0.38188266454E+03  0.15335858711E+03 -0.91679193814E+03  0.10816748845E+04  0.40019979024E+03 0.  0.
    9000005    1    3    3    0    0  0.31918840559E+03  0.25408217111E+03 -0.85625989262E+03  0.94848352207E+03  0.99999687468E+00 0.  0.
          4    1    3    3  502    0  0.62694258945E+02 -0.10072358400E+03 -0.60532045519E+02  0.13319136238E+03  0.00000000000E+00 0.  1.
   -9000007    1    1    2    0  501 -0.38188266454E+03 -0.15335858711E+03 -0.72621028281E+02  0.57846956658E+03  0.40000000000E+03 0.  1.
<mgrwt>
<rscale>  2 0.57396267E+03</rscale>
<asrwt>0</asrwt>
<pdfrwt beam="1">  1        2 0.20381211E+00 0.57396267E+03</pdfrwt>
<pdfrwt beam="2">  1       -2 0.51594730E-01 0.57396267E+03</pdfrwt>
<totfact> 0.58932617E+01</totfact>
</mgrwt>
</event>
<event>
 6    1  0.9022793E-004  0.6730687E+03  0.7818608E-02  0.9764430E-01
         -1   -1    0    0    0  501 -0.00000000000E+00  0.00000000000E+00  0.67704172302E+03  0.67704172302E+03  0.00000000000E+00 0.  1.
          1   -1    0    0  502    0  0.00000000000E+00 -0.00000000000E+00 -0.73098164849E+03  0.73098164849E+03  0.00000000000E+00 0. -1.
    9000007    2    1    2  502    0  0.46934542569E+03 -0.26809387528E+03 -0.23179752900E+03  0.71247122990E+03  0.40215134515E+03 0.  0.
    9000005    1    3    3    0    0  0.13485471459E+03 -0.12632780817E+03  0.10884247895E+03  0.21445790818E+03  0.99999687468E+00 0.  0.
          4    1    3    3  502    0  0.33449071110E+03 -0.14176606711E+03 -0.34064000794E+03  0.49801332172E+03  0.00000000000E+00 0.  1.
   -9000007    1    1    2    0  501 -0.46934542569E+03  0.26809387528E+03  0.17785760353E+03  0.69555214162E+03  0.40000000000E+03 0.  1.
<mgrwt>
<rscale>  2 0.67306871E+03</rscale>
<asrwt>0</asrwt>
<pdfrwt beam="1">  1        1 0.11245872E+00 0.67306871E+03</pdfrwt>
<pdfrwt beam="2">  1       -1 0.10416027E+00 0.67306871E+03</pdfrwt>
<totfact> 0.22902143E+01</totfact>
</mgrwt>
</event>
<event>
 6    1  0.9022793E-004  0.5026504E+03  0.7818608E-02  0.1013089E+00
          1   -1    0    0  502    0  0.00000000000E+00  0.00000000000E+00  0.22735671022E+04  0.22735671022E+04  0.00000000000E+00 0.  1.
         -1   -1    0    0    0  501 -0.00000000000E+00 -0.00000000000E+00 -0.11131941725E+03  0.11131941725E+03  0.00000000000E+00 0. -1.
    9000007    2    1    2  502    0  0.29766342056E+03  0.63194199383E+02  0.10318297665E+04  0.11477763024E+04  0.40015091471E+03 0.  0.
    9000005    1    3    3    0    0  0.22595999057E+03 -0.25753475276E+02  0.18470354211E+03  0.29298047253E+03  0.99999687468E+00 0.  0.
          4    1    3    3  502    0  0.71703429993E+02  0.88947674659E+02  0.84712622441E+03  0.85479582988E+03  0.00000000000E+00 0.  1.
   -9000007    1    1    2    0  501 -0.29766342056E+03 -0.63194199383E+02  0.11304179184E+04  0.12371102170E+04  0.40000000000E+03 0. -1.
<mgrwt>
<rscale>  2 0.50265036E+03</rscale>
<asrwt>0</asrwt>
<pdfrwt beam="1">  1        1 0.34977952E+00 0.50265036E+03</pdfrwt>
<pdfrwt beam="2">  1       -1 0.17126066E-01 0.50265036E+03</pdfrwt>
<totfact> 0.55251418E+01</totfact>
</mgrwt>
</event>
<event>
 6    1  0.9022793E-004  0.4284522E+03  0.7818608E-02  0.1034350E+00
         -1   -1    0    0    0  501 -0.00000000000E+00  0.00000000000E+00  0.30834088084E+03  0.30834088084E+03  0.00000000000E+00 0. -1.
          1   -1    0    0  502    0  0.00000000000E+00 -0.00000000000E+00 -0.17116468835E+04  0.17116468835E+04  0.00000000000E+00 0.  1.
    9000007    2    1    2  502    0  0.11830253329E+03 -0.97386920048E+02  0.11393109019E+03  0.44344467977E+03  0.40022892090E+03 0.  0.
    9000005    1    3    3    0    0  0.17542458583E+03  0.46065422771E+02  0.19727386723E+03  0.26798094554E+03  0.99999687468E+00 0.  0.
          4    1    3    3  502    0 -0.57122052534E+02 -0.14345234282E+03 -0.83342777037E+02  0.17546373423E+03  0.00000000000E+00 0.  1.
   -9000007    1    1    2    0  501 -0.11830253329E+03  0.97386920048E+02 -0.15172370928E+04  0.15765430846E+04  0.40000000000E+03 0.  1.
<mgrwt>
<rscale>  2 0.42845218E+03</rscale>
<asrwt>0</asrwt>
<pdfrwt beam="1">  1        1 0.26333029E+00 0.42845218E+03</pdfrwt>
<pdfrwt beam="2">  1       -1 0.47437059E-01 0.42845218E+03</pdfrwt>
<totfact> 0.22778056E+01</totfact>
</mgrwt>
</event>
<event>
 6    1  0.9022793E-004  0.4113541E+03  0.7818608E-02  0.1039918E+00
         -1   -1    0    0    0  501 -0.00000000000E+00  0.00000000000E+00  0.54849388028E+02  0.54849388028E+02  0.00000000000E+00 0. -1.
          1   -1    0    0  502    0  0.00000000000E+00 -0.00000000000E+00 -0.37282368273E+04  0.37282368273E+04  0.00000000000E+00 0.  1.
    9000007    2    1    2  502    0 -0.18806840479E+02  0.94874744179E+02 -0.10503858156E+04  0.11279981882E+04  0.39964313644E+03 0.  0.
    9000005    1    3    3    0    0  0.16982279152E+03  0.75906523951E+02 -0.75052950815E+03  0.77323807685E+03  0.99999687468E+00 0.  0.
          4    1    3    3  502    0 -0.18862963200E+03  0.18968220228E+02 -0.29985630748E+03  0.35476011132E+03  0.00000000000E+00 0.  1.
   -9000007    1    1    2    0  501  0.18806840479E+02 -0.94874744179E+02 -0.26230016236E+04  0.26550880272E+04  0.40000000000E+03 0.  1.
<mgrwt>
<rscale>  2 0.41135407E+03</rscale>
<asrwt>0</asrwt>
<pdfrwt beam="1">  1        1 0.57357496E+00 0.41135407E+03</pdfrwt>
<pdfrwt beam="2">  1       -1 0.84383665E-02 0.41135407E+03</pdfrwt>
<totfact> 0.15744921E+01</totfact>
</mgrwt>
</event>
<event>
 6    1  0.9022793E-004  0.4515314E+03  0.7818608E-02  0.1027266E+00
         -2   -1    0    0    0  501 -0.00000000000E+00  0.00000000000E+00  0.19196826816E+03  0.19196826816E+03  0.00000000000E+00 0.  1.
          2   -1    0    0  502    0  0.00000000000E+00 -0.00000000000E+00 -0.10969033404E+04  0.10969033404E+04  0.00000000000E+00 0. -1.
    9000007    2    1    2  502    0 -0.10624871975E+03 -0.18025475927E+03 -0.56744145955E+03  0.72523829931E+03  0.40025018687E+03 0.  0.
    9000005    1    3    3    0    0 -0.42909862446E+01 -0.17866821802E+03 -0.59363722636E+03  0.61995717691E+03  0.99999687468E+00 0.  0.
          4    1    3    3  502    0 -0.10195773351E+03 -0.15865412426E+01  0.26195766807E+02  0.10528112240E+03  0.00000000000E+00 0.  1.
   -9000007    1    1    2    0  501  0.10624871975E+03  0.18025475927E+03 -0.33749361271E+03  0.56363330926E+03  0.40000000000E+03 0.  1.
<mgrwt>
<rscale>  2 0.45153145E+03</rscale>
<asrwt>0</asrwt>
<pdfrwt beam="1">  1        2 0.16875436E+00 0.45153145E+03</pdfrwt>
<pdfrwt beam="2">  1       -2 0.29533580E-01 0.45153145E+03</pdfrwt>
<totfact> 0.23845759E+02</totfact>
</mgrwt>
</event>
<event>
 6    1  0.9022793E-004  0.5104735E+03  0.7818608E-02  0.1011081E+00
          3   -1    0    0  502    0  0.00000000000E+00  0.00000000000E+00  0.16298846388E+04  0.16298846388E+04  0.00000000000E+00 0.  1.
         -3   -1    0    0    0  501 -0.00000000000E+00 -0.00000000000E+00 -0.17726755243E+03  0.17726755243E+03  0.00000000000E+00 0. -1.
    9000007    2    1    2  502    0  0.94728262142E+02 -0.30231626382E+03  0.44357616685E+03  0.67643023411E+03  0.40053648873E+03 0.  0.
    9000005    1    3    3    0    0 -0.11775299532E+03  0.55671814400E+01  0.36131910563E+02  0.12330156678E+03  0.99999687468E+00 0.  0.
          4    1    3    3  502    0  0.21248125747E+03 -0.30788344526E+03  0.40744425629E+03  0.55312866733E+03  0.00000000000E+00 0.  1.
   -9000007    1    1    2    0  501 -0.94728262142E+02  0.30231626382E+03  0.10090409195E+04  0.11307219571E+04  0.40000000000E+03 0.  1.
<mgrwt>
<rscale>  2 0.51047352E+03</rscale>
<asrwt>0</asrwt>
<pdfrwt beam="1">  1        3 0.25075147E+00 0.51047352E+03</pdfrwt>
<pdfrwt beam="2">  1       -3 0.27271932E-01 0.51047352E+03</pdfrwt>
<totfact> 0.25496634E+00</totfact>
</mgrwt>
</event>
<event>
 6    1  0.9022793E-004  0.4353716E+03  0.7818608E-02  0.1032176E+00
          1   -1    0    0  502    0  0.00000000000E+00  0.00000000000E+00  0.70180812726E+03  0.70180812726E+03  0.00000000000E+00 0.  1.
         -1   -1    0    0    0  501 -0.00000000000E+00 -0.00000000000E+00 -0.30569120759E+03  0.30569120759E+03  0.00000000000E+00 0. -1.
    9000007    2    1    2  502    0 -0.32092511972E+02  0.16642065398E+03  0.26520619568E+02  0.43712473124E+03  0.40205587175E+03 0.  0.
    9000005    1    3    3    0    0 -0.18424491413E+03 -0.31172388180E+02  0.15165049053E+02  0.18748035864E+03  0.99999687468E+00 0.  0.
          4    1    3    3  502    0  0.15215240216E+03  0.19759304216E+03  0.11355570515E+02  0.24964437260E+03  0.00000000000E+00 0.  1.
   -9000007    1    1    2    0  501  0.32092511972E+02 -0.16642065398E+03  0.36959630010E+03  0.57037460361E+03  0.40000000000E+03 0. -1.
<mgrwt>
<rscale>  2 0.43537160E+03</rscale>
<asrwt>0</asrwt>
<pdfrwt beam="1">  1        1 0.10797048E+00 0.43537160E+03</pdfrwt>
<pdfrwt beam="2">  1       -1 0.47029417E-01 0.43537160E+03</pdfrwt>
<totfact> 0.12781750E+02</totfact>
</mgrwt>
</event>
<event>
 6    1  0.9022793E-004  0.4780607E+03  0.7818608E-02  0.1019670E+00
          1   -1    0    0  502    0  0.00000000000E+00  0.00000000000E+00  0.11942978215E+04  0.11942978215E+04  0.00000000000E+00 0. -1.
         -1   -1    0    0    0  501 -0.00000000000E+00 -0.00000000000E+00 -0.19358442871E+03  0.19358442871E+03  0.00000000000E+00 0.  1.
    9000007    2    1    2  502    0 -0.23063927503E+03 -0.13121103156E+03  0.57265935100E+03  0.74473291088E+03  0.39531957486E+03 0.  0.
    9000005    1    3    3    0    0 -0.12877503778E+03  0.73120020801E+02  0.47295479857E+03  0.49559740645E+03  0.99999687468E+00 0.  0.
          4    1    3    3  502    0 -0.10186423724E+03 -0.20433105236E+03  0.99704552430E+02  0.24913550442E+03  0.00000000000E+00 0.  1.
   -9000007    1    1    2    0  501  0.23063927503E+03  0.13121103156E+03  0.42805404181E+03  0.64314933934E+03  0.40000000000E+03 0. -1.
<mgrwt>
<rscale>  2 0.47806068E+03</rscale>
<asrwt>0</asrwt>
<pdfrwt beam="1">  1        1 0.18373812E+00 0.47806068E+03</pdfrwt>
<pdfrwt beam="2">  1       -1 0.29782220E-01 0.47806068E+03</pdfrwt>
<totfact> 0.11680873E+02</totfact>
</mgrwt>
</event>
<event>
 6    1  0.9022793E-004  0.5146234E+03  0.7818608E-02  0.1010031E+00
          1   -1    0    0  502    0  0.00000000000E+00  0.00000000000E+00  0.20054201983E+04  0.20054201983E+04  0.00000000000E+00 0. -1.
         -1   -1    0    0    0  501 -0.00000000000E+00 -0.00000000000E+00 -0.29949508054E+03  0.29949508054E+03  0.00000000000E+00 0.  1.
    9000007    2    1    2  502    0  0.11737882150E+03 -0.30275810681E+03  0.17142268565E+04  0.17896394519E+04  0.39849139687E+03 0.  0.
    9000005    1    3    3    0    0  0.25686862228E+03 -0.12148168512E+03  0.88963379644E+03  0.93391037080E+03  0.99999687468E+00 0.  0.
          4    1    3    3  502    0 -0.13948980078E+03 -0.18127642169E+03  0.82459306003E+03  0.85572908110E+03  0.00000000000E+00 0.  1.
   -9000007    1    1    2    0  501 -0.11737882150E+03  0.30275810681E+03 -0.83017386959E+01  0.51527582695E+03  0.40000000000E+03 0.  1.
<mgrwt>
<rscale>  2 0.51462343E+03</rscale>
<asrwt>0</asrwt>
<pdfrwt beam="1">  1        1 0.30852618E+00 0.51462343E+03</pdfrwt>
<pdfrwt beam="2">  1       -1 0.46076168E-01 0.51462343E+03</pdfrwt>
<totfact> 0.15070140E+01</totfact>
</mgrwt>
</event>
<event>
 6    1  0.9022793E-004  0.4418090E+03  0.7818608E-02  0.1030193E+00
         -1   -1    0    0    0  501 -0.00000000000E+00  0.00000000000E+00  0.28093919634E+03  0.28093919634E+03  0.00000000000E+00 0. -1.
          1   -1    0    0  502    0  0.00000000000E+00 -0.00000000000E+00 -0.73687612578E+03  0.73687612578E+03  0.00000000000E+00 0.  1.
    9000007    2    1    2  502    0  0.10629671848E+03  0.15330213461E+03 -0.34979923819E+03  0.56387067093E+03  0.40098639586E+03 0.  0.
    9000005    1    3    3    0    0  0.17264507483E+03 -0.61526143190E+02 -0.51605051942E+02  0.19040974119E+03  0.99999687468E+00 0.  0.
          4    1    3    3  502    0 -0.66348356355E+02  0.21482827780E+03 -0.29819418625E+03  0.37346092974E+03  0.00000000000E+00 0.  1.
   -9000007    1    1    2    0  501 -0.10629671848E+03 -0.15330213461E+03 -0.10613769125E+03  0.45394465119E+03  0.40000000000E+03 0.  1.
<mgrwt>
<rscale>  2 0.44180899E+03</rscale>
<asrwt>0</asrwt>
<pdfrwt beam="1">  1        1 0.11336556E+00 0.44180899E+03</pdfrwt>
<pdfrwt beam="2">  1       -1 0.43221416E-01 0.44180899E+03</pdfrwt>
<totfact> 0.13863274E+02</totfact>
</mgrwt>
</event>
<event>
 6    1  0.9022793E-004  0.4288959E+03  0.7818608E-02  0.1034209E+00
          1   -1    0    0  502    0  0.00000000000E+00  0.00000000000E+00  0.11274629358E+04  0.11274629358E+04  0.00000000000E+00 0.  1.
         -1   -1    0    0    0  501 -0.00000000000E+00 -0.00000000000E+00 -0.21449827450E+03  0.21449827450E+03  0.00000000000E+00 0. -1.
    9000007    2    1    2  502    0 -0.15219211315E+03 -0.28111577151E+02  0.78475660125E+03  0.89431178639E+03  0.39999743499E+03 0.  0.
    9000005    1    3    3    0    0  0.27786560697E+02  0.86056492372E+02  0.10251973715E+02  0.91016019434E+02  0.99999687468E+00 0.  0.
          4    1    3    3  502    0 -0.17997867385E+03 -0.11416806952E+03  0.77450462754E+03  0.80329576696E+03  0.00000000000E+00 0.  1.
   -9000007    1    1    2    0  501  0.15219211315E+03  0.28111577151E+02  0.12820806005E+03  0.44764942392E+03  0.40000000000E+03 0. -1.
<mgrwt>
<rscale>  2 0.42889588E+03</rscale>
<asrwt>0</asrwt>
<pdfrwt beam="1">  1        1 0.17345583E+00 0.42889588E+03</pdfrwt>
<pdfrwt beam="2">  1       -1 0.32999735E-01 0.42889588E+03</pdfrwt>
<totfact> 0.10994650E+02</totfact>
</mgrwt>
</event>
<event>
 6    1  0.9022793E-004  0.4223803E+03  0.7818608E-02  0.1036294E+00
         -2   -1    0    0    0  501 -0.00000000000E+00  0.00000000000E+00  0.14107849174E+03  0.14107849174E+03  0.00000000000E+00 0.  1.
          2   -1    0    0  502    0  0.00000000000E+00 -0.00000000000E+00 -0.12740000877E+04  0.12740000877E+04  0.00000000000E+00 0. -1.
    9000007    2    1    2  502    0 -0.11399443008E+03  0.73635207576E+02 -0.62728025230E+03  0.75622347981E+03  0.39997070219E+03 0.  0.
    9000005    1    3    3    0    0 -0.19141843024E+02 -0.16167521327E+03 -0.18582803137E+03  0.24705938957E+03  0.99999687468E+00 0.  0.
          4    1    3    3  502    0 -0.94852587058E+02  0.23531042084E+03 -0.44145222093E+03  0.50916409024E+03  0.00000000000E+00 0.  1.
   -9000007    1    1    2    0  501  0.11399443008E+03 -0.73635207576E+02 -0.50564134363E+03  0.65885509960E+03  0.40000000000E+03 0. -1.
<mgrwt>
<rscale>  2 0.42238034E+03</rscale>
<asrwt>0</asrwt>
<pdfrwt beam="1">  1        2 0.19600001E+00 0.42238034E+03</pdfrwt>
<pdfrwt beam="2">  1       -2 0.21704384E-01 0.42238034E+03</pdfrwt>
<totfact> 0.32729025E+02</totfact>
</mgrwt>
</event>
<event>
 6    1  0.9022793E-004  0.4122736E+03  0.7818608E-02  0.1039611E+00
          2   -1    0    0  502    0  0.00000000000E+00  0.00000000000E+00  0.67914281634E+03  0.67914281634E+03  0.00000000000E+00 0. -1.
         -2   -1    0    0    0  501 -0.00000000000E+00 -0.00000000000E+00 -0.26748170943E+03  0.26748170943E+03  0.00000000000E+00 0.  1.
    9000007    2    1    2  502    0 -0.20088680439E+02 -0.97086053217E+02  0.85848361151E+02  0.42128349168E+03  0.40035057442E+03 0.  0.
    9000005    1    3    3    0    0  0.13454671606E+03 -0.58106917474E+02  0.18307180433E+03  0.23451123255E+03  0.99999687468E+00 0.  0.
          4    1    3    3  502    0 -0.15463539650E+03 -0.38979135743E+02 -0.97223443176E+02  0.18677225912E+03  0.00000000000E+00 0.  1.
   -9000007    1    1    2    0  501  0.20088680439E+02  0.97086053217E+02  0.32581274576E+03  0.52534103410E+03  0.40000000000E+03 0. -1.
<mgrwt>
<rscale>  2 0.41227356E+03</rscale>
<asrwt>0</asrwt>
<pdfrwt beam="1">  1        2 0.10448351E+00 0.41227356E+03</pdfrwt>
<pdfrwt beam="2">  1       -2 0.41151033E-01 0.41227356E+03</pdfrwt>
<totfact> 0.24470105E+02</totfact>
</mgrwt>
</event>
<event>
 6    1  0.9022793E-004  0.4849862E+03  0.7818608E-02  0.1017774E+00
         -2   -1    0    0    0  501 -0.00000000000E+00  0.00000000000E+00  0.12539977505E+03  0.12539977505E+03  0.00000000000E+00 0. -1.
          2   -1    0    0  502    0  0.00000000000E+00 -0.00000000000E+00 -0.20180434104E+04  0.20180434104E+04  0.00000000000E+00 0.  1.
    9000007    2    1    2  502    0  0.27102949521E+03  0.43700642386E+02 -0.66139320345E+03  0.82005950735E+03  0.39961217774E+03 0.  0.
    9000005    1    3    3    0    0  0.23655215872E+03  0.12258032599E+03 -0.15883420764E+03  0.31018085954E+03  0.99999687468E+00 0.  0.
          4    1    3    3  502    0  0.34477336491E+02 -0.78879683603E+02 -0.50255899581E+03  0.50987864781E+03  0.00000000000E+00 0.  1.
   -9000007    1    1    2    0  501 -0.27102949521E+03 -0.43700642386E+02 -0.12312504319E+04  0.13233836781E+04  0.40000000000E+03 0. -1.
<mgrwt>
<rscale>  2 0.48498621E+03</rscale>
<asrwt>0</asrwt>
<pdfrwt beam="1">  1        2 0.31046817E+00 0.48498621E+03</pdfrwt>
<pdfrwt beam="2">  1       -2 0.19292276E-01 0.48498621E+03</pdfrwt>
<totfact> 0.15695287E+02</totfact>
</mgrwt>
</event>
<event>
 6    1  0.9022793E-004  0.4403825E+03  0.7818608E-02  0.1030630E+00
         -2   -1    0    0    0  501 -0.00000000000E+00  0.00000000000E+00  0.24812581625E+03  0.24812581625E+03  0.00000000000E+00 0. -1.
          2   -1    0    0  502    0  0.00000000000E+00 -0.00000000000E+00 -0.80136689238E+03  0.80136689238E+03  0.00000000000E+00 0.  1.
    9000007    2    1    2  502    0  0.62778392684E+02  0.17483302824E+03 -0.35862102391E+03  0.56742976764E+03  0.39857218676E+03 0.  0.
    9000005    1    3    3    0    0 -0.15830267849E+03  0.74445041877E+02 -0.65478339081E+02  0.18678922656E+03  0.99999687468E+00 0.  0.
          4    1    3    3  502    0  0.22108107118E+03  0.10038798636E+03 -0.29314268483E+03  0.38064054107E+03  0.00000000000E+00 0.  1.
   -9000007    1    1    2    0  501 -0.62778392684E+02 -0.17483302824E+03 -0.19462005223E+03  0.48206294099E+03  0.40000000000E+03 0. -1.
<mgrwt>
<rscale>  2 0.44038253E+03</rscale>
<asrwt>0</asrwt>
<pdfrwt beam="1">  1        2 0.12328721E+00 0.44038253E+03</pdfrwt>
<pdfrwt beam="2">  1       -2 0.38173203E-01 0.44038253E+03</pdfrwt>
<totfact> 0.22903514E+02</totfact>
</mgrwt>
</event>
<event>
 6    1  0.9022793E-004  0.4016052E+03  0.7818608E-02  0.1043225E+00
         -2   -1    0    0    0  501 -0.00000000000E+00  0.00000000000E+00  0.31024838373E+03  0.31024838373E+03  0.00000000000E+00 0.  1.
          2   -1    0    0  502    0  0.00000000000E+00 -0.00000000000E+00 -0.73173796615E+03  0.73173796615E+03  0.00000000000E+00 0. -1.
    9000007    2    1    2  502    0  0.33155341515E+02 -0.54506875561E+01  0.69527551797E+02  0.40777281112E+03  0.40039430361E+03 0.  0.
    9000005    1    3    3    0    0 -0.14421910069E+03  0.11566471209E+03  0.53180941863E+02  0.19237122237E+03  0.99999687468E+00 0.  0.
          4    1    3    3  502    0  0.17737444220E+03 -0.12111539965E+03  0.16346609934E+02  0.21540158874E+03  0.00000000000E+00 0.  1.
   -9000007    1    1    2    0  501 -0.33155341515E+02  0.54506875561E+01 -0.49101713421E+03  0.63421353876E+03  0.40000000000E+03 0. -1.
<mgrwt>
<rscale>  2 0.40160517E+03</rscale>
<asrwt>0</asrwt>
<pdfrwt beam="1">  1        2 0.11257507E+00 0.40160517E+03</pdfrwt>
<pdfrwt beam="2">  1       -2 0.47730521E-01 0.40160517E+03</pdfrwt>
<totfact> 0.16672177E+02</totfact>
</mgrwt>
</event>
<event>
 6    1  0.9022793E-004  0.4962143E+03  0.7818608E-02  0.1014772E+00
          2   -1    0    0  502    0  0.00000000000E+00  0.00000000000E+00  0.73251323047E+03  0.73251323047E+03  0.00000000000E+00 0.  1.
         -2   -1    0    0    0  501 -0.00000000000E+00 -0.00000000000E+00 -0.34181272517E+03  0.34181272517E+03  0.00000000000E+00 0. -1.
    9000007    2    1    2  502    0  0.28441765345E+03 -0.76176435709E+02  0.26435260766E+03  0.56182225596E+03  0.39883040903E+03 0.  0.
    9000005    1    3    3    0    0  0.27576955817E+03  0.81474128159E+02  0.44239722224E+02  0.29093819926E+03  0.99999687468E+00 0.  0.
          4    1    3    3  502    0  0.86480952821E+01 -0.15765056387E+03  0.22011288544E+03  0.27088405670E+03  0.00000000000E+00 0.  1.
   -9000007    1    1    2    0  501 -0.28441765345E+03  0.76176435709E+02  0.12634789764E+03  0.51250369968E+03  0.40000000000E+03 0. -1.
<mgrwt>
<rscale>  2 0.49621432E+03</rscale>
<asrwt>0</asrwt>
<pdfrwt beam="1">  1        2 0.11269434E+00 0.49621432E+03</pdfrwt>
<pdfrwt beam="2">  1       -2 0.52586573E-01 0.49621432E+03</pdfrwt>
<totfact> 0.13575021E+02</totfact>
</mgrwt>
</event>
<event>
 6    1  0.9022793E-004  0.4278822E+03  0.7818608E-02  0.1034531E+00
          2   -1    0    0  502    0  0.00000000000E+00  0.00000000000E+00  0.52324100047E+03  0.52324100047E+03  0.00000000000E+00 0.  1.
         -2   -1    0    0    0  501 -0.00000000000E+00 -0.00000000000E+00 -0.49289709146E+03  0.49289709146E+03  0.00000000000E+00 0. -1.
    9000007    2    1    2  502    0  0.91749836193E+02 -0.12151541061E+03  0.28882492331E+03  0.51614162973E+03  0.39974781820E+03 0.  0.
    9000005    1    3    3    0    0  0.17412179099E+03 -0.10504431777E+03 -0.12096352954E+02  0.20371555792E+03  0.99999687468E+00 0.  0.
          4    1    3    3  502    0 -0.82371954793E+02 -0.16471092840E+02  0.30092127627E+03  0.31242607181E+03  0.00000000000E+00 0.  1.
   -9000007    1    1    2    0  501 -0.91749836193E+02  0.12151541061E+03 -0.25848101430E+03  0.49999646220E+03  0.40000000000E+03 0. -1.
<mgrwt>
<rscale>  2 0.42788218E+03</rscale>
<asrwt>0</asrwt>
<pdfrwt beam="1">  1        2 0.80498615E-01 0.42788218E+03</pdfrwt>
<pdfrwt beam="2">  1       -2 0.75830322E-01 0.42788218E+03</pdfrwt>
<totfact> 0.94152677E+01</totfact>
</mgrwt>
</event>
<event>
 6    1  0.9022793E-004  0.7704340E+03  0.7818608E-02  0.9603827E-01
          2   -1    0    0  502    0  0.00000000000E+00  0.00000000000E+00  0.24666722837E+04  0.24666722837E+04  0.00000000000E+00 0.  1.
         -2   -1    0    0    0  501 -0.00000000000E+00 -0.00000000000E+00 -0.24253320094E+03  0.24253320094E+03  0.00000000000E+00 0. -1.
    9000007    2    1    2  502    0 -0.46683041632E+03  0.46441278712E+03  0.99220309415E+03  0.12561823759E+04  0.39989662052E+03 0.  0.
    9000005    1    3    3    0    0 -0.13360830918E+03  0.37087611761E+03  0.35236976618E+03  0.52873975358E+03  0.99999687468E+00 0.  0.
          4    1    3    3  502    0 -0.33322210715E+03  0.93536669507E+02  0.63983332797E+03  0.72744262235E+03  0.00000000000E+00 0.  1.
   -9000007    1    1    2    0  501  0.46683041632E+03 -0.46441278712E+03  0.12319359886E+04  0.14530231087E+04  0.40000000000E+03 0. -1.
<mgrwt>
<rscale>  2 0.77043399E+03</rscale>
<asrwt>0</asrwt>
<pdfrwt beam="1">  1        2 0.37948803E+00 0.77043399E+03</pdfrwt>
<pdfrwt beam="2">  1       -2 0.37312802E-01 0.77043399E+03</pdfrwt>
<totfact> 0.25644725E+01</totfact>
</mgrwt>
</event>
<event>
 6    1  0.9022793E-004  0.6168616E+03  0.7818608E-02  0.9871028E-01
          1   -1    0    0  502    0  0.00000000000E+00  0.00000000000E+00  0.11431366671E+04  0.11431366671E+04  0.00000000000E+00 0. -1.
         -1   -1    0    0    0  501 -0.00000000000E+00 -0.00000000000E+00 -0.33351241824E+03  0.33351241824E+03  0.00000000000E+00 0.  1.
    9000007    2    1    2  502    0 -0.21395015781E+03  0.41830319084E+03  0.43704011425E+03  0.75583623383E+03  0.39941472358E+03 0.  0.
    9000005    1    3    3    0    0 -0.31581741083E+02  0.15978525389E+03  0.40659388496E+03  0.43800493263E+03  0.99999687468E+00 0.  0.
          4    1    3    3  502    0 -0.18236841673E+03  0.25851793695E+03  0.30446229296E+02  0.31783130120E+03  0.00000000000E+00 0.  1.
   -9000007    1    1    2    0  501  0.21395015781E+03 -0.41830319084E+03  0.37258413457E+03  0.72081285146E+03  0.40000000000E+03 0. -1.
<mgrwt>
<rscale>  2 0.61686159E+03</rscale>
<asrwt>0</asrwt>
<pdfrwt beam="1">  1        1 0.17586718E+00 0.61686159E+03</pdfrwt>
<pdfrwt beam="2">  1       -1 0.51309603E-01 0.61686159E+03</pdfrwt>
<totfact> 0.46822707E+01</totfact>
</mgrwt>
</event>
<event>
 6    1  0.9022793E-004  0.7954505E+03  0.7818608E-02  0.9566626E-01
         -1   -1    0    0    0  501 -0.00000000000E+00  0.00000000000E+00  0.13777219874E+04  0.13777219874E+04  0.00000000000E+00 0. -1.
          1   -1    0    0  502    0  0.00000000000E+00 -0.00000000000E+00 -0.12302997980E+04  0.12302997980E+04  0.00000000000E+00 0.  1.
    9000007    2    1    2  502    0 -0.28227867154E+03 -0.62736413154E+03  0.11060147863E+04  0.13621619342E+04  0.39868461921E+03 0.  0.
    9000005    1    3    3    0    0 -0.11655071790E+03 -0.36184116884E+03  0.92622176011E+03  0.10011997055E+04  0.99999687468E+00 0.  0.
          4    1    3    3  502    0 -0.16572795364E+03 -0.26552296270E+03  0.17979302622E+03  0.36096222879E+03  0.00000000000E+00 0.  1.
   -9000007    1    1    2    0  501  0.28227867154E+03  0.62736413154E+03 -0.95859259687E+03  0.12458598512E+04  0.40000000000E+03 0.  1.
<mgrwt>
<rscale>  2 0.79545050E+03</rscale>
<asrwt>0</asrwt>
<pdfrwt beam="1">  1        1 0.18927689E+00 0.79545050E+03</pdfrwt>
<pdfrwt beam="2">  1       -1 0.21195723E+00 0.79545050E+03</pdfrwt>
<totfact> 0.13168160E+00</totfact>
</mgrwt>
</event>
<event>
 6    1  0.9022793E-004  0.4580564E+03  0.7818608E-02  0.1025346E+00
         -2   -1    0    0    0  501 -0.00000000000E+00  0.00000000000E+00  0.56303508311E+03  0.56303508311E+03  0.00000000000E+00 0. -1.
          2   -1    0    0  502    0  0.00000000000E+00 -0.00000000000E+00 -0.37574625258E+03  0.37574625258E+03  0.00000000000E+00 0.  1.
    9000007    2    1    2  502    0  0.16159436210E+03 -0.15283897608E+03  0.51120624331E+02  0.46127293696E+03  0.40085772247E+03 0.  0.
    9000005    1    3    3    0    0  0.63968274551E+02  0.12854622519E+03 -0.41327028728E+02  0.14941551277E+03  0.99999687468E+00 0.  0.
          4    1    3    3  502    0  0.97626087554E+02 -0.28138520127E+03  0.92447653060E+02  0.31185742419E+03  0.00000000000E+00 0.  1.
   -9000007    1    1    2    0  501 -0.16159436210E+03  0.15283897608E+03  0.13616820620E+03  0.47750839873E+03  0.40000000000E+03 0.  1.
<mgrwt>
<rscale>  2 0.45805640E+03</rscale>
<asrwt>0</asrwt>
<pdfrwt beam="1">  1        2 0.57807116E-01 0.45805640E+03</pdfrwt>
<pdfrwt beam="2">  1       -2 0.86620782E-01 0.45805640E+03</pdfrwt>
<totfact> 0.10121548E+02</totfact>
</mgrwt>
</event>
<event>
 6    1  0.9022793E-004  0.4116979E+03  0.7818608E-02  0.1039803E+00
         -2   -1    0    0    0  501 -0.00000000000E+00  0.00000000000E+00  0.59181167351E+03  0.59181167351E+03  0.00000000000E+00 0. -1.
          2   -1    0    0  502    0  0.00000000000E+00 -0.00000000000E+00 -0.37429864912E+03  0.37429864912E+03  0.00000000000E+00 0.  1.
    9000007    2    1    2  502    0 -0.92287365085E+02 -0.28481323020E+02 -0.12528942773E+03  0.43053431057E+03  0.40041754252E+03 0.  0.
    9000005    1    3    3    0    0 -0.18678628278E+03 -0.74480008084E+02 -0.21352308164E+03  0.29330784754E+03  0.99999687468E+00 0.  0.
          4    1    3    3  502    0  0.94498917692E+02  0.45998685064E+02  0.88233653916E+02  0.13722646303E+03  0.00000000000E+00 0.  1.
   -9000007    1    1    2    0  501  0.92287365085E+02  0.28481323020E+02  0.34280245212E+03  0.53557601206E+03  0.40000000000E+03 0. -1.
<mgrwt>
<rscale>  2 0.41169791E+03</rscale>
<asrwt>0</asrwt>
<pdfrwt beam="1">  1        2 0.57584408E-01 0.41169791E+03</pdfrwt>
<pdfrwt beam="2">  1       -2 0.91047950E-01 0.41169791E+03</pdfrwt>
<totfact> 0.91055916E+01</totfact>
</mgrwt>
</event>
<event>
 6    1  0.9022793E-004  0.4392825E+03  0.7818608E-02  0.1030967E+00
          3   -1    0    0  502    0  0.00000000000E+00  0.00000000000E+00  0.15219546562E+03  0.15219546562E+03  0.00000000000E+00 0.  1.
         -3   -1    0    0    0  501 -0.00000000000E+00 -0.00000000000E+00 -0.12717732165E+04  0.12717732165E+04  0.00000000000E+00 0. -1.
    9000007    2    1    2  502    0  0.16949051836E+03  0.65308083364E+02 -0.59903121140E+03  0.74282194219E+03  0.39994232584E+03 0.  0.
    9000005    1    3    3    0    0  0.16185146200E+03  0.19697350143E+01 -0.64447679820E+03  0.66449312940E+03  0.99999687468E+00 0.  0.
          4    1    3    3  502    0  0.76390563596E+01  0.63338348349E+02  0.45445586798E+02  0.78328812790E+02  0.00000000000E+00 0.  1.
   -9000007    1    1    2    0  501 -0.16949051836E+03 -0.65308083364E+02 -0.52054653949E+03  0.68114673995E+03  0.40000000000E+03 0. -1.
<mgrwt>
<rscale>  2 0.43928250E+03</rscale>
<asrwt>0</asrwt>
<pdfrwt beam="1">  1        3 0.23414687E-01 0.43928250E+03</pdfrwt>
<pdfrwt beam="2">  1       -3 0.19565742E+00 0.43928250E+03</pdfrwt>
<totfact> 0.71107764E+00</totfact>
</mgrwt>
</event>
<event>
 6    1  0.9022793E-004  0.4442499E+03  0.7818608E-02  0.1029451E+00
         -2   -1    0    0    0  501 -0.00000000000E+00  0.00000000000E+00  0.26080589336E+03  0.26080589336E+03  0.00000000000E+00 0. -1.
          2   -1    0    0  502    0  0.00000000000E+00 -0.00000000000E+00 -0.89712893380E+03  0.89712893380E+03  0.00000000000E+00 0.  1.
    9000007    2    1    2  502    0  0.13517756094E+03  0.13900143717E+03 -0.88957302320E+02  0.45280815500E+03  0.39940887707E+03 0.  0.
    9000005    1    3    3    0    0 -0.85794550182E+02  0.17668935152E+03  0.30545048836E+02  0.19878086372E+03  0.99999687468E+00 0.  0.
          4    1    3    3  502    0  0.22097211113E+03 -0.37687914347E+02 -0.11950235116E+03  0.25402729128E+03  0.00000000000E+00 0.  1.
   -9000007    1    1    2    0  501 -0.13517756094E+03 -0.13900143717E+03 -0.54736573812E+03  0.70512667215E+03  0.40000000000E+03 0.  1.
<mgrwt>
<rscale>  2 0.44424988E+03</rscale>
<asrwt>0</asrwt>
<pdfrwt beam="1">  1        2 0.13801984E+00 0.44424988E+03</pdfrwt>
<pdfrwt beam="2">  1       -2 0.40123984E-01 0.44424988E+03</pdfrwt>
<totfact> 0.17892518E+02</totfact>
</mgrwt>
</event>
<event>
 6    1  0.9022793E-004  0.4853243E+03  0.7818608E-02  0.1017682E+00
         -1   -1    0    0    0  501 -0.00000000000E+00  0.00000000000E+00  0.16426079577E+03  0.16426079577E+03  0.00000000000E+00 0. -1.
          1   -1    0    0  502    0  0.00000000000E+00 -0.00000000000E+00 -0.15060577892E+04  0.15060577892E+04  0.00000000000E+00 0.  1.
    9000007    2    1    2  502    0 -0.27471969314E+03 -0.75061456686E+01 -0.48815678949E+03  0.68836703332E+03  0.40003108555E+03 0.  0.
    9000005    1    3    3    0    0 -0.25458267570E+02 -0.68080562868E+02  0.52685240481E+02  0.89776505760E+02  0.99999687468E+00 0.  0.
          4    1    3    3  502    0 -0.24926142557E+03  0.60574417200E+02 -0.54084202998E+03  0.59859052756E+03  0.00000000000E+00 0.  1.
   -9000007    1    1    2    0  501  0.27471969314E+03  0.75061456686E+01 -0.85364020389E+03  0.98195155162E+03  0.40000000000E+03 0. -1.
<mgrwt>
<rscale>  2 0.48532431E+03</rscale>
<asrwt>0</asrwt>
<pdfrwt beam="1">  1        1 0.23170120E+00 0.48532431E+03</pdfrwt>
<pdfrwt beam="2">  1       -1 0.25270891E-01 0.48532431E+03</pdfrwt>
<totfact> 0.93981960E+01</totfact>
</mgrwt>
</event>
<event>
 6    1  0.9022793E-004  0.4982874E+03  0.7818608E-02  0.1014227E+00
         -1   -1    0    0    0  501 -0.00000000000E+00  0.00000000000E+00  0.80023120765E+03  0.80023120765E+03  0.00000000000E+00 0.  1.
          1   -1    0    0  502    0  0.00000000000E+00 -0.00000000000E+00 -0.32688287560E+03  0.32688287560E+03  0.00000000000E+00 0. -1.
    9000007    2    1    2  502    0  0.13623484074E+03  0.26032037077E+03  0.11055101887E+03  0.51233890669E+03  0.40489875311E+03 0.  0.
    9000005    1    3    3    0    0  0.60210135051E+02  0.26861046871E+02 -0.14418100834E+03  0.15854317823E+03  0.99999687468E+00 0.  0.
          4    1    3    3  502    0  0.76024705685E+02  0.23345932390E+03  0.25473202721E+03  0.35379572846E+03  0.00000000000E+00 0.  1.
   -9000007    1    1    2    0  501 -0.13623484074E+03 -0.26032037077E+03  0.36279731317E+03  0.61477517656E+03  0.40000000000E+03 0.  1.
<mgrwt>
<rscale>  2 0.49828737E+03</rscale>
<asrwt>0</asrwt>
<pdfrwt beam="1">  1        1 0.50289673E-01 0.49828737E+03</pdfrwt>
<pdfrwt beam="2">  1       -1 0.12311249E+00 0.49828737E+03</pdfrwt>
<totfact> 0.47641273E+01</totfact>
</mgrwt>
</event>
<event>
 6    1  0.9022793E-004  0.4083520E+03  0.7818608E-02  0.1040925E+00
          2   -1    0    0  502    0  0.00000000000E+00  0.00000000000E+00  0.30454802941E+04  0.30454802941E+04  0.00000000000E+00 0.  1.
         -2   -1    0    0    0  501 -0.00000000000E+00 -0.00000000000E+00 -0.56838259291E+02  0.56838259291E+02  0.00000000000E+00 0. -1.
    9000007    2    1    2  502    0 -0.27795705359E+02  0.72162946659E+02  0.17946949766E+04  0.18407759778E+04  0.40192791577E+03 0.  0.
    9000005    1    3    3    0    0  0.94392763321E+02 -0.29417501718E+02  0.10727630321E+03  0.14589238636E+03  0.99999687468E+00 0.  0.
          4    1    3    3  502    0 -0.12218846868E+03  0.10158044838E+03  0.16874186734E+04  0.16948835915E+04  0.00000000000E+00 0.  1.
   -9000007    1    1    2    0  501  0.27795705359E+02 -0.72162946659E+02  0.11939470582E+04  0.12615425756E+04  0.40000000000E+03 0. -1.
<mgrwt>
<rscale>  2 0.40835196E+03</rscale>
<asrwt>0</asrwt>
<pdfrwt beam="1">  1        2 0.46853530E+00 0.40835196E+03</pdfrwt>
<pdfrwt beam="2">  1       -2 0.87443500E-02 0.40835196E+03</pdfrwt>
<totfact> 0.15523606E+02</totfact>
</mgrwt>
</event>
<event>
 6    1  0.9022793E-004  0.5202278E+03  0.7818608E-02  0.1008630E+00
         -1   -1    0    0    0  501 -0.00000000000E+00  0.00000000000E+00  0.19730591610E+03  0.19730591610E+03  0.00000000000E+00 0. -1.
          1   -1    0    0  502    0  0.00000000000E+00 -0.00000000000E+00 -0.14078134526E+04  0.14078134526E+04  0.00000000000E+00 0.  1.
    9000007    2    1    2  502    0  0.31202593425E+03  0.10976557255E+03 -0.73519033171E+03  0.90131889290E+03  0.40306607188E+03 0.  0.
    9000005    1    3    3    0    0 -0.45031628108E+02 -0.89900921827E+02 -0.23172583133E+03  0.25260222520E+03  0.99999687468E+00 0.  0.
          4    1    3    3  502    0  0.35705756236E+03  0.19966649438E+03 -0.50346450038E+03  0.64871666770E+03  0.00000000000E+00 0.  1.
   -9000007    1    1    2    0  501 -0.31202593425E+03 -0.10976557255E+03 -0.47531720477E+03  0.70380047578E+03  0.40000000000E+03 0. -1.
<mgrwt>
<rscale>  2 0.52022783E+03</rscale>
<asrwt>0</asrwt>
<pdfrwt beam="1">  1        1 0.21658669E+00 0.52022783E+03</pdfrwt>
<pdfrwt beam="2">  1       -1 0.30354756E-01 0.52022783E+03</pdfrwt>
<totfact> 0.79690418E+01</totfact>
</mgrwt>
</event>
<event>
 6    1  0.9022793E-004  0.4593495E+03  0.7818608E-02  0.1024970E+00
          1   -1    0    0  502    0  0.00000000000E+00  0.00000000000E+00  0.10120647445E+04  0.10120647445E+04  0.00000000000E+00 0.  1.
         -1   -1    0    0    0  501 -0.00000000000E+00 -0.00000000000E+00 -0.27630215127E+03  0.27630215127E+03  0.00000000000E+00 0. -1.
    9000007    2    1    2  502    0 -0.21892680688E+03  0.55121497319E+02  0.68704466974E+03  0.82647863838E+03  0.40008653470E+03 0.  0.
    9000005    1    3    3    0    0 -0.20202345780E+03  0.15404217212E+03  0.18442000311E+03  0.31393344173E+03  0.99999687468E+00 0.  0.
          4    1    3    3  502    0 -0.16903349087E+02 -0.98920674804E+02  0.50262466663E+03  0.51254519666E+03  0.00000000000E+00 0.  1.
   -9000007    1    1    2    0  501  0.21892680688E+03 -0.55121497319E+02  0.48717923484E+02  0.46188825738E+03  0.40000000000E+03 0. -1.
<mgrwt>
<rscale>  2 0.45934948E+03</rscale>
<asrwt>0</asrwt>
<pdfrwt beam="1">  1        1 0.15570227E+00 0.45934948E+03</pdfrwt>
<pdfrwt beam="2">  1       -1 0.42508024E-01 0.45934948E+03</pdfrwt>
<totfact> 0.84929149E+01</totfact>
</mgrwt>
</event>
<event>
 6    1  0.9022793E-004  0.5090283E+03  0.7818608E-02  0.1011449E+00
         -2   -1    0    0    0  501 -0.00000000000E+00  0.00000000000E+00  0.20469758648E+03  0.20469758648E+03  0.00000000000E+00 0. -1.
          2   -1    0    0  502    0  0.00000000000E+00 -0.00000000000E+00 -0.16224441328E+04  0.16224441328E+04  0.00000000000E+00 0.  1.
    9000007    2    1    2  502    0  0.17008370010E+03 -0.26538364463E+03 -0.28029391473E+03  0.58088515140E+03  0.39938194326E+03 0.  0.
    9000005    1    3    3    0    0 -0.11902140670E+03 -0.16202278780E+03 -0.95931544746E+02  0.22275847972E+03  0.99999687468E+00 0.  0.
          4    1    3    3  502    0  0.28910510679E+03 -0.10336085683E+03 -0.18436236998E+03  0.35812667167E+03  0.00000000000E+00 0.  1.
   -9000007    1    1    2    0  501 -0.17008370010E+03  0.26538364463E+03 -0.11374526316E+04  0.12462565679E+04  0.40000000000E+03 0.  1.
<mgrwt>
<rscale>  2 0.50902828E+03</rscale>
<asrwt>0</asrwt>
<pdfrwt beam="1">  1        2 0.24960678E+00 0.50902828E+03</pdfrwt>
<pdfrwt beam="2">  1       -2 0.31491938E-01 0.50902828E+03</pdfrwt>
<totfact> 0.10625484E+02</totfact>
</mgrwt>
</event>
<event>
 6    1  0.9022793E-004  0.5065741E+03  0.7818608E-02  0.1012077E+00
         -1   -1    0    0    0  501 -0.00000000000E+00  0.00000000000E+00  0.32985678437E+03  0.32985678437E+03  0.00000000000E+00 0.  1.
          1   -1    0    0  502    0  0.00000000000E+00 -0.00000000000E+00 -0.88314807629E+03  0.88314807629E+03  0.00000000000E+00 0. -1.
    9000007    2    1    2  502    0 -0.30482268170E+03  0.61500326325E+02 -0.48591537400E+03  0.70188973494E+03  0.39979531251E+03 0.  0.
    9000005    1    3    3    0    0 -0.36513038767E+03  0.76138713414E+02 -0.22919958136E+03  0.43777934142E+03  0.99999687468E+00 0.  0.
          4    1    3    3  502    0  0.60307705967E+02 -0.14638387090E+02 -0.25671579264E+03  0.26411039353E+03  0.00000000000E+00 0.  1.
   -9000007    1    1    2    0  501  0.30482268170E+03 -0.61500326325E+02 -0.67375917919E+02  0.51111512571E+03  0.40000000000E+03 0.  1.
<mgrwt>
<rscale>  2 0.50657407E+03</rscale>
<asrwt>0</asrwt>
<pdfrwt beam="1">  1        1 0.13586894E+00 0.50657407E+03</pdfrwt>
<pdfrwt beam="2">  1       -1 0.50747198E-01 0.50657407E+03</pdfrwt>
<totfact> 0.76726567E+01</totfact>
</mgrwt>
</event>
<event>
 6    1  0.9022793E-004  0.4085731E+03  0.7818608E-02  0.1040851E+00
          2   -1    0    0  502    0  0.00000000000E+00  0.00000000000E+00  0.18367302887E+04  0.18367302887E+04  0.00000000000E+00 0. -1.
         -2   -1    0    0    0  501 -0.00000000000E+00 -0.00000000000E+00 -0.11076080850E+03  0.11076080850E+03  0.00000000000E+00 0.  1.
    9000007    2    1    2  502    0 -0.75223169314E+02 -0.37340765207E+02  0.45024169157E+03  0.60788882464E+03  0.39969786632E+03 0.  0.
    9000005    1    3    3    0    0  0.48007787325E+02 -0.17767649976E+03  0.35116555449E+03  0.39647437857E+03  0.99999687468E+00 0.  0.
          4    1    3    3  502    0 -0.12323095664E+03  0.14033573455E+03  0.99076137078E+02  0.21141444606E+03  0.00000000000E+00 0.  1.
   -9000007    1    1    2    0  501  0.75223169314E+02  0.37340765207E+02  0.12757277886E+04  0.13396022725E+04  0.40000000000E+03 0. -1.
<mgrwt>
<rscale>  2 0.40857313E+03</rscale>
<asrwt>0</asrwt>
<pdfrwt beam="1">  1        2 0.28257387E+00 0.40857313E+03</pdfrwt>
<pdfrwt beam="2">  1       -2 0.17040126E-01 0.40857313E+03</pdfrwt>
<totfact> 0.24552257E+02</totfact>
</mgrwt>
</event>
<event>
 6    1  0.9022793E-004  0.4789905E+03  0.7818608E-02  0.1019413E+00
          2   -1    0    0  502    0  0.00000000000E+00  0.00000000000E+00  0.62347680993E+03  0.62347680993E+03  0.00000000000E+00 0. -1.
         -2   -1    0    0    0  501 -0.00000000000E+00 -0.00000000000E+00 -0.36923519341E+03  0.36923519341E+03  0.00000000000E+00 0.  1.
    9000007    2    1    2  502    0  0.21882731982E+03 -0.14707714027E+03  0.15594666216E+03  0.50365272356E+03  0.39978697255E+03 0.  0.
    9000005    1    3    3    0    0  0.15204173102E+03 -0.48852356335E+02  0.28597151742E+03  0.32754228652E+03  0.99999687468E+00 0.  0.
          4    1    3    3  502    0  0.66785588799E+02 -0.98224783930E+02 -0.13002485526E+03  0.17611043704E+03  0.00000000000E+00 0.  1.
   -9000007    1    1    2    0  501 -0.21882731982E+03  0.14707714027E+03  0.98294954368E+02  0.48905927978E+03  0.40000000000E+03 0.  1.
<mgrwt>
<rscale>  2 0.47899048E+03</rscale>
<asrwt>0</asrwt>
<pdfrwt beam="1">  1        2 0.95919509E-01 0.47899048E+03</pdfrwt>
<pdfrwt beam="2">  1       -2 0.56805414E-01 0.47899048E+03</pdfrwt>
<totfact> 0.14144551E+02</totfact>
</mgrwt>
</event>
<event>
 6    1  0.9022793E-004  0.4123371E+03  0.7818608E-02  0.1039590E+00
          2   -1    0    0  502    0  0.00000000000E+00  0.00000000000E+00  0.10174912085E+04  0.10174912085E+04  0.00000000000E+00 0. -1.
         -2   -1    0    0    0  501 -0.00000000000E+00 -0.00000000000E+00 -0.16710409336E+03  0.16710409336E+03  0.00000000000E+00 0.  1.
    9000007    2    1    2  502    0  0.95208374857E+02  0.47770645520E+01  0.42914274225E+03  0.59592368145E+03  0.40233578749E+03 0.  0.
    9000005    1    3    3    0    0  0.24078600921E+03 -0.23568716158E+01  0.36361286972E+03  0.43611784657E+03  0.99999687468E+00 0.  0.
          4    1    3    3  502    0 -0.14557763435E+03  0.71339361678E+01  0.65529872529E+02  0.15980583488E+03  0.00000000000E+00 0.  1.
   -9000007    1    1    2    0  501 -0.95208374857E+02 -0.47770645520E+01  0.42124437289E+03  0.58867162041E+03  0.40000000000E+03 0. -1.
<mgrwt>
<rscale>  2 0.41233714E+03</rscale>
<asrwt>0</asrwt>
<pdfrwt beam="1">  1        2 0.15653711E+00 0.41233714E+03</pdfrwt>
<pdfrwt beam="2">  1       -2 0.25708323E-01 0.41233714E+03</pdfrwt>
<totfact> 0.34410189E+02</totfact>
</mgrwt>
</event>
<event>
 6    1  0.9022793E-004  0.6762635E+03  0.7818608E-02  0.9758709E-01
          2   -1    0    0  502    0  0.00000000000E+00  0.00000000000E+00  0.17382647298E+04  0.17382647298E+04  0.00000000000E+00 0.  1.
         -2   -1    0    0    0  501 -0.00000000000E+00 -0.00000000000E+00 -0.26337659879E+03  0.26337659879E+03  0.00000000000E+00 0. -1.
    9000007    2    1    2  502    0  0.51917432160E+03  0.16347277252E+03  0.70571795852E+03  0.97797728320E+03  0.40266165190E+03 0.  0.
    9000005    1    3    3    0    0  0.38637947220E+03  0.29285003099E+03  0.44517941271E+03  0.65820661398E+03  0.99999687468E+00 0.  0.
          4    1    3    3  502    0  0.13279484940E+03 -0.12937725848E+03  0.26053854581E+03  0.31977066922E+03  0.00000000000E+00 0.  1.
   -9000007    1    1    2    0  501 -0.51917432160E+03 -0.16347277252E+03  0.76917017244E+03  0.10236640453E+04  0.40000000000E+03 0.  1.
<mgrwt>
<rscale>  2 0.67626347E+03</rscale>
<asrwt>0</asrwt>
<pdfrwt beam="1">  1        2 0.26742534E+00 0.67626347E+03</pdfrwt>
<pdfrwt beam="2">  1       -2 0.40519478E-01 0.67626347E+03</pdfrwt>
<totfact> 0.55658832E+01</totfact>
</mgrwt>
</event>
<event>
 6    1  0.9022793E-004  0.4262035E+03  0.7818608E-02  0.1035066E+00
          2   -1    0    0  502    0  0.00000000000E+00  0.00000000000E+00  0.64172153207E+03  0.64172153207E+03  0.00000000000E+00 0. -1.
         -2   -1    0    0    0  501 -0.00000000000E+00 -0.00000000000E+00 -0.34704801413E+03  0.34704801413E+03  0.00000000000E+00 0.  1.
    9000007    2    1    2  502    0  0.10583653827E+03 -0.10495944102E+03  0.35942309141E+03  0.55701688048E+03  0.39857871168E+03 0.  0.
    9000005    1    3    3    0    0  0.13517781499E+03 -0.81587200177E+02  0.44035901314E+03  0.46781040320E+03  0.99999687468E+00 0.  0.
          4    1    3    3  502    0 -0.29341276716E+02 -0.23372240845E+02 -0.80935921732E+02  0.89206477276E+02  0.00000000000E+00 0.  1.
   -9000007    1    1    2    0  501 -0.10583653827E+03  0.10495944102E+03 -0.64749573465E+02  0.43175266572E+03  0.40000000000E+03 0.  1.
<mgrwt>
<rscale>  2 0.42620355E+03</rscale>
<asrwt>0</asrwt>
<pdfrwt beam="1">  1        2 0.98726389E-01 0.42620355E+03</pdfrwt>
<pdfrwt beam="2">  1       -2 0.53392002E-01 0.42620355E+03</pdfrwt>
<totfact> 0.15588606E+02</totfact>
</mgrwt>
</event>
<event>
 6    1  0.9022793E-004  0.5048582E+03  0.7818608E-02  0.1012519E+00
         -2   -1    0    0    0  501 -0.00000000000E+00  0.00000000000E+00  0.89957305126E+02  0.89957305126E+02  0.00000000000E+00 0.  1.
          2   -1    0    0  502    0  0.00000000000E+00 -0.00000000000E+00 -0.30390747835E+04  0.30390747835E+04  0.00000000000E+00 0. -1.
    9000007    2    1    2  502    0 -0.14193684279E+03 -0.27431402249E+03 -0.18802155670E+04  0.19466846158E+04  0.39871815216E+03 0.  0.
    9000005    1    3    3    0    0  0.77820408997E+02  0.63576727206E+02 -0.33342384068E+03  0.34823910439E+03  0.99999687468E+00 0.  0.
          4    1    3    3  502    0 -0.21975725178E+03 -0.33789074970E+03 -0.15467917263E+04  0.15984455115E+04  0.00000000000E+00 0.  1.
   -9000007    1    1    2    0  501  0.14193684279E+03  0.27431402249E+03 -0.10689019113E+04  0.11823474728E+04  0.40000000000E+03 0.  1.
<mgrwt>
<rscale>  2 0.50485822E+03</rscale>
<asrwt>0</asrwt>
<pdfrwt beam="1">  1        2 0.46754987E+00 0.50485822E+03</pdfrwt>
<pdfrwt beam="2">  1       -2 0.13839588E-01 0.50485822E+03</pdfrwt>
<totfact> 0.72681425E+01</totfact>
</mgrwt>
</event>
<event>
 6    1  0.9022793E-004  0.5238673E+03  0.7818608E-02  0.1007730E+00
         -1   -1    0    0    0  501 -0.00000000000E+00  0.00000000000E+00  0.17437759160E+04  0.17437759160E+04  0.00000000000E+00 0.  1.
          1   -1    0    0  502    0  0.00000000000E+00 -0.00000000000E+00 -0.17214073153E+03  0.17214073153E+03  0.00000000000E+00 0. -1.
    9000007    2    1    2  502    0  0.28562571695E+03 -0.18157286722E+03  0.10661769560E+04  0.11878790269E+04  0.39971555487E+03 0.  0.
    9000005    1    3    3    0    0  0.28181112450E+03 -0.22325662729E+03  0.10842360978E+04  0.11422915334E+04  0.99999687468E+00 0.  0.
          4    1    3    3  502    0  0.38145924493E+01  0.41683760066E+02 -0.18059141751E+02  0.45587493565E+02  0.00000000000E+00 0.  1.
   -9000007    1    1    2    0  501 -0.28562571695E+03  0.18157286722E+03  0.50545822845E+03  0.72803762060E+03  0.40000000000E+03 0.  1.
<mgrwt>
<rscale>  2 0.52386734E+03</rscale>
<asrwt>0</asrwt>
<pdfrwt beam="1">  1        1 0.26483191E-01 0.52386734E+03</pdfrwt>
<pdfrwt beam="2">  1       -1 0.26827321E+00 0.52386734E+03</pdfrwt>
<totfact> 0.10277667E+01</totfact>
</mgrwt>
</event>
<event>
 6    1  0.9022793E-004  0.4103984E+03  0.7818608E-02  0.1040237E+00
         -2   -1    0    0    0  501 -0.00000000000E+00  0.00000000000E+00  0.92886986386E+02  0.92886986386E+02  0.00000000000E+00 0.  1.
          2   -1    0    0  502    0  0.00000000000E+00 -0.00000000000E+00 -0.18159337151E+04  0.18159337151E+04  0.00000000000E+00 0. -1.
    9000007    2    1    2  502    0 -0.52700488569E+02  0.72792753610E+02 -0.82570489836E+03  0.92226178942E+03  0.40087666754E+03 0.  0.
    9000005    1    3    3    0    0 -0.18346731829E+03 -0.13567110035E+02 -0.69271294404E+03  0.71672627006E+03  0.99999687468E+00 0.  0.
          4    1    3    3  502    0  0.13076682973E+03  0.86359863645E+02 -0.13299195432E+03  0.20553551936E+03  0.00000000000E+00 0.  1.
   -9000007    1    1    2    0  501  0.52700488569E+02 -0.72792753610E+02 -0.89734183034E+03  0.98655891205E+03  0.40000000000E+03 0.  1.
<mgrwt>
<rscale>  2 0.41039836E+03</rscale>
<asrwt>0</asrwt>
<pdfrwt beam="1">  1        2 0.27937441E+00 0.41039836E+03</pdfrwt>
<pdfrwt beam="2">  1       -2 0.14290306E-01 0.41039836E+03</pdfrwt>
<totfact> 0.33846321E+02</totfact>
</mgrwt>
</event>
<event>
 6    1  0.9022793E-004  0.5903191E+03  0.7818608E-02  0.9925697E-01
          1   -1    0    0  502    0  0.00000000000E+00  0.00000000000E+00  0.11300935117E+04  0.11300935117E+04  0.00000000000E+00 0. -1.
         -1   -1    0    0    0  501 -0.00000000000E+00 -0.00000000000E+00 -0.30948134650E+03  0.30948134650E+03  0.00000000000E+00 0.  1.
    9000007    2    1    2  502    0  0.10312974733E+03 -0.42136431403E+03  0.36716883736E+03  0.69540116779E+03  0.40073207896E+03 0.  0.
    9000005    1    3    3    0    0  0.19080973769E+03 -0.37310227337E+03  0.41024197602E+03  0.58644108082E+03  0.99999687468E+00 0.  0.
          4    1    3    3  502    0 -0.87679990366E+02 -0.48262040655E+02 -0.43073138653E+02  0.10896008697E+03  0.00000000000E+00 0.  1.
   -9000007    1    1    2    0  501 -0.10312974733E+03  0.42136431403E+03  0.45344332782E+03  0.74417369038E+03  0.40000000000E+03 0.  1.
<mgrwt>
<rscale>  2 0.59031907E+03</rscale>
<asrwt>0</asrwt>
<pdfrwt beam="1">  1        1 0.17386054E+00 0.59031907E+03</pdfrwt>
<pdfrwt beam="2">  1       -1 0.47612516E-01 0.59031907E+03</pdfrwt>
<totfact> 0.55283639E+01</totfact>
</mgrwt>
</event>
<event>
 6    1  0.9022793E-004  0.4097475E+03  0.7818608E-02  0.1040456E+00
         -2   -1    0    0    0  501 -0.00000000000E+00  0.00000000000E+00  0.13045723833E+03  0.13045723833E+03  0.00000000000E+00 0. -1.
          2   -1    0    0  502    0  0.00000000000E+00 -0.00000000000E+00 -0.14542959751E+04  0.14542959751E+04  0.00000000000E+00 0.  1.
    9000007    2    1    2  502    0 -0.60862921009E+02 -0.64717988334E+02 -0.93070333296E+03  0.10169080242E+04  0.40000065321E+03 0.  0.
    9000005    1    3    3    0    0 -0.53617088937E+02  0.68619255062E+02 -0.11254018482E+02  0.87812569243E+02  0.99999687468E+00 0.  0.
          4    1    3    3  502    0 -0.72458320727E+01 -0.13333724340E+03 -0.91944931448E+03  0.92909545498E+03  0.00000000000E+00 0.  1.
   -9000007    1    1    2    0  501  0.60862921009E+02  0.64717988334E+02 -0.39313540378E+03  0.56784518918E+03  0.40000000000E+03 0. -1.
<mgrwt>
<rscale>  2 0.40974745E+03</rscale>
<asrwt>0</asrwt>
<pdfrwt beam="1">  1        2 0.22373785E+00 0.40974745E+03</pdfrwt>
<pdfrwt beam="2">  1       -2 0.20070344E-01 0.40974745E+03</pdfrwt>
<totfact> 0.29798658E+02</totfact>
</mgrwt>
</event>
<event>
 6    1  0.9022793E-004  0.7278776E+03  0.7818608E-02  0.9670711E-01
         -1   -1    0    0    0  501 -0.00000000000E+00  0.00000000000E+00  0.24701681109E+03  0.24701681109E+03  0.00000000000E+00 0. -1.
          1   -1    0    0  502    0  0.00000000000E+00 -0.00000000000E+00 -0.22182151418E+04  0.22182151418E+04  0.00000000000E+00 0.  1.
    9000007    2    1    2  502    0  0.60043568920E+03 -0.98007337115E+02 -0.12095256947E+04  0.14115367126E+04  0.39919297319E+03 0.  0.
    9000005    1    3    3    0    0  0.90689537169E+02  0.11713203222E+03 -0.43616320845E+03  0.46063418189E+03  0.99999687468E+00 0.  0.
          4    1    3    3  502    0  0.50974615203E+03 -0.21513936934E+03 -0.77336248623E+03  0.95090253068E+03  0.00000000000E+00 0.  1.
   -9000007    1    1    2    0  501 -0.60043568920E+03  0.98007337115E+02 -0.76167263602E+03  0.10536952403E+04  0.40000000000E+03 0. -1.
<mgrwt>
<rscale>  2 0.72787765E+03</rscale>
<asrwt>0</asrwt>
<pdfrwt beam="1">  1        1 0.34126387E+00 0.72787765E+03</pdfrwt>
<pdfrwt beam="2">  1       -1 0.38002586E-01 0.72787765E+03</pdfrwt>
<totfact> 0.14861905E+01</totfact>
</mgrwt>
</event>
<event>
 6    1  0.9022793E-004  0.6955105E+03  0.7818608E-02  0.9724941E-01
          2   -1    0    0  502    0  0.00000000000E+00  0.00000000000E+00  0.19500920974E+04  0.19500920974E+04  0.00000000000E+00 0.  1.
         -2   -1    0    0    0  501 -0.00000000000E+00 -0.00000000000E+00 -0.24971221166E+03  0.24971221166E+03  0.00000000000E+00 0. -1.
    9000007    2    1    2  502    0  0.55085890662E+03  0.13961179766E+03  0.94041885690E+03  0.11700093031E+04  0.40199148472E+03 0.  0.
    9000005    1    3    3    0    0  0.50770155379E+03  0.17679040924E+03  0.96758146299E+03  0.11069013524E+04  0.99999687468E+00 0.  0.
          4    1    3    3  502    0  0.43157352827E+02 -0.37178611577E+02 -0.27162606090E+02  0.63107950619E+02  0.00000000000E+00 0.  1.
   -9000007    1    1    2    0  501 -0.55085890662E+03 -0.13961179766E+03  0.75996102883E+03  0.10297950060E+04  0.40000000000E+03 0.  1.
<mgrwt>
<rscale>  2 0.69551054E+03</rscale>
<asrwt>0</asrwt>
<pdfrwt beam="1">  1        2 0.30001416E+00 0.69551054E+03</pdfrwt>
<pdfrwt beam="2">  1       -2 0.38417265E-01 0.69551054E+03</pdfrwt>
<totfact> 0.47235285E+01</totfact>
</mgrwt>
</event>
<event>
 6    1  0.9022793E-004  0.4443957E+03  0.7818608E-02  0.1029407E+00
         -1   -1    0    0    0  501 -0.00000000000E+00  0.00000000000E+00  0.25240094601E+03  0.25240094601E+03  0.00000000000E+00 0. -1.
          1   -1    0    0  502    0  0.00000000000E+00 -0.00000000000E+00 -0.90360059514E+03  0.90360059514E+03  0.00000000000E+00 0.  1.
    9000007    2    1    2  502    0 -0.19000863291E+03 -0.33222123199E+02 -0.53745466847E+03  0.69758588841E+03  0.40070133640E+03 0.  0.
    9000005    1    3    3    0    0 -0.24730895160E+03  0.54146435364E+02 -0.14562189177E+03  0.29206213270E+03  0.99999687468E+00 0.  0.
          4    1    3    3  502    0  0.57300318684E+02 -0.87368558563E+02 -0.39183277670E+03  0.40552375571E+03  0.00000000000E+00 0.  1.
   -9000007    1    1    2    0  501  0.19000863291E+03  0.33222123199E+02 -0.11374498066E+03  0.45841565274E+03  0.40000000000E+03 0. -1.
<mgrwt>
<rscale>  2 0.44439574E+03</rscale>
<asrwt>0</asrwt>
<pdfrwt beam="1">  1        1 0.13901548E+00 0.44439574E+03</pdfrwt>
<pdfrwt beam="2">  1       -1 0.38830915E-01 0.44439574E+03</pdfrwt>
<totfact> 0.12171652E+02</totfact>
</mgrwt>
</event>
<event>
 6    1  0.9022793E-004  0.5511759E+03  0.7818608E-02  0.1001222E+00
          2   -1    0    0  502    0  0.00000000000E+00  0.00000000000E+00  0.72532996734E+03  0.72532996734E+03  0.00000000000E+00 0.  1.
         -2   -1    0    0    0  501 -0.00000000000E+00 -0.00000000000E+00 -0.54143054783E+03  0.54143054783E+03  0.00000000000E+00 0. -1.
    9000007    2    1    2  502    0 -0.98647764995E+02  0.36658823095E+03  0.39330067172E+03  0.67687307079E+03  0.39919096054E+03 0.  0.
    9000005    1    3    3    0    0 -0.43732260760E+02 -0.84835445275E+02  0.81307239955E+02  0.12538512938E+03  0.99999687468E+00 0.  0.
          4    1    3    3  502    0 -0.54915504235E+02  0.45142367623E+03  0.31199343176E+03  0.55148794141E+03  0.00000000000E+00 0.  1.
   -9000007    1    1    2    0  501  0.98647764995E+02 -0.36658823095E+03 -0.20940125220E+03  0.58988744438E+03  0.40000000000E+03 0. -1.
<mgrwt>
<rscale>  2 0.55117588E+03</rscale>
<asrwt>0</asrwt>
<pdfrwt beam="1">  1        2 0.11158923E+00 0.55117588E+03</pdfrwt>
<pdfrwt beam="2">  1       -2 0.83297008E-01 0.55117588E+03</pdfrwt>
<totfact> 0.50933111E+01</totfact>
</mgrwt>
</event>
<event>
 6    1  0.9022793E-004  0.5323756E+03  0.7818608E-02  0.1005658E+00
         -1   -1    0    0    0  501 -0.00000000000E+00  0.00000000000E+00  0.59179828133E+03  0.59179828133E+03  0.00000000000E+00 0.  1.
          1   -1    0    0  502    0  0.00000000000E+00 -0.00000000000E+00 -0.48490710913E+03  0.48490710913E+03  0.00000000000E+00 0. -1.
    9000007    2    1    2  502    0 -0.48570344646E+00 -0.35134677300E+03  0.11326531763E+03  0.54427190115E+03  0.39994759582E+03 0.  0.
    9000005    1    3    3    0    0  0.19831142969E+02 -0.37351014528E+03 -0.50802551642E+02  0.37747185605E+03  0.99999687468E+00 0.  0.
          4    1    3    3  502    0 -0.20316846416E+02  0.22163372285E+02  0.16406786927E+03  0.16680004511E+03  0.00000000000E+00 0.  1.
   -9000007    1    1    2    0  501  0.48570344646E+00  0.35134677300E+03 -0.63741454304E+01  0.53243348931E+03  0.40000000000E+03 0. -1.
<mgrwt>
<rscale>  2 0.53237565E+03</rscale>
<asrwt>0</asrwt>
<pdfrwt beam="1">  1        1 0.74601094E-01 0.53237565E+03</pdfrwt>
<pdfrwt beam="2">  1       -1 0.91045889E-01 0.53237565E+03</pdfrwt>
<totfact> 0.56736714E+01</totfact>
</mgrwt>
</event>
<event>
 6    1  0.9022793E-004  0.4309153E+03  0.7818608E-02  0.1033571E+00
          1   -1    0    0  502    0  0.00000000000E+00  0.00000000000E+00  0.15319750887E+04  0.15319750887E+04  0.00000000000E+00 0.  1.
         -1   -1    0    0    0  501 -0.00000000000E+00 -0.00000000000E+00 -0.14304887498E+03  0.14304887498E+03  0.00000000000E+00 0. -1.
    9000007    2    1    2  502    0 -0.67472323313E+02  0.14535208086E+03  0.10217274711E+04  0.11088838234E+04  0.40002070801E+03 0.  0.
    9000005    1    3    3    0    0 -0.74157489217E+02 -0.72747655341E+02  0.76470731886E+03  0.77173171379E+03  0.99999687468E+00 0.  0.
          4    1    3    3  502    0  0.66851659044E+01  0.21809973620E+03  0.25702015225E+03  0.33715210964E+03  0.00000000000E+00 0.  1.
   -9000007    1    1    2    0  501  0.67472323313E+02 -0.14535208086E+03  0.36719874262E+03  0.56614014025E+03  0.40000000000E+03 0. -1.
<mgrwt>
<rscale>  2 0.43091533E+03</rscale>
<asrwt>0</asrwt>
<pdfrwt beam="1">  1        1 0.23568846E+00 0.43091533E+03</pdfrwt>
<pdfrwt beam="2">  1       -1 0.22007520E-01 0.43091533E+03</pdfrwt>
<totfact> 0.11479683E+02</totfact>
</mgrwt>
</event>
<event>
 6    1  0.9022793E-004  0.4197839E+03  0.7818608E-02  0.1037137E+00
          2   -1    0    0  502    0  0.00000000000E+00  0.00000000000E+00  0.10912879502E+04  0.10912879502E+04  0.00000000000E+00 0. -1.
         -2   -1    0    0    0  501 -0.00000000000E+00 -0.00000000000E+00 -0.17619242282E+03  0.17619242282E+03  0.00000000000E+00 0.  1.
    9000007    2    1    2  502    0  0.10501844977E+03  0.74400398487E+02  0.27399236159E+03  0.50094429216E+03  0.39913541004E+03 0.  0.
    9000005    1    3    3    0    0  0.35032219334E+02 -0.62726669406E+02  0.32953472744E+03  0.33727737551E+03  0.99999687468E+00 0.  0.
          4    1    3    3  502    0  0.69986230438E+02  0.13712706789E+03 -0.55542365851E+02  0.16366691664E+03  0.00000000000E+00 0.  1.
   -9000007    1    1    2    0  501 -0.10501844977E+03 -0.74400398487E+02  0.64110316579E+03  0.76653608087E+03  0.40000000000E+03 0. -1.
<mgrwt>
<rscale>  2 0.41978386E+03</rscale>
<asrwt>0</asrwt>
<pdfrwt beam="1">  1        2 0.16789045E+00 0.41978386E+03</pdfrwt>
<pdfrwt beam="2">  1       -2 0.27106527E-01 0.41978386E+03</pdfrwt>
<totfact> 0.28180914E+02</totfact>
</mgrwt>
</event>
<event>
 6    1  0.9022793E-004  0.4352996E+03  0.7818608E-02  0.1032199E+00
          2   -1    0    0  502    0  0.00000000000E+00  0.00000000000E+00  0.25793953763E+04  0.25793953763E+04  0.00000000000E+00 0. -1.
         -2   -1    0    0    0  501 -0.00000000000E+00 -0.00000000000E+00 -0.79598840657E+02  0.79598840657E+02  0.00000000000E+00 0.  1.
    9000007    2    1    2  502    0  0.80650237724E+02  0.15215021305E+03  0.16185595297E+04  0.16760227988E+04  0.39957893201E+03 0.  0.
    9000005    1    3    3    0    0  0.20362917904E+03  0.21494065153E+03  0.11538616969E+04  0.11912439473E+04  0.99999687468E+00 0.  0.
          4    1    3    3  502    0 -0.12297894132E+03 -0.62790438483E+02  0.46469783272E+03  0.48477885155E+03  0.00000000000E+00 0.  1.
   -9000007    1    1    2    0  501 -0.80650237724E+02 -0.15215021305E+03  0.88123700598E+03  0.98297141814E+03  0.40000000000E+03 0.  1.
<mgrwt>
<rscale>  2 0.43529959E+03</rscale>
<asrwt>0</asrwt>
<pdfrwt beam="1">  1        2 0.39682999E+00 0.43529959E+03</pdfrwt>
<pdfrwt beam="2">  1       -2 0.12245977E-01 0.43529959E+03</pdfrwt>
<totfact> 0.16744257E+02</totfact>
</mgrwt>
</event>
<event>
 6    1  0.9022793E-004  0.5516622E+03  0.7818608E-02  0.1001110E+00
         -2   -1    0    0    0  501 -0.00000000000E+00  0.00000000000E+00  0.20768122482E+03  0.20768122482E+03  0.00000000000E+00 0. -1.
          2   -1    0    0  502    0  0.00000000000E+00 -0.00000000000E+00 -0.15397512666E+04  0.15397512666E+04  0.00000000000E+00 0.  1.
    9000007    2    1    2  502    0 -0.25777969713E+03 -0.27906149226E+03 -0.85806574071E+03  0.10201046656E+04  0.40001378070E+03 0.  0.
    9000005    1    3    3    0    0 -0.11687593062E+02 -0.10344106459E+03  0.63957771567E+01  0.10430033382E+03  0.99999687468E+00 0.  0.
          4    1    3    3  502    0 -0.24609210407E+03 -0.17562042767E+03 -0.86446151787E+03  0.91580433182E+03  0.00000000000E+00 0.  1.
   -9000007    1    1    2    0  501  0.25777969713E+03  0.27906149226E+03 -0.47400430107E+03  0.72732782577E+03  0.40000000000E+03 0. -1.
<mgrwt>
<rscale>  2 0.55166222E+03</rscale>
<asrwt>0</asrwt>
<pdfrwt beam="1">  1        2 0.23688482E+00 0.55166222E+03</pdfrwt>
<pdfrwt beam="2">  1       -2 0.31950956E-01 0.55166222E+03</pdfrwt>
<totfact> 0.11412083E+02</totfact>
</mgrwt>
</event>
<event>
 6    1  0.9022793E-004  0.4491638E+03  0.7818608E-02  0.1027972E+00
         -2   -1    0    0    0  501 -0.00000000000E+00  0.00000000000E+00  0.16848130422E+03  0.16848130422E+03  0.00000000000E+00 0. -1.
          2   -1    0    0  502    0  0.00000000000E+00 -0.00000000000E+00 -0.11989065485E+04  0.11989065485E+04  0.00000000000E+00 0.  1.
    9000007    2    1    2  502    0 -0.29099831103E+02 -0.20102625900E+03 -0.49202946705E+03  0.66658233767E+03  0.40122395177E+03 0.  0.
    9000005    1    3    3    0    0 -0.15788235149E+03 -0.15234249319E+03 -0.82278697004E+02  0.23431998659E+03  0.99999687468E+00 0.  0.
          4    1    3    3  502    0  0.12878252039E+03 -0.48683765819E+02 -0.40975077004E+03  0.43226235108E+03  0.00000000000E+00 0.  1.
   -9000007    1    1    2    0  501  0.29099831103E+02  0.20102625900E+03 -0.53839577722E+03  0.70080551503E+03  0.40000000000E+03 0.  1.
<mgrwt>
<rscale>  2 0.44916377E+03</rscale>
<asrwt>0</asrwt>
<pdfrwt beam="1">  1        2 0.18444717E+00 0.44916377E+03</pdfrwt>
<pdfrwt beam="2">  1       -2 0.25920200E-01 0.44916377E+03</pdfrwt>
<totfact> 0.26313900E+02</totfact>
</mgrwt>
</event>
<event>
 6    1  0.9022793E-004  0.4449925E+03  0.7818608E-02  0.1029226E+00
          2   -1    0    0  502    0  0.00000000000E+00  0.00000000000E+00  0.48098649213E+03  0.48098649213E+03  0.00000000000E+00 0. -1.
         -2   -1    0    0    0  501 -0.00000000000E+00 -0.00000000000E+00 -0.41646539484E+03  0.41646539484E+03  0.00000000000E+00 0.  1.
    9000007    2    1    2  502    0 -0.10795511903E+03  0.16213671624E+03  0.80306800617E+02  0.45226449843E+03  0.40018917007E+03 0.  0.
    9000005    1    3    3    0    0  0.44229225324E+02 -0.26603745485E+02  0.18212546824E+03  0.18930047497E+03  0.99999687468E+00 0.  0.
          4    1    3    3  502    0 -0.15218434435E+03  0.18874046172E+03 -0.10181866763E+03  0.26296402346E+03  0.00000000000E+00 0.  1.
   -9000007    1    1    2    0  501  0.10795511903E+03 -0.16213671624E+03 -0.15785703328E+02  0.44518738853E+03  0.40000000000E+03 0.  1.
<mgrwt>
<rscale>  2 0.44499247E+03</rscale>
<asrwt>0</asrwt>
<pdfrwt beam="1">  1        2 0.73997922E-01 0.44499247E+03</pdfrwt>
<pdfrwt beam="2">  1       -2 0.64071599E-01 0.44499247E+03</pdfrwt>
<totfact> 0.14906666E+02</totfact>
</mgrwt>
</event>
<event>
 6    1  0.9022793E-004  0.4047867E+03  0.7818608E-02  0.1042135E+00
          1   -1    0    0  502    0  0.00000000000E+00  0.00000000000E+00  0.14208820389E+04  0.14208820389E+04  0.00000000000E+00 0. -1.
         -1   -1    0    0    0  501 -0.00000000000E+00 -0.00000000000E+00 -0.34597443951E+03  0.34597443951E+03  0.00000000000E+00 0.  1.
    9000007    2    1    2  502    0 -0.47867667878E+02  0.49771868109E+02  0.12582798776E+04  0.13214421265E+04  0.39770905307E+03 0.  0.
    9000005    1    3    3    0    0  0.16260326714E+03  0.19283298099E+02  0.32116762566E+03  0.36050147272E+03  0.99999687468E+00 0.  0.
          4    1    3    3  502    0 -0.21047093502E+03  0.30488570010E+02  0.93711225196E+03  0.96094065382E+03  0.00000000000E+00 0.  1.
   -9000007    1    1    2    0  501  0.47867667878E+02 -0.49771868109E+02 -0.18337227819E+03  0.44541435191E+03  0.40000000000E+03 0.  1.
<mgrwt>
<rscale>  2 0.40478667E+03</rscale>
<asrwt>0</asrwt>
<pdfrwt beam="1">  1        1 0.21859723E+00 0.40478667E+03</pdfrwt>
<pdfrwt beam="2">  1       -1 0.53226838E-01 0.40478667E+03</pdfrwt>
<totfact> 0.28892860E+01</totfact>
</mgrwt>
</event>
<event>
 6    1  0.9022793E-004  0.7055639E+03  0.7818608E-02  0.9707764E-01
         -2   -1    0    0    0  501 -0.00000000000E+00  0.00000000000E+00  0.35407779718E+03  0.35407779718E+03  0.00000000000E+00 0. -1.
          2   -1    0    0  502    0  0.00000000000E+00 -0.00000000000E+00 -0.14779235771E+04  0.14779235771E+04  0.00000000000E+00 0.  1.
    9000007    2    1    2  502    0  0.42745571825E+03  0.39340597516E+03 -0.35997945807E+03  0.79230025859E+03  0.40083392717E+03 0.  0.
    9000005    1    3    3    0    0  0.33592448515E+02  0.29019434577E+03 -0.97984420965E+02  0.30812847589E+03  0.99999687468E+00 0.  0.
          4    1    3    3  502    0  0.39386326973E+03  0.10321162939E+03 -0.26199503711E+03  0.48417178269E+03  0.00000000000E+00 0.  1.
   -9000007    1    1    2    0  501 -0.42745571825E+03 -0.39340597516E+03 -0.76386632187E+03  0.10397011157E+04  0.40000000000E+03 0. -1.
<mgrwt>
<rscale>  2 0.70556393E+03</rscale>
<asrwt>0</asrwt>
<pdfrwt beam="1">  1        2 0.22737285E+00 0.70556393E+03</pdfrwt>
<pdfrwt beam="2">  1       -2 0.54473508E-01 0.70556393E+03</pdfrwt>
<totfact> 0.42556065E+01</totfact>
</mgrwt>
</event>
<event>
 6    1  0.9022793E-004  0.4100484E+03  0.7818608E-02  0.1040355E+00
         -1   -1    0    0    0  501 -0.00000000000E+00  0.00000000000E+00  0.12601769950E+03  0.12601769950E+03  0.00000000000E+00 0. -1.
          1   -1    0    0  502    0  0.00000000000E+00 -0.00000000000E+00 -0.13360347919E+04  0.13360347919E+04  0.00000000000E+00 0.  1.
    9000007    2    1    2  502    0  0.79075740694E+02 -0.44182072371E+02 -0.63157693805E+03  0.75296995710E+03  0.39983659079E+03 0.  0.
    9000005    1    3    3    0    0  0.13703744917E+03  0.90887444556E+02 -0.81374621343E+02  0.18347375574E+03  0.99999687468E+00 0.  0.
          4    1    3    3  502    0 -0.57961708477E+02 -0.13506951693E+03 -0.55020231671E+03  0.56949620136E+03  0.00000000000E+00 0.  1.
   -9000007    1    1    2    0  501 -0.79075740694E+02  0.44182072371E+02 -0.57844015432E+03  0.70908253427E+03  0.40000000000E+03 0. -1.
<mgrwt>
<rscale>  2 0.41004837E+03</rscale>
<asrwt>0</asrwt>
<pdfrwt beam="1">  1        1 0.20554382E+00 0.41004837E+03</pdfrwt>
<pdfrwt beam="2">  1       -1 0.19387338E-01 0.41004837E+03</pdfrwt>
<totfact> 0.19292074E+02</totfact>
</mgrwt>
</event>
<event>
 6    1  0.9022793E-004  0.4040694E+03  0.7818608E-02  0.1042380E+00
         -1   -1    0    0    0  501 -0.00000000000E+00  0.00000000000E+00  0.79003640444E+03  0.79003640444E+03  0.00000000000E+00 0.  1.
          1   -1    0    0  502    0  0.00000000000E+00 -0.00000000000E+00 -0.20673743924E+03  0.20673743924E+03  0.00000000000E+00 0. -1.
    9000007    2    1    2  502    0  0.44417888970E+02  0.40375922147E+02  0.28197243774E+03  0.49239220235E+03  0.39917222015E+03 0.  0.
    9000005    1    3    3    0    0  0.15336281059E+03  0.30258921327E+02  0.33583833225E+03  0.37043776724E+03  0.99999687468E+00 0.  0.
          4    1    3    3  502    0 -0.10894492162E+03  0.10117000820E+02 -0.53865894513E+02  0.12195443512E+03  0.00000000000E+00 0.  1.
   -9000007    1    1    2    0  501 -0.44417888970E+02 -0.40375922147E+02  0.30132652746E+03  0.50438164132E+03  0.40000000000E+03 0.  1.
<mgrwt>
<rscale>  2 0.40406937E+03</rscale>
<asrwt>0</asrwt>
<pdfrwt beam="1">  1        1 0.31805760E-01 0.40406937E+03</pdfrwt>
<pdfrwt beam="2">  1       -1 0.12154406E+00 0.40406937E+03</pdfrwt>
<totfact> 0.89340634E+01</totfact>
</mgrwt>
</event>
<event>
 6    1  0.9022793E-004  0.4647878E+03  0.7818608E-02  0.1023402E+00
         -2   -1    0    0    0  501 -0.00000000000E+00  0.00000000000E+00  0.68348090685E+02  0.68348090685E+02  0.00000000000E+00 0.  1.
          2   -1    0    0  502    0  0.00000000000E+00 -0.00000000000E+00 -0.31660089481E+04  0.31660089481E+04  0.00000000000E+00 0. -1.
    9000007    2    1    2  502    0  0.15781862255E+03  0.17612405581E+03 -0.16154214350E+04  0.16809864758E+04  0.40025331783E+03 0.  0.
    9000005    1    3    3    0    0  0.20635720875E+03  0.15749867565E+03 -0.16075845427E+04  0.16284097127E+04  0.99999687468E+00 0.  0.
          4    1    3    3  502    0 -0.48538586196E+02  0.18625380158E+02 -0.78368922895E+01  0.52576763087E+02  0.00000000000E+00 0.  1.
   -9000007    1    1    2    0  501 -0.15781862255E+03 -0.17612405581E+03 -0.14822394224E+04  0.15533705630E+04  0.40000000000E+03 0.  1.
<mgrwt>
<rscale>  2 0.46478784E+03</rscale>
<asrwt>0</asrwt>
<pdfrwt beam="1">  1        2 0.48707832E+00 0.46478784E+03</pdfrwt>
<pdfrwt beam="2">  1       -2 0.10515090E-01 0.46478784E+03</pdfrwt>
<totfact> 0.96134751E+01</totfact>
</mgrwt>
</event>
<event>
 6    1  0.9022793E-004  0.4709262E+03  0.7818608E-02  0.1021659E+00
          1   -1    0    0  502    0  0.00000000000E+00  0.00000000000E+00  0.15932717988E+04  0.15932717988E+04  0.00000000000E+00 0.  1.
         -1   -1    0    0    0  501 -0.00000000000E+00 -0.00000000000E+00 -0.23505048387E+03  0.23505048387E+03  0.00000000000E+00 0. -1.
    9000007    2    1    2  502    0  0.20150306597E+03 -0.14403493375E+03  0.95704591259E+02  0.48099232113E+03  0.40105448066E+03 0.  0.
    9000005    1    3    3    0    0 -0.91454842924E+02 -0.55989219378E+02  0.13518379320E+03  0.17255271345E+03  0.99999687468E+00 0.  0.
          4    1    3    3  502    0  0.29295790889E+03 -0.88045714370E+02 -0.39479201936E+02  0.30843960768E+03  0.00000000000E+00 0.  1.
   -9000007    1    1    2    0  501 -0.20150306597E+03  0.14403493375E+03  0.12625167236E+04  0.13473299615E+04  0.40000000000E+03 0.  1.
<mgrwt>
<rscale>  2 0.47092621E+03</rscale>
<asrwt>0</asrwt>
<pdfrwt beam="1">  1        1 0.24511873E+00 0.47092621E+03</pdfrwt>
<pdfrwt beam="2">  1       -1 0.36161614E-01 0.47092621E+03</pdfrwt>
<totfact> 0.44261629E+01</totfact>
</mgrwt>
</event>
<event>
 6    1  0.9022793E-004  0.4393493E+03  0.7818608E-02  0.1030947E+00
          1   -1    0    0  502    0  0.00000000000E+00  0.00000000000E+00  0.76781022124E+03  0.76781022124E+03  0.00000000000E+00 0.  1.
         -1   -1    0    0    0  501 -0.00000000000E+00 -0.00000000000E+00 -0.25175176971E+03  0.25175176971E+03  0.00000000000E+00 0. -1.
    9000007    2    1    2  502    0  0.32482864915E+02 -0.17964593105E+03  0.23878932984E+03  0.49974859857E+03  0.39924994761E+03 0.  0.
    9000005    1    3    3    0    0 -0.30978281156E+02 -0.39302069646E+02 -0.10869055305E+03  0.11966178545E+03  0.99999687468E+00 0.  0.
          4    1    3    3  502    0  0.63461146071E+02 -0.14034386140E+03  0.34747988289E+03  0.38008681312E+03  0.00000000000E+00 0.  1.
   -9000007    1    1    2    0  501 -0.32482864915E+02  0.17964593105E+03  0.27726912169E+03  0.51981339238E+03  0.40000000000E+03 0.  1.
<mgrwt>
<rscale>  2 0.43934932E+03</rscale>
<asrwt>0</asrwt>
<pdfrwt beam="1">  1        1 0.11812465E+00 0.43934932E+03</pdfrwt>
<pdfrwt beam="2">  1       -1 0.38731042E-01 0.43934932E+03</pdfrwt>
<totfact> 0.15877477E+02</totfact>
</mgrwt>
</event>
<event>
 6    1  0.9022793E-004  0.4032611E+03  0.7818608E-02  0.1042656E+00
          1   -1    0    0  502    0  0.00000000000E+00  0.00000000000E+00  0.33311423484E+03  0.33311423484E+03  0.00000000000E+00 0.  1.
         -1   -1    0    0    0  501 -0.00000000000E+00 -0.00000000000E+00 -0.49169168001E+03  0.49169168001E+03  0.00000000000E+00 0. -1.
    9000007    2    1    2  502    0  0.47684723870E+02  0.19073263701E+02 -0.11413969499E+03  0.41908145673E+03  0.39995471634E+03 0.  0.
    9000005    1    3    3    0    0 -0.71089978811E+02  0.17806769901E+03 -0.10900125268E+03  0.22055421918E+03  0.99999687468E+00 0.  0.
          4    1    3    3  502    0  0.11877470268E+03 -0.15899443531E+03 -0.51384423083E+01  0.19852723754E+03  0.00000000000E+00 0.  1.
   -9000007    1    1    2    0  501 -0.47684723870E+02 -0.19073263701E+02 -0.44437750186E+02  0.40572445812E+03  0.40000000000E+03 0.  1.
<mgrwt>
<rscale>  2 0.40326109E+03</rscale>
<asrwt>0</asrwt>
<pdfrwt beam="1">  1        1 0.51248344E-01 0.40326109E+03</pdfrwt>
<pdfrwt beam="2">  1       -1 0.75644873E-01 0.40326109E+03</pdfrwt>
<totfact> 0.13967913E+02</totfact>
</mgrwt>
</event>
<event>
 6    1  0.9022793E-004  0.4483071E+03  0.7818608E-02  0.1028228E+00
          1   -1    0    0  502    0  0.00000000000E+00  0.00000000000E+00  0.36164199562E+03  0.36164199562E+03  0.00000000000E+00 0. -1.
         -1   -1    0    0    0  501 -0.00000000000E+00 -0.00000000000E+00 -0.57259699991E+03  0.57259699991E+03  0.00000000000E+00 0.  1.
    9000007    2    1    2  502    0  0.19171244640E+03 -0.62815164691E+02 -0.18569391801E+03  0.48553248845E+03  0.40069958714E+03 0.  0.
    9000005    1    3    3    0    0 -0.93315334719E+02  0.46034125240E+02  0.34100754796E+02  0.10950230067E+03  0.99999687468E+00 0.  0.
          4    1    3    3  502    0  0.28502778112E+03 -0.10884928993E+03 -0.21979467280E+03  0.37603018778E+03  0.00000000000E+00 0.  1.
   -9000007    1    1    2    0  501 -0.19171244640E+03  0.62815164691E+02 -0.25261086275E+02  0.44870650708E+03  0.40000000000E+03 0.  1.
<mgrwt>
<rscale>  2 0.44830714E+03</rscale>
<asrwt>0</asrwt>
<pdfrwt beam="1">  1        1 0.55637231E-01 0.44830714E+03</pdfrwt>
<pdfrwt beam="2">  1       -1 0.88091845E-01 0.44830714E+03</pdfrwt>
<totfact> 0.90646967E+01</totfact>
</mgrwt>
</event>
<event>
 6    1  0.9022793E-004  0.8037536E+03  0.7818608E-02  0.9554600E-01
         -2   -1    0    0    0  501 -0.00000000000E+00  0.00000000000E+00  0.16797625148E+03  0.16797625148E+03  0.00000000000E+00 0. -1.
          2   -1    0    0  502    0  0.00000000000E+00 -0.00000000000E+00 -0.41897714306E+04  0.41897714306E+04  0.00000000000E+00 0.  1.
    9000007    2    1    2  502    0  0.41615188803E+03  0.56073406259E+03 -0.13844250476E+04  0.16003347109E+04  0.39602195858E+03 0.  0.
    9000005    1    3    3    0    0  0.23241537283E+02  0.77000545166E+02  0.18100726638E+01  0.80458246115E+02  0.99999687468E+00 0.  0.
          4    1    3    3  502    0  0.39291035075E+03  0.48373351742E+03 -0.13862351202E+04  0.15198764648E+04  0.00000000000E+00 0.  1.
   -9000007    1    1    2    0  501 -0.41615188803E+03 -0.56073406259E+03 -0.26373701316E+04  0.27574129712E+04  0.40000000000E+03 0.  1.
<mgrwt>
<rscale>  2 0.80375359E+03</rscale>
<asrwt>0</asrwt>
<pdfrwt beam="1">  1        2 0.64458018E+00 0.80375359E+03</pdfrwt>
<pdfrwt beam="2">  1       -2 0.25842502E-01 0.80375359E+03</pdfrwt>
<totfact> 0.35298648E+00</totfact>
</mgrwt>
</event>
<event>
 6    1  0.9022793E-004  0.4820717E+03  0.7818608E-02  0.1018567E+00
         -1   -1    0    0    0  501 -0.00000000000E+00  0.00000000000E+00  0.14886168305E+03  0.14886168305E+03  0.00000000000E+00 0. -1.
          1   -1    0    0  502    0  0.00000000000E+00 -0.00000000000E+00 -0.42956023126E+04  0.42956023126E+04  0.00000000000E+00 0.  1.
    9000007    2    1    2  502    0  0.26286110515E+02  0.26784589242E+03 -0.38463272148E+04  0.38764141726E+04  0.39990175367E+03 0.  0.
    9000005    1    3    3    0    0  0.10567876464E+03  0.32763903735E+03 -0.21695395794E+04  0.21966834835E+04  0.99999687468E+00 0.  0.
          4    1    3    3  502    0 -0.79392654129E+02 -0.59793144927E+02 -0.16767876354E+04  0.16797306892E+04  0.00000000000E+00 0.  1.
   -9000007    1    1    2    0  501 -0.26286110515E+02 -0.26784589242E+03 -0.30041341472E+03  0.56804982302E+03  0.40000000000E+03 0. -1.
<mgrwt>
<rscale>  2 0.48207166E+03</rscale>
<asrwt>0</asrwt>
<pdfrwt beam="1">  1        1 0.66086194E+00 0.48207166E+03</pdfrwt>
<pdfrwt beam="2">  1       -1 0.22901796E-01 0.48207166E+03</pdfrwt>
<totfact> 0.10089016E+00</totfact>
</mgrwt>
</event>
<event>
 6    1  0.9022793E-004  0.4616578E+03  0.7818608E-02  0.1024302E+00
          1   -1    0    0  502    0  0.00000000000E+00  0.00000000000E+00  0.77049116126E+03  0.77049116126E+03  0.00000000000E+00 0.  1.
         -1   -1    0    0    0  501 -0.00000000000E+00 -0.00000000000E+00 -0.34454350337E+03  0.34454350337E+03  0.00000000000E+00 0. -1.
    9000007    2    1    2  502    0  0.14441609445E+03 -0.17943196313E+03  0.46055749942E+03  0.65216353909E+03  0.40019024690E+03 0.  0.
    9000005    1    3    3    0    0 -0.20599134414E+02  0.11151506028E+03  0.53741686938E+02  0.12549542588E+03  0.99999687468E+00 0.  0.
          4    1    3    3  502    0  0.16501522887E+03 -0.29094702341E+03  0.40681581248E+03  0.52666811321E+03  0.00000000000E+00 0.  1.
   -9000007    1    1    2    0  501 -0.14441609445E+03  0.17943196313E+03 -0.34609841525E+02  0.46287112554E+03  0.40000000000E+03 0.  1.
<mgrwt>
<rscale>  2 0.46165782E+03</rscale>
<asrwt>0</asrwt>
<pdfrwt beam="1">  1        1 0.11853710E+00 0.46165782E+03</pdfrwt>
<pdfrwt beam="2">  1       -1 0.53006693E-01 0.46165782E+03</pdfrwt>
<totfact> 0.88365745E+01</totfact>
</mgrwt>
</event>
<event>
 6    1  0.9022793E-004  0.5900983E+03  0.7818608E-02  0.9926165E-01
         -2   -1    0    0    0  501 -0.00000000000E+00  0.00000000000E+00  0.46873559913E+03  0.46873559913E+03  0.00000000000E+00 0.  1.
          2   -1    0    0  502    0  0.00000000000E+00 -0.00000000000E+00 -0.76498600315E+03  0.76498600315E+03  0.00000000000E+00 0. -1.
    9000007    2    1    2  502    0  0.43365449574E+03 -0.14468296473E+02 -0.43262015958E+02  0.59164008271E+03  0.39987602099E+03 0.  0.
    9000005    1    3    3    0    0  0.56115683372E+02  0.55602051997E+02 -0.16985093449E+03  0.18732564706E+03  0.99999687468E+00 0.  0.
          4    1    3    3  502    0  0.37753881237E+03 -0.70070348470E+02  0.12658891853E+03  0.40431443565E+03  0.00000000000E+00 0.  1.
   -9000007    1    1    2    0  501 -0.43365449574E+03  0.14468296473E+02 -0.25298838806E+03  0.64208151957E+03  0.40000000000E+03 0. -1.
<mgrwt>
<rscale>  2 0.59009827E+03</rscale>
<asrwt>0</asrwt>
<pdfrwt beam="1">  1        2 0.11769015E+00 0.59009827E+03</pdfrwt>
<pdfrwt beam="2">  1       -2 0.72113170E-01 0.59009827E+03</pdfrwt>
<totfact> 0.65321575E+01</totfact>
</mgrwt>
</event>
<event>
 6    1  0.9022793E-004  0.4967037E+03  0.7818608E-02  0.1014643E+00
         -1   -1    0    0    0  501 -0.00000000000E+00  0.00000000000E+00  0.47751371164E+03  0.47751371164E+03  0.00000000000E+00 0.  1.
          1   -1    0    0  502    0  0.00000000000E+00 -0.00000000000E+00 -0.66304362208E+03  0.66304362208E+03  0.00000000000E+00 0. -1.
    9000007    2    1    2  502    0 -0.27114079539E+03 -0.11322466366E+03  0.17513010000E+03  0.52703243732E+03  0.40094324121E+03 0.  0.
    9000005    1    3    3    0    0 -0.13517929557E+02 -0.24068706904E+02 -0.12124145522E+03  0.12434841185E+03  0.99999687468E+00 0.  0.
          4    1    3    3  502    0 -0.25762286583E+03 -0.89155956757E+02  0.29637155522E+03  0.40268402547E+03  0.00000000000E+00 0.  1.
   -9000007    1    1    2    0  501  0.27114079539E+03  0.11322466366E+03 -0.36066001043E+03  0.61352489640E+03  0.40000000000E+03 0. -1.
<mgrwt>
<rscale>  2 0.49670374E+03</rscale>
<asrwt>0</asrwt>
<pdfrwt beam="1">  1        1 0.10200671E+00 0.49670374E+03</pdfrwt>
<pdfrwt beam="2">  1       -1 0.73463648E-01 0.49670374E+03</pdfrwt>
<totfact> 0.57904980E+01</totfact>
</mgrwt>
</event>
<event>
 6    1  0.9022793E-004  0.4242606E+03  0.7818608E-02  0.1035688E+00
         -2   -1    0    0    0  501 -0.00000000000E+00  0.00000000000E+00  0.15242500372E+03  0.15242500372E+03  0.00000000000E+00 0. -1.
          2   -1    0    0  502    0  0.00000000000E+00 -0.00000000000E+00 -0.13291515698E+04  0.13291515698E+04  0.00000000000E+00 0.  1.
    9000007    2    1    2  502    0  0.13339626314E+03 -0.46555959387E+02 -0.83582696429E+03  0.93735735402E+03  0.40008758357E+03 0.  0.
    9000005    1    3    3    0    0 -0.12150847368E+03 -0.10735239265E+03 -0.32970156656E+03  0.36741389245E+03  0.99999687468E+00 0.  0.
          4    1    3    3  502    0  0.25490473682E+03  0.60796433261E+02 -0.50612539773E+03  0.56994346157E+03  0.00000000000E+00 0.  1.
   -9000007    1    1    2    0  501 -0.13339626314E+03  0.46555959387E+02 -0.34089960181E+03  0.54421921951E+03  0.40000000000E+03 0. -1.
<mgrwt>
<rscale>  2 0.42426060E+03</rscale>
<asrwt>0</asrwt>
<pdfrwt beam="1">  1        2 0.20448485E+00 0.42426060E+03</pdfrwt>
<pdfrwt beam="2">  1       -2 0.23450001E-01 0.42426060E+03</pdfrwt>
<totfact> 0.26579470E+02</totfact>
</mgrwt>
</event>
<event>
 6    1  0.9022793E-004  0.4490144E+03  0.7818608E-02  0.1028016E+00
          1   -1    0    0  502    0  0.00000000000E+00  0.00000000000E+00  0.88952967541E+03  0.88952967541E+03  0.00000000000E+00 0. -1.
         -1   -1    0    0    0  501 -0.00000000000E+00 -0.00000000000E+00 -0.44914981733E+03  0.44914981733E+03  0.00000000000E+00 0.  1.
    9000007    2    1    2  502    0  0.72607477554E+01  0.20500100037E+03 -0.25103789465E+03  0.51397552318E+03  0.39883917218E+03 0.  0.
    9000005    1    3    3    0    0 -0.18617822120E+02  0.86862302509E+02  0.10524323217E+03  0.13772734227E+03  0.99999687468E+00 0.  0.
          4    1    3    3  502    0  0.25878569876E+02  0.11813869786E+03 -0.35628112682E+03  0.37624818091E+03  0.00000000000E+00 0.  1.
   -9000007    1    1    2    0  501 -0.72607477554E+01 -0.20500100037E+03  0.69141775273E+03  0.82470396955E+03  0.40000000000E+03 0. -1.
<mgrwt>
<rscale>  2 0.44901441E+03</rscale>
<asrwt>0</asrwt>
<pdfrwt beam="1">  1        1 0.13685072E+00 0.44901441E+03</pdfrwt>
<pdfrwt beam="2">  1       -1 0.69099972E-01 0.44901441E+03</pdfrwt>
<totfact> 0.41893870E+01</totfact>
</mgrwt>
</event>
<event>
 6    1  0.9022793E-004  0.4020552E+03  0.7818608E-02  0.1043070E+00
          1   -1    0    0  502    0  0.00000000000E+00  0.00000000000E+00  0.48811101349E+03  0.48811101349E+03  0.00000000000E+00 0. -1.
         -1   -1    0    0    0  501 -0.00000000000E+00 -0.00000000000E+00 -0.33402664577E+03  0.33402664577E+03  0.00000000000E+00 0.  1.
    9000007    2    1    2  502    0 -0.27294118185E+02  0.22633633596E+02  0.11513767974E+03  0.41868494237E+03  0.40097773681E+03 0.  0.
    9000005    1    3    3    0    0 -0.10992727145E+03  0.14534992067E+03  0.18090200539E+03  0.25678228131E+03  0.99999687468E+00 0.  0.
          4    1    3    3  502    0  0.82633153269E+02 -0.12271628707E+03 -0.65764325646E+02  0.16190266106E+03  0.00000000000E+00 0.  1.
   -9000007    1    1    2    0  501  0.27294118185E+02 -0.22633633596E+02  0.38946687975E+02  0.40345271688E+03  0.40000000000E+03 0.  1.
<mgrwt>
<rscale>  2 0.40205516E+03</rscale>
<asrwt>0</asrwt>
<pdfrwt beam="1">  1        1 0.75094002E-01 0.40205516E+03</pdfrwt>
<pdfrwt beam="2">  1       -1 0.51388715E-01 0.40205516E+03</pdfrwt>
<totfact> 0.18128047E+02</totfact>
</mgrwt>
</event>
<event>
 6    1  0.9022793E-004  0.5005060E+03  0.7818608E-02  0.1013647E+00
         -2   -1    0    0    0  501 -0.00000000000E+00  0.00000000000E+00  0.38186562621E+03  0.38186562621E+03  0.00000000000E+00 0.  1.
          2   -1    0    0  502    0  0.00000000000E+00 -0.00000000000E+00 -0.65794445472E+03  0.65794445472E+03  0.00000000000E+00 0. -1.
    9000007    2    1    2  502    0 -0.30068090479E+03 -0.18577270184E+02 -0.10975434836E+03  0.51215682910E+03  0.39938011860E+03 0.  0.
    9000005    1    3    3    0    0 -0.71102682208E+02 -0.11126325308E+03 -0.20752169002E+03  0.24597023138E+03  0.99999687468E+00 0.  0.
          4    1    3    3  502    0 -0.22957822259E+03  0.92685982892E+02  0.97767341663E+02  0.26618659772E+03  0.00000000000E+00 0.  1.
   -9000007    1    1    2    0  501  0.30068090479E+03  0.18577270184E+02 -0.16632448015E+03  0.52765325184E+03  0.40000000000E+03 0. -1.
<mgrwt>
<rscale>  2 0.50050598E+03</rscale>
<asrwt>0</asrwt>
<pdfrwt beam="1">  1        2 0.10122222E+00 0.50050598E+03</pdfrwt>
<pdfrwt beam="2">  1       -2 0.58748559E-01 0.50050598E+03</pdfrwt>
<totfact> 0.12333615E+02</totfact>
</mgrwt>
</event>
<event>
 6    1  0.9022793E-004  0.4002691E+03  0.7818608E-02  0.1043687E+00
         -2   -1    0    0    0  501 -0.00000000000E+00  0.00000000000E+00  0.66480820019E+02  0.66480820019E+02  0.00000000000E+00 0. -1.
          2   -1    0    0  502    0  0.00000000000E+00 -0.00000000000E+00 -0.26617494824E+04  0.26617494824E+04  0.00000000000E+00 0.  1.
    9000007    2    1    2  502    0  0.86572273375E+01  0.81148268935E+01 -0.17174696472E+04  0.17635169206E+04  0.40018638434E+03 0.  0.
    9000005    1    3    3    0    0 -0.16710696882E+03  0.10398743673E+03 -0.73807053722E+03  0.76386336732E+03  0.99999687468E+00 0.  0.
          4    1    3    3  502    0  0.17576419616E+03 -0.95872609838E+02 -0.97939911000E+03  0.99965355331E+03  0.00000000000E+00 0.  1.
   -9000007    1    1    2    0  501 -0.86572273375E+01 -0.81148268935E+01 -0.87779901521E+03  0.96471338184E+03  0.40000000000E+03 0. -1.
<mgrwt>
<rscale>  2 0.40026910E+03</rscale>
<asrwt>0</asrwt>
<pdfrwt beam="1">  1        2 0.40950000E+00 0.40026910E+03</pdfrwt>
<pdfrwt beam="2">  1       -2 0.10227816E-01 0.40026910E+03</pdfrwt>
<totfact> 0.20296168E+02</totfact>
</mgrwt>
</event>
<event>
 6    1  0.9022793E-004  0.7011149E+03  0.7818608E-02  0.9715328E-01
         -2   -1    0    0    0  501 -0.00000000000E+00  0.00000000000E+00  0.58852714269E+03  0.58852714269E+03  0.00000000000E+00 0. -1.
          2   -1    0    0  502    0  0.00000000000E+00 -0.00000000000E+00 -0.12391008842E+04  0.12391008842E+04  0.00000000000E+00 0.  1.
    9000007    2    1    2  502    0 -0.37785253837E+03  0.43415615791E+03  0.19634533330E+03  0.72829366944E+03  0.40074439339E+03 0.  0.
    9000005    1    3    3    0    0 -0.21855815561E+03  0.15488970564E+03  0.28865225404E+03  0.39380148813E+03  0.99999687468E+00 0.  0.
          4    1    3    3  502    0 -0.15929438276E+03  0.27926645227E+03 -0.92306920733E+02  0.33449218131E+03  0.00000000000E+00 0.  1.
   -9000007    1    1    2    0  501  0.37785253837E+03 -0.43415615791E+03 -0.84691907487E+03  0.10993343575E+04  0.40000000000E+03 0.  1.
<mgrwt>
<rscale>  2 0.70111487E+03</rscale>
<asrwt>0</asrwt>
<pdfrwt beam="1">  1        2 0.19063090E+00 0.70111487E+03</pdfrwt>
<pdfrwt beam="2">  1       -2 0.90542638E-01 0.70111487E+03</pdfrwt>
<totfact> 0.19189853E+01</totfact>
</mgrwt>
</event>
<event>
 6    1  0.9022793E-004  0.5163306E+03  0.7818608E-02  0.1009602E+00
          2   -1    0    0  502    0  0.00000000000E+00  0.00000000000E+00  0.27884574123E+04  0.27884574123E+04  0.00000000000E+00 0. -1.
         -2   -1    0    0    0  501 -0.00000000000E+00 -0.00000000000E+00 -0.10549557505E+03  0.10549557505E+03  0.00000000000E+00 0.  1.
    9000007    2    1    2  502    0  0.24992586746E+03  0.20847475941E+03  0.90002245360E+03  0.10379364167E+04  0.40168012610E+03 0.  0.
    9000005    1    3    3    0    0  0.16279446830E+03  0.28119164352E+03  0.85706961354E+03  0.91659156757E+03  0.99999687468E+00 0.  0.
          4    1    3    3  502    0  0.87131399158E+02 -0.72716884108E+02  0.42952840059E+02  0.12134484918E+03  0.00000000000E+00 0.  1.
   -9000007    1    1    2    0  501 -0.24992586746E+03 -0.20847475941E+03  0.17829393837E+04  0.18560165706E+04  0.40000000000E+03 0.  1.
<mgrwt>
<rscale>  2 0.51633059E+03</rscale>
<asrwt>0</asrwt>
<pdfrwt beam="1">  1        2 0.42899339E+00 0.51633059E+03</pdfrwt>
<pdfrwt beam="2">  1       -2 0.16230091E-01 0.51633059E+03</pdfrwt>
<totfact> 0.78252951E+01</totfact>
</mgrwt>
</event>
<event>
 6    1  0.9022793E-004  0.4659861E+03  0.7818608E-02  0.1023059E+00
          2   -1    0    0  502    0  0.00000000000E+00  0.00000000000E+00  0.13466098631E+04  0.13466098631E+04  0.00000000000E+00 0.  1.
         -2   -1    0    0    0  501 -0.00000000000E+00 -0.00000000000E+00 -0.20733880962E+03  0.20733880962E+03  0.00000000000E+00 0. -1.
    9000007    2    1    2  502    0  0.23542813939E+03 -0.39768428109E+02  0.20345713654E+03  0.50859915039E+03  0.40033779822E+03 0.  0.
    9000005    1    3    3    0    0  0.22881404936E+03 -0.16248002271E+03  0.11745609924E+02  0.28088180131E+03  0.99999687468E+00 0.  0.
          4    1    3    3  502    0  0.66140900326E+01  0.12271159460E+03  0.19171152661E+03  0.22771734908E+03  0.00000000000E+00 0.  1.
   -9000007    1    1    2    0  501 -0.23542813939E+03  0.39768428109E+02  0.93581391695E+03  0.10453495223E+04  0.40000000000E+03 0.  1.
<mgrwt>
<rscale>  2 0.46598613E+03</rscale>
<asrwt>0</asrwt>
<pdfrwt beam="1">  1        2 0.20717074E+00 0.46598613E+03</pdfrwt>
<pdfrwt beam="2">  1       -2 0.31898279E-01 0.46598613E+03</pdfrwt>
<totfact> 0.14800674E+02</totfact>
</mgrwt>
</event>
<event>
 6    1  0.9022793E-004  0.5016230E+03  0.7818608E-02  0.1013356E+00
          2   -1    0    0  502    0  0.00000000000E+00  0.00000000000E+00  0.11146504906E+04  0.11146504906E+04  0.00000000000E+00 0. -1.
         -2   -1    0    0    0  501 -0.00000000000E+00 -0.00000000000E+00 -0.34927309311E+03  0.34927309311E+03  0.00000000000E+00 0.  1.
    9000007    2    1    2  502    0  0.17530040891E+03  0.24598846460E+03 -0.52423353821E+02  0.50473714359E+03  0.40096236483E+03 0.  0.
    9000005    1    3    3    0    0 -0.45817243796E+02 -0.65961049813E+01 -0.14850997032E+03  0.15556008392E+03  0.99999687468E+00 0.  0.
          4    1    3    3  502    0  0.22111765271E+03  0.25258456958E+03  0.96086616503E+02  0.34917705967E+03  0.00000000000E+00 0.  1.
   -9000007    1    1    2    0  501 -0.17530040891E+03 -0.24598846460E+03  0.81780075135E+03  0.95918644016E+03  0.40000000000E+03 0. -1.
<mgrwt>
<rscale>  2 0.50162304E+03</rscale>
<asrwt>0</asrwt>
<pdfrwt beam="1">  1        2 0.17148469E+00 0.50162304E+03</pdfrwt>
<pdfrwt beam="2">  1       -2 0.53734322E-01 0.50162304E+03</pdfrwt>
<totfact> 0.72543098E+01</totfact>
</mgrwt>
</event>
<event>
 6    1  0.9022793E-004  0.4064978E+03  0.7818608E-02  0.1041553E+00
         -1   -1    0    0    0  501 -0.00000000000E+00  0.00000000000E+00  0.54926908920E+03  0.54926908920E+03  0.00000000000E+00 0.  1.
          1   -1    0    0  502    0  0.00000000000E+00 -0.00000000000E+00 -0.31669656489E+03  0.31669656489E+03  0.00000000000E+00 0. -1.
    9000007    2    1    2  502    0  0.31003678530E+01  0.75896106898E+02  0.19218680616E+02  0.40630306704E+03  0.39867655220E+03 0.  0.
    9000005    1    3    3    0    0 -0.94048804961E+02 -0.13966538671E+03 -0.62172661588E+01  0.16849703959E+03  0.99999687468E+00 0.  0.
          4    1    3    3  502    0  0.97149172814E+02  0.21556149360E+03  0.25435946774E+02  0.23780602745E+03  0.00000000000E+00 0.  1.
   -9000007    1    1    2    0  501 -0.31003678530E+01 -0.75896106898E+02  0.21335384369E+03  0.45966258706E+03  0.40000000000E+03 0.  1.
<mgrwt>
<rscale>  2 0.40649783E+03</rscale>
<asrwt>0</asrwt>
<pdfrwt beam="1">  1        1 0.48722549E-01 0.40649783E+03</pdfrwt>
<pdfrwt beam="2">  1       -1 0.84502936E-01 0.40649783E+03</pdfrwt>
<totfact> 0.11811142E+02</totfact>
</mgrwt>
</event>
<event>
 6    1  0.9022793E-004  0.4469642E+03  0.7818608E-02  0.1028631E+00
          1   -1    0    0  502    0  0.00000000000E+00  0.00000000000E+00  0.53866990252E+03  0.53866990252E+03  0.00000000000E+00 0. -1.
         -1   -1    0    0    0  501 -0.00000000000E+00 -0.00000000000E+00 -0.51182242729E+03  0.51182242729E+03  0.00000000000E+00 0.  1.
    9000007    2    1    2  502    0 -0.52772634132E+02  0.19267442609E+03  0.28905786550E+03  0.53216552736E+03  0.39967150701E+03 0.  0.
    9000005    1    3    3    0    0  0.20759677000E+02  0.19964202811E+03  0.37101857990E+03  0.42183372340E+03  0.99999687468E+00 0.  0.
          4    1    3    3  502    0 -0.73532311132E+02 -0.69676020195E+01 -0.81960714399E+02  0.11033180395E+03  0.00000000000E+00 0.  1.
   -9000007    1    1    2    0  501  0.52772634132E+02 -0.19267442609E+03 -0.26221039026E+03  0.51832680246E+03  0.40000000000E+03 0.  1.
<mgrwt>
<rscale>  2 0.44696420E+03</rscale>
<asrwt>0</asrwt>
<pdfrwt beam="1">  1        1 0.82872293E-01 0.44696420E+03</pdfrwt>
<pdfrwt beam="2">  1       -1 0.78741912E-01 0.44696420E+03</pdfrwt>
<totfact> 0.67775997E+01</totfact>
</mgrwt>
</event>
<event>
 6    1  0.9022793E-004  0.4099136E+03  0.7818608E-02  0.1040400E+00
          1   -1    0    0  502    0  0.00000000000E+00  0.00000000000E+00  0.18475083287E+04  0.18475083287E+04  0.00000000000E+00 0.  1.
         -1   -1    0    0    0  501 -0.00000000000E+00 -0.00000000000E+00 -0.10216492046E+03  0.10216492046E+03  0.00000000000E+00 0. -1.
    9000007    2    1    2  502    0 -0.28190214434E+02  0.84776583074E+02  0.11957773592E+04  0.12641044346E+04  0.40011844697E+03 0.  0.
    9000005    1    3    3    0    0  0.65984111180E+02 -0.14591196387E+03  0.50324197203E+03  0.52810764673E+03  0.99999687468E+00 0.  0.
          4    1    3    3  502    0 -0.94174325614E+02  0.23068854694E+03  0.69253538721E+03  0.73599678792E+03  0.00000000000E+00 0.  1.
   -9000007    1    1    2    0  501  0.28190214434E+02 -0.84776583074E+02  0.54956604904E+03  0.68556881455E+03  0.40000000000E+03 0. -1.
<mgrwt>
<rscale>  2 0.40991357E+03</rscale>
<asrwt>0</asrwt>
<pdfrwt beam="1">  1        1 0.28423203E+00 0.40991357E+03</pdfrwt>
<pdfrwt beam="2">  1       -1 0.15717681E-01 0.40991357E+03</pdfrwt>
<totfact> 0.12344868E+02</totfact>
</mgrwt>
</event>
<event>
 6    1  0.9022793E-004  0.4181604E+03  0.7818608E-02  0.1037667E+00
          2   -1    0    0  502    0  0.00000000000E+00  0.00000000000E+00  0.24527440349E+03  0.24527440349E+03  0.00000000000E+00 0. -1.
         -2   -1    0    0    0  501 -0.00000000000E+00 -0.00000000000E+00 -0.73115345817E+03  0.73115345817E+03  0.00000000000E+00 0.  1.
    9000007    2    1    2  502    0  0.82716154353E+02  0.89883436379E+02 -0.32001916334E+03  0.52650509287E+03  0.39984291113E+03 0.  0.
    9000005    1    3    3    0    0 -0.59143533484E+01 -0.61173579213E+02  0.73474709285E+02  0.95795194386E+02  0.99999687468E+00 0.  0.
          4    1    3    3  502    0  0.88630507701E+02  0.15105701559E+03 -0.39349387263E+03  0.43070989848E+03  0.00000000000E+00 0.  1.
   -9000007    1    1    2    0  501 -0.82716154353E+02 -0.89883436379E+02 -0.16585989134E+03  0.44992276880E+03  0.40000000000E+03 0. -1.
<mgrwt>
<rscale>  2 0.41816045E+03</rscale>
<asrwt>0</asrwt>
<pdfrwt beam="1">  1        2 0.37734524E-01 0.41816045E+03</pdfrwt>
<pdfrwt beam="2">  1       -2 0.11248515E+00 0.41816045E+03</pdfrwt>
<totfact> 0.87995005E+01</totfact>
</mgrwt>
</event>
<event>
 6    1  0.9022793E-004  0.4029720E+03  0.7818608E-02  0.1042755E+00
         -2   -1    0    0    0  501 -0.00000000000E+00  0.00000000000E+00  0.14124001465E+03  0.14124001465E+03  0.00000000000E+00 0.  1.
          2   -1    0    0  502    0  0.00000000000E+00 -0.00000000000E+00 -0.14190289400E+04  0.14190289400E+04  0.00000000000E+00 0. -1.
    9000007    2    1    2  502    0  0.50062377470E+02 -0.11767274017E+02 -0.97834205048E+03  0.10579611394E+04  0.39935434686E+03 0.  0.
    9000005    1    3    3    0    0  0.19027809435E+03  0.10648361486E+03 -0.57143989171E+03  0.61162820671E+03  0.99999687468E+00 0.  0.
          4    1    3    3  502    0 -0.14021571688E+03 -0.11825088887E+03 -0.40690215877E+03  0.44633293268E+03  0.00000000000E+00 0.  1.
   -9000007    1    1    2    0  501 -0.50062377470E+02  0.11767274017E+02 -0.29944687483E+03  0.50230781521E+03  0.40000000000E+03 0.  1.
<mgrwt>
<rscale>  2 0.40297202E+03</rscale>
<asrwt>0</asrwt>
<pdfrwt beam="1">  1        2 0.21831216E+00 0.40297202E+03</pdfrwt>
<pdfrwt beam="2">  1       -2 0.21729232E-01 0.40297202E+03</pdfrwt>
<totfact> 0.27157121E+02</totfact>
</mgrwt>
</event>
<event>
 6    1  0.9022793E-004  0.4337842E+03  0.7818608E-02  0.1032671E+00
         -2   -1    0    0    0  501 -0.00000000000E+00  0.00000000000E+00  0.39927349183E+03  0.39927349183E+03  0.00000000000E+00 0.  1.
          2   -1    0    0  502    0  0.00000000000E+00 -0.00000000000E+00 -0.60884690904E+03  0.60884690904E+03  0.00000000000E+00 0. -1.
    9000007    2    1    2  502    0  0.90828779372E+02  0.14100512327E+03  0.13480660780E+03  0.45428837437E+03  0.40009098169E+03 0.  0.
    9000005    1    3    3    0    0 -0.91708609398E+02  0.13988433425E+03 -0.68772284409E+02  0.18085553102E+03  0.99999687468E+00 0.  0.
          4    1    3    3  502    0  0.18253738877E+03  0.11207890227E+01  0.20357889221E+03  0.27343284335E+03  0.00000000000E+00 0.  1.
   -9000007    1    1    2    0  501 -0.90828779372E+02 -0.14100512327E+03 -0.34438002501E+03  0.55383202650E+03  0.40000000000E+03 0. -1.
<mgrwt>
<rscale>  2 0.43378417E+03</rscale>
<asrwt>0</asrwt>
<pdfrwt beam="1">  1        2 0.93668756E-01 0.43378417E+03</pdfrwt>
<pdfrwt beam="2">  1       -2 0.61426691E-01 0.43378417E+03</pdfrwt>
<totfact> 0.12405272E+02</totfact>
</mgrwt>
</event>
<event>
 6    1  0.9022793E-004  0.4295317E+03  0.7818608E-02  0.1034008E+00
          1   -1    0    0  502    0  0.00000000000E+00  0.00000000000E+00  0.10859841451E+04  0.10859841451E+04  0.00000000000E+00 0. -1.
         -1   -1    0    0    0  501 -0.00000000000E+00 -0.00000000000E+00 -0.17048769276E+03  0.17048769276E+03  0.00000000000E+00 0.  1.
    9000007    2    1    2  502    0  0.10323128029E+03  0.11766789853E+03  0.49494906816E+03  0.65533746525E+03  0.39998772697E+03 0.  0.
    9000005    1    3    3    0    0  0.50768301413E+02 -0.57998501438E+02  0.46283793549E+03  0.46921338548E+03  0.99999687468E+00 0.  0.
          4    1    3    3  502    0  0.52462978877E+02  0.17566639996E+03  0.32111132668E+02  0.18612407977E+03  0.00000000000E+00 0.  1.
   -9000007    1    1    2    0  501 -0.10323128029E+03 -0.11766789853E+03  0.42054738416E+03  0.60113437258E+03  0.40000000000E+03 0.  1.
<mgrwt>
<rscale>  2 0.42953175E+03</rscale>
<asrwt>0</asrwt>
<pdfrwt beam="1">  1        1 0.16707448E+00 0.42953175E+03</pdfrwt>
<pdfrwt beam="2">  1       -1 0.26228877E-01 0.42953175E+03</pdfrwt>
<totfact> 0.17503125E+02</totfact>
</mgrwt>
</event>
<event>
 6    1  0.9022793E-004  0.4631195E+03  0.7818608E-02  0.1023880E+00
         -2   -1    0    0    0  501 -0.00000000000E+00  0.00000000000E+00  0.11924238260E+03  0.11924238260E+03  0.00000000000E+00 0.  1.
          2   -1    0    0  502    0  0.00000000000E+00 -0.00000000000E+00 -0.18021207035E+04  0.18021207035E+04  0.00000000000E+00 0. -1.
    9000007    2    1    2  502    0  0.10564800605E+03  0.20819132035E+03 -0.88332707375E+03  0.99735695848E+03  0.39993631538E+03 0.  0.
    9000005    1    3    3    0    0  0.45039140979E+02  0.13589925546E+03 -0.89126014270E+03  0.90268642054E+03  0.99999687468E+00 0.  0.
          4    1    3    3  502    0  0.60608865072E+02  0.72292064892E+02  0.79330689541E+01  0.94670537945E+02  0.00000000000E+00 0.  1.
   -9000007    1    1    2    0  501 -0.10564800605E+03 -0.20819132035E+03 -0.79955124713E+03  0.92400612760E+03  0.40000000000E+03 0.  1.
<mgrwt>
<rscale>  2 0.46311948E+03</rscale>
<asrwt>0</asrwt>
<pdfrwt beam="1">  1        2 0.27724933E+00 0.46311948E+03</pdfrwt>
<pdfrwt beam="2">  1       -2 0.18344983E-01 0.46311948E+03</pdfrwt>
<totfact> 0.22421353E+02</totfact>
</mgrwt>
</event>
<event>
 6    1  0.9022793E-004  0.4488283E+03  0.7818608E-02  0.1028072E+00
         -2   -1    0    0    0  501 -0.00000000000E+00  0.00000000000E+00  0.21107385650E+03  0.21107385650E+03  0.00000000000E+00 0. -1.
          2   -1    0    0  502    0  0.00000000000E+00 -0.00000000000E+00 -0.10391586513E+04  0.10391586513E+04  0.00000000000E+00 0.  1.
    9000007    2    1    2  502    0 -0.19711252224E+03  0.49411857429E+02 -0.23564557042E+03  0.50707767019E+03  0.40037988295E+03 0.  0.
    9000005    1    3    3    0    0  0.10141705662E+03  0.32212423093E+01 -0.16994350188E+03  0.19793329584E+03  0.99999687468E+00 0.  0.
          4    1    3    3  502    0 -0.29852957886E+03  0.46190615119E+02 -0.65702068534E+02  0.30914437435E+03  0.00000000000E+00 0.  1.
   -9000007    1    1    2    0  501  0.19711252224E+03 -0.49411857429E+02 -0.59243922436E+03  0.74315483760E+03  0.40000000000E+03 0.  1.
<mgrwt>
<rscale>  2 0.44882830E+03</rscale>
<asrwt>0</asrwt>
<pdfrwt beam="1">  1        2 0.15987056E+00 0.44882830E+03</pdfrwt>
<pdfrwt beam="2">  1       -2 0.32472901E-01 0.44882830E+03</pdfrwt>
<totfact> 0.21698825E+02</totfact>
</mgrwt>
</event>
<event>
 6    1  0.9022793E-004  0.4452927E+03  0.7818608E-02  0.1029135E+00
         -2   -1    0    0    0  501 -0.00000000000E+00  0.00000000000E+00  0.90485281440E+02  0.90485281440E+02  0.00000000000E+00 0. -1.
          2   -1    0    0  502    0  0.00000000000E+00 -0.00000000000E+00 -0.22624158369E+04  0.22624158369E+04  0.00000000000E+00 0.  1.
    9000007    2    1    2  502    0 -0.15522391512E+03  0.11918783521E+03 -0.87743083288E+03  0.98394906087E+03  0.39996335333E+03 0.  0.
    9000005    1    3    3    0    0 -0.22042166296E+03 -0.80850774126E+02 -0.45249681599E+03  0.50978125275E+03  0.99999687468E+00 0.  0.
          4    1    3    3  502    0  0.65197747839E+02  0.20003860933E+03 -0.42493401690E+03  0.47416780812E+03  0.00000000000E+00 0.  1.
   -9000007    1    1    2    0  501  0.15522391512E+03 -0.11918783521E+03 -0.12944997226E+04  0.13689520574E+04  0.40000000000E+03 0. -1.
<mgrwt>
<rscale>  2 0.44529265E+03</rscale>
<asrwt>0</asrwt>
<pdfrwt beam="1">  1        2 0.34806393E+00 0.44529265E+03</pdfrwt>
<pdfrwt beam="2">  1       -2 0.13920814E-01 0.44529265E+03</pdfrwt>
<totfact> 0.20248726E+02</totfact>
</mgrwt>
</event>
<event>
 6    1  0.9022793E-004  0.4295823E+03  0.7818608E-02  0.1033992E+00
         -1   -1    0    0    0  501 -0.00000000000E+00  0.00000000000E+00  0.34121367000E+03  0.34121367000E+03  0.00000000000E+00 0.  1.
          1   -1    0    0  502    0  0.00000000000E+00 -0.00000000000E+00 -0.58400613532E+03  0.58400613532E+03  0.00000000000E+00 0. -1.
    9000007    2    1    2  502    0  0.33874180392E+02 -0.14853945086E+03  0.39607725162E+01  0.43115646026E+03  0.40332217512E+03 0.  0.
    9000005    1    3    3    0    0  0.20341786402E+02 -0.23544601603E+03 -0.13089471008E+03  0.27015373375E+03  0.99999687468E+00 0.  0.
          4    1    3    3  502    0  0.13532393990E+02  0.86906565171E+02  0.13485548259E+03  0.16100272651E+03  0.00000000000E+00 0.  1.
   -9000007    1    1    2    0  501 -0.33874180392E+02  0.14853945086E+03 -0.24675323783E+03  0.49406334507E+03  0.40000000000E+03 0. -1.
<mgrwt>
<rscale>  2 0.42958235E+03</rscale>
<asrwt>0</asrwt>
<pdfrwt beam="1">  1        1 0.89847097E-01 0.42958235E+03</pdfrwt>
<pdfrwt beam="2">  1       -1 0.52494411E-01 0.42958235E+03</pdfrwt>
<totfact> 0.13576347E+02</totfact>
</mgrwt>
</event>
<event>
 6    1  0.9022793E-004  0.4186680E+03  0.7818608E-02  0.1037501E+00
         -1   -1    0    0    0  501 -0.00000000000E+00  0.00000000000E+00  0.10486804096E+03  0.10486804096E+03  0.00000000000E+00 0.  1.
          1   -1    0    0  502    0  0.00000000000E+00 -0.00000000000E+00 -0.18240617473E+04  0.18240617473E+04  0.00000000000E+00 0. -1.
    9000007    2    1    2  502    0  0.45082049665E+02 -0.11462374957E+03 -0.58088666374E+03  0.71611738792E+03  0.40027965475E+03 0.  0.
    9000005    1    3    3    0    0  0.18915577935E+03  0.50490032974E+02 -0.22580636888E+03  0.29886229021E+03  0.99999687468E+00 0.  0.
          4    1    3    3  502    0 -0.14407372968E+03 -0.16511378254E+03 -0.35508029486E+03  0.41725509771E+03  0.00000000000E+00 0.  1.
   -9000007    1    1    2    0  501 -0.45082049665E+02  0.11462374957E+03 -0.11383070426E+04  0.12128124004E+04  0.40000000000E+03 0.  1.
<mgrwt>
<rscale>  2 0.41866796E+03</rscale>
<asrwt>0</asrwt>
<pdfrwt beam="1">  1        1 0.28062488E+00 0.41866796E+03</pdfrwt>
<pdfrwt beam="2">  1       -1 0.16133545E-01 0.41866796E+03</pdfrwt>
<totfact> 0.12245413E+02</totfact>
</mgrwt>
</event>
<event>
 6    1  0.9022793E-004  0.4125272E+03  0.7818608E-02  0.1039526E+00
          2   -1    0    0  502    0  0.00000000000E+00  0.00000000000E+00  0.13034358861E+04  0.13034358861E+04  0.00000000000E+00 0. -1.
         -2   -1    0    0    0  501 -0.00000000000E+00 -0.00000000000E+00 -0.15690244567E+03  0.15690244567E+03  0.00000000000E+00 0.  1.
    9000007    2    1    2  502    0  0.18488355323E+02  0.98423238469E+02  0.27430335034E+03  0.49555116188E+03  0.40037441586E+03 0.  0.
    9000005    1    3    3    0    0  0.27332449037E+02 -0.15564469395E+03  0.93877760483E+02  0.18381068367E+03  0.99999687468E+00 0.  0.
          4    1    3    3  502    0 -0.88440937145E+01  0.25406793242E+03  0.18042558985E+03  0.31174047820E+03  0.00000000000E+00 0.  1.
   -9000007    1    1    2    0  501 -0.18488355323E+02 -0.98423238469E+02  0.87223009014E+03  0.96478716995E+03  0.40000000000E+03 0. -1.
<mgrwt>
<rscale>  2 0.41252724E+03</rscale>
<asrwt>0</asrwt>
<pdfrwt beam="1">  1        2 0.20052859E+00 0.41252724E+03</pdfrwt>
<pdfrwt beam="2">  1       -2 0.24138839E-01 0.41252724E+03</pdfrwt>
<totfact> 0.26138755E+02</totfact>
</mgrwt>
</event>
<event>
 6    1  0.9022793E-004  0.5498824E+03  0.7818608E-02  0.1001521E+00
         -1   -1    0    0    0  501 -0.00000000000E+00  0.00000000000E+00  0.34204458192E+03  0.34204458192E+03  0.00000000000E+00 0. -1.
          1   -1    0    0  502    0  0.00000000000E+00 -0.00000000000E+00 -0.89133955197E+03  0.89133955197E+03  0.00000000000E+00 0.  1.
    9000007    2    1    2  502    0 -0.26065088945E+03 -0.27281044678E+03 -0.21872602078E+03  0.59179216366E+03  0.40001558315E+03 0.  0.
    9000005    1    3    3    0    0  0.21891811075E+02 -0.26284954807E+03 -0.13849045668E+03  0.29790895068E+03  0.99999687468E+00 0.  0.
          4    1    3    3  502    0 -0.28254270052E+03 -0.99608987093E+01 -0.80235564100E+02  0.29388321298E+03  0.00000000000E+00 0.  1.
   -9000007    1    1    2    0  501  0.26065088945E+03  0.27281044678E+03 -0.33056894928E+03  0.64159197023E+03  0.40000000000E+03 0.  1.
<mgrwt>
<rscale>  2 0.54988241E+03</rscale>
<asrwt>0</asrwt>
<pdfrwt beam="1">  1        1 0.13712916E+00 0.54988241E+03</pdfrwt>
<pdfrwt beam="2">  1       -1 0.52622244E-01 0.54988241E+03</pdfrwt>
<totfact> 0.70171693E+01</totfact>
</mgrwt>
</event>
<event>
 6    1  0.9022793E-004  0.4268786E+03  0.7818608E-02  0.1034851E+00
         -1   -1    0    0    0  501 -0.00000000000E+00  0.00000000000E+00  0.65961417546E+03  0.65961417546E+03  0.00000000000E+00 0. -1.
          1   -1    0    0  502    0  0.00000000000E+00 -0.00000000000E+00 -0.31114040270E+03  0.31114040270E+03  0.00000000000E+00 0.  1.
    9000007    2    1    2  502    0  0.13330621254E+03 -0.54000599563E+02  0.33739326474E+03  0.54553770559E+03  0.40384472521E+03 0.  0.
    9000005    1    3    3    0    0  0.23111888395E+03 -0.16006798135E+03  0.19026791106E+03  0.33947102254E+03  0.99999687468E+00 0.  0.
          4    1    3    3  502    0 -0.97812671414E+02  0.10606738179E+03  0.14712535368E+03  0.20606668305E+03  0.00000000000E+00 0.  1.
   -9000007    1    1    2    0  501 -0.13330621254E+03  0.54000599563E+02  0.11080508027E+02  0.42521687256E+03  0.40000000000E+03 0. -1.
<mgrwt>
<rscale>  2 0.42687860E+03</rscale>
<asrwt>0</asrwt>
<pdfrwt beam="1">  1        1 0.47867754E-01 0.42687860E+03</pdfrwt>
<pdfrwt beam="2">  1       -1 0.10147910E+00 0.42687860E+03</pdfrwt>
<totfact> 0.80640103E+01</totfact>
</mgrwt>
</event>
<event>
 6    1  0.9022793E-004  0.6848648E+03  0.7818608E-02  0.9743471E-01
          2   -1    0    0  502    0  0.00000000000E+00  0.00000000000E+00  0.28823899744E+04  0.28823899744E+04  0.00000000000E+00 0. -1.
         -2   -1    0    0    0  501 -0.00000000000E+00 -0.00000000000E+00 -0.20049182299E+03  0.20049182299E+03  0.00000000000E+00 0.  1.
    9000007    2    1    2  502    0 -0.14210328394E+03 -0.53755249139E+03  0.67181126186E+03  0.95929866319E+03  0.39970930604E+03 0.  0.
    9000005    1    3    3    0    0 -0.19025870975E+03 -0.10590225971E+03  0.95802386518E+02  0.23789233385E+03  0.99999687468E+00 0.  0.
          4    1    3    3  502    0  0.48155425813E+02 -0.43165023168E+03  0.57600887534E+03  0.72140632934E+03  0.00000000000E+00 0.  1.
   -9000007    1    1    2    0  501  0.14210328394E+03  0.53755249139E+03  0.20100868895E+04  0.21235831342E+04  0.40000000000E+03 0. -1.
<mgrwt>
<rscale>  2 0.68486479E+03</rscale>
<asrwt>0</asrwt>
<pdfrwt beam="1">  1        2 0.44344458E+00 0.68486479E+03</pdfrwt>
<pdfrwt beam="2">  1       -2 0.30844898E-01 0.68486479E+03</pdfrwt>
<totfact> 0.21394303E+01</totfact>
</mgrwt>
</event>
<event>
 6    1  0.9022793E-004  0.4637342E+03  0.7818608E-02  0.1023704E+00
          2   -1    0    0  502    0  0.00000000000E+00  0.00000000000E+00  0.10146232884E+04  0.10146232884E+04  0.00000000000E+00 0.  1.
         -2   -1    0    0    0  501 -0.00000000000E+00 -0.00000000000E+00 -0.21200977884E+03  0.21200977884E+03  0.00000000000E+00 0. -1.
    9000007    2    1    2  502    0  0.37970143482E+02 -0.23182084940E+03  0.39088562673E+03  0.60638917369E+03  0.39966688475E+03 0.  0.
    9000005    1    3    3    0    0 -0.11841660501E+02 -0.24730854031E+03  0.38986224316E+02  0.25064449867E+03  0.99999687468E+00 0.  0.
          4    1    3    3  502    0  0.49811803983E+02  0.15487690907E+02  0.35189940241E+03  0.35574467502E+03  0.00000000000E+00 0.  1.
   -9000007    1    1    2    0  501 -0.37970143482E+02  0.23182084940E+03  0.41172788288E+03  0.62024389360E+03  0.40000000000E+03 0.  1.
<mgrwt>
<rscale>  2 0.46373420E+03</rscale>
<asrwt>0</asrwt>
<pdfrwt beam="1">  1        2 0.15609589E+00 0.46373420E+03</pdfrwt>
<pdfrwt beam="2">  1       -2 0.32616890E-01 0.46373420E+03</pdfrwt>
<totfact> 0.22256142E+02</totfact>
</mgrwt>
</event>
<event>
 6    1  0.9022793E-004  0.5890235E+03  0.7818608E-02  0.9928444E-01
          1   -1    0    0  502    0  0.00000000000E+00  0.00000000000E+00  0.34973207344E+04  0.34973207344E+04  0.00000000000E+00 0.  1.
         -1   -1    0    0    0  501 -0.00000000000E+00 -0.00000000000E+00 -0.11758071436E+03  0.11758071436E+03  0.00000000000E+00 0. -1.
    9000007    2    1    2  502    0  0.29293052290E+03  0.31782304755E+03  0.24046818036E+04  0.24757972804E+04  0.40032214105E+03 0.  0.
    9000005    1    3    3    0    0  0.34485231851E+03  0.20283770163E+03  0.12090253547E+04  0.12735028712E+04  0.99999687468E+00 0.  0.
          4    1    3    3  502    0 -0.51921795615E+02  0.11498534592E+03  0.11956564489E+04  0.12022944092E+04  0.00000000000E+00 0.  1.
   -9000007    1    1    2    0  501 -0.29293052290E+03 -0.31782304755E+03  0.97505821648E+03  0.11391041683E+04  0.40000000000E+03 0. -1.
<mgrwt>
<rscale>  2 0.58902348E+03</rscale>
<asrwt>0</asrwt>
<pdfrwt beam="1">  1        1 0.53804927E+00 0.58902348E+03</pdfrwt>
<pdfrwt beam="2">  1       -1 0.18089343E-01 0.58902348E+03</pdfrwt>
<totfact> 0.67571835E+00</totfact>
</mgrwt>
</event>
<event>
 6    1  0.9022793E-004  0.4140784E+03  0.7818608E-02  0.1039011E+00
         -2   -1    0    0    0  501 -0.00000000000E+00  0.00000000000E+00  0.10793864415E+03  0.10793864415E+03  0.00000000000E+00 0.  1.
          2   -1    0    0  502    0  0.00000000000E+00 -0.00000000000E+00 -0.15959719476E+04  0.15959719476E+04  0.00000000000E+00 0. -1.
    9000007    2    1    2  502    0  0.98759149526E+01  0.10592434967E+03 -0.80260575703E+03  0.90320563802E+03  0.40035849157E+03 0.  0.
    9000005    1    3    3    0    0 -0.12460798897E+03  0.46119518503E+01 -0.68875444379E+03  0.69995150179E+03  0.99999687468E+00 0.  0.
          4    1    3    3  502    0  0.13448390393E+03  0.10131239782E+03 -0.11385131324E+03  0.20325413623E+03  0.00000000000E+00 0.  1.
   -9000007    1    1    2    0  501 -0.98759149526E+01 -0.10592434967E+03 -0.68542754644E+03  0.80070495376E+03  0.40000000000E+03 0.  1.
<mgrwt>
<rscale>  2 0.41407838E+03</rscale>
<asrwt>0</asrwt>
<pdfrwt beam="1">  1        2 0.24553414E+00 0.41407838E+03</pdfrwt>
<pdfrwt beam="2">  1       -2 0.16605945E-01 0.41407838E+03</pdfrwt>
<totfact> 0.34498128E+02</totfact>
</mgrwt>
</event>
<event>
 6    1  0.9022793E-004  0.4353424E+03  0.7818608E-02  0.1032186E+00
         -1   -1    0    0    0  501 -0.00000000000E+00  0.00000000000E+00  0.53437206592E+03  0.53437206592E+03  0.00000000000E+00 0. -1.
          1   -1    0    0  502    0  0.00000000000E+00 -0.00000000000E+00 -0.36122635095E+03  0.36122635095E+03  0.00000000000E+00 0.  1.
    9000007    2    1    2  502    0  0.74481080820E+02 -0.15484449478E+03  0.26220416190E+02  0.43612992787E+03  0.39999694349E+03 0.  0.
    9000005    1    3    3    0    0  0.12649118633E+03 -0.68485777143E+02  0.19332672024E+03  0.24097000361E+03  0.99999687468E+00 0.  0.
          4    1    3    3  502    0 -0.52010105507E+02 -0.86358717633E+02 -0.16710630405E+03  0.19515992426E+03  0.00000000000E+00 0.  1.
   -9000007    1    1    2    0  501 -0.74481080820E+02  0.15484449478E+03  0.14692529878E+03  0.45946848900E+03  0.40000000000E+03 0.  1.
<mgrwt>
<rscale>  2 0.43534242E+03</rscale>
<asrwt>0</asrwt>
<pdfrwt beam="1">  1        1 0.55573285E-01 0.43534242E+03</pdfrwt>
<pdfrwt beam="2">  1       -1 0.82211087E-01 0.43534242E+03</pdfrwt>
<totfact> 0.10539237E+02</totfact>
</mgrwt>
</event>
<event>
 6    1  0.9022793E-004  0.4494923E+03  0.7818608E-02  0.1027874E+00
          1   -1    0    0  502    0  0.00000000000E+00  0.00000000000E+00  0.29872612349E+03  0.29872612349E+03  0.00000000000E+00 0.  1.
         -1   -1    0    0    0  501 -0.00000000000E+00 -0.00000000000E+00 -0.68259149606E+03  0.68259149606E+03  0.00000000000E+00 0. -1.
    9000007    2    1    2  502    0  0.18911220982E+01 -0.20696489705E+03 -0.23846921679E+03  0.50805438722E+03  0.39801212050E+03 0.  0.
    9000005    1    3    3    0    0 -0.17706133005E+03 -0.32622345384E+02 -0.17320590618E+03  0.24983237970E+03  0.99999687468E+00 0.  0.
          4    1    3    3  502    0  0.17895245215E+03 -0.17434255167E+03 -0.65263310614E+02  0.25822200752E+03  0.00000000000E+00 0.  1.
   -9000007    1    1    2    0  501 -0.18911220982E+01  0.20696489705E+03 -0.14539615578E+03  0.47326323232E+03  0.40000000000E+03 0.  1.
<mgrwt>
<rscale>  2 0.44949228E+03</rscale>
<asrwt>0</asrwt>
<pdfrwt beam="1">  1        1 0.45957865E-01 0.44949228E+03</pdfrwt>
<pdfrwt beam="2">  1       -1 0.10501408E+00 0.44949228E+03</pdfrwt>
<totfact> 0.78365914E+01</totfact>
</mgrwt>
</event>
<event>
 6    1  0.9022793E-004  0.5036179E+03  0.7818608E-02  0.1012839E+00
          1   -1    0    0  502    0  0.00000000000E+00  0.00000000000E+00  0.55374601069E+03  0.55374601069E+03  0.00000000000E+00 0.  1.
         -1   -1    0    0    0  501 -0.00000000000E+00 -0.00000000000E+00 -0.46889100559E+03  0.46889100559E+03  0.00000000000E+00 0. -1.
    9000007    2    1    2  502    0  0.30359490516E+03  0.44640324076E+02 -0.35442556931E+02  0.50433775098E+03  0.39866999793E+03 0.  0.
    9000005    1    3    3    0    0  0.33576048663E+03  0.16811120118E+03 -0.25738819472E+02  0.37637742648E+03  0.99999687468E+00 0.  0.
          4    1    3    3  502    0 -0.32165581466E+02 -0.12347087711E+03 -0.97037374586E+01  0.12796032450E+03  0.00000000000E+00 0.  1.
   -9000007    1    1    2    0  501 -0.30359490516E+03 -0.44640324076E+02  0.12029756203E+03  0.51829926529E+03  0.40000000000E+03 0.  1.
<mgrwt>
<rscale>  2 0.50361786E+03</rscale>
<asrwt>0</asrwt>
<pdfrwt beam="1">  1        1 0.85191694E-01 0.50361786E+03</pdfrwt>
<pdfrwt beam="2">  1       -1 0.72137078E-01 0.50361786E+03</pdfrwt>
<totfact> 0.77664325E+01</totfact>
</mgrwt>
</event>
<event>
 6    1  0.9022793E-004  0.5390827E+03  0.7818608E-02  0.1004053E+00
         -1   -1    0    0    0  501 -0.00000000000E+00  0.00000000000E+00  0.18967958001E+03  0.18967958001E+03  0.00000000000E+00 0. -1.
          1   -1    0    0  502    0  0.00000000000E+00 -0.00000000000E+00 -0.19091337970E+04  0.19091337970E+04  0.00000000000E+00 0.  1.
    9000007    2    1    2  502    0 -0.21672232752E+03 -0.28893232934E+03 -0.13262639851E+04  0.14316934353E+04  0.40039914626E+03 0.  0.
    9000005    1    3    3    0    0 -0.27455871065E+03 -0.27013861730E+03 -0.67161149488E+03  0.77422242166E+03  0.99999687468E+00 0.  0.
          4    1    3    3  502    0  0.57836383125E+02 -0.18793712037E+02 -0.65465249023E+03  0.65747101365E+03  0.00000000000E+00 0.  1.
   -9000007    1    1    2    0  501  0.21672232752E+03  0.28893232934E+03 -0.39319023192E+03  0.66711994173E+03  0.40000000000E+03 0. -1.
<mgrwt>
<rscale>  2 0.53908270E+03</rscale>
<asrwt>0</asrwt>
<pdfrwt beam="1">  1        1 0.29371289E+00 0.53908270E+03</pdfrwt>
<pdfrwt beam="2">  1       -1 0.29181474E-01 0.53908270E+03</pdfrwt>
<totfact> 0.39238808E+01</totfact>
</mgrwt>
</event>
<event>
 6    1  0.9022793E-004  0.4311284E+03  0.7818608E-02  0.1033504E+00
         -1   -1    0    0    0  501 -0.00000000000E+00  0.00000000000E+00  0.50241452618E+03  0.50241452618E+03  0.00000000000E+00 0. -1.
          1   -1    0    0  502    0  0.00000000000E+00 -0.00000000000E+00 -0.37068046035E+03  0.37068046035E+03  0.00000000000E+00 0.  1.
    9000007    2    1    2  502    0  0.10449198773E+03 -0.12226840822E+03  0.46578727118E+02  0.43364126786E+03  0.40000879018E+03 0.  0.
    9000005    1    3    3    0    0 -0.62634462492E+02 -0.14639618498E+03  0.16351986587E+03  0.22824255825E+03  0.99999687468E+00 0.  0.
          4    1    3    3  502    0  0.16712645022E+03  0.24127776763E+02 -0.11694113876E+03  0.20539870961E+03  0.00000000000E+00 0.  1.
   -9000007    1    1    2    0  501 -0.10449198773E+03  0.12226840822E+03  0.85155338711E+02  0.43945371868E+03  0.40000000000E+03 0.  1.
<mgrwt>
<rscale>  2 0.43112835E+03</rscale>
<asrwt>0</asrwt>
<pdfrwt beam="1">  1        1 0.57027763E-01 0.43112835E+03</pdfrwt>
<pdfrwt beam="2">  1       -1 0.77294542E-01 0.43112835E+03</pdfrwt>
<totfact> 0.11604854E+02</totfact>
</mgrwt>
</event>
<event>
 6    1  0.9022793E-004  0.4679723E+03  0.7818608E-02  0.1022494E+00
         -2   -1    0    0    0  501 -0.00000000000E+00  0.00000000000E+00  0.71933956704E+02  0.71933956704E+02  0.00000000000E+00 0. -1.
          2   -1    0    0  502    0  0.00000000000E+00 -0.00000000000E+00 -0.32016988923E+04  0.32016988923E+04  0.00000000000E+00 0.  1.
    9000007    2    1    2  502    0  0.19397724675E+03  0.14957387789E+03 -0.11987405439E+04  0.12864603053E+04  0.39749428710E+03 0.  0.
    9000005    1    3    3    0    0  0.42817828994E+02  0.90305416356E+02 -0.27007771010E+02  0.10353190036E+03  0.99999687468E+00 0.  0.
          4    1    3    3  502    0  0.15115941775E+03  0.59268461532E+02 -0.11717327729E+04  0.11829284050E+04  0.00000000000E+00 0.  1.
   -9000007    1    1    2    0  501 -0.19397724675E+03 -0.14957387789E+03 -0.19310243917E+04  0.19871725437E+04  0.40000000000E+03 0.  1.
<mgrwt>
<rscale>  2 0.46797232E+03</rscale>
<asrwt>0</asrwt>
<pdfrwt beam="1">  1        2 0.49256907E+00 0.46797232E+03</pdfrwt>
<pdfrwt beam="2">  1       -2 0.11066762E-01 0.46797232E+03</pdfrwt>
<totfact> 0.83978610E+01</totfact>
</mgrwt>
</event>
<event>
 6    1  0.9022793E-004  0.4772523E+03  0.7818608E-02  0.1019893E+00
         -2   -1    0    0    0  501 -0.00000000000E+00  0.00000000000E+00  0.20084762726E+04  0.20084762726E+04  0.00000000000E+00 0. -1.
          2   -1    0    0  502    0  0.00000000000E+00 -0.00000000000E+00 -0.11443027766E+03  0.11443027766E+03  0.00000000000E+00 0.  1.
    9000007    2    1    2  502    0  0.24208353253E+03  0.97037628915E+02  0.84599928393E+03  0.97120231453E+03  0.39937251932E+03 0.  0.
    9000005    1    3    3    0    0  0.58440374804E+02 -0.18166649397E+02  0.71561180465E+03  0.71822458848E+03  0.99999687468E+00 0.  0.
          4    1    3    3  502    0  0.18364315773E+03  0.11520427831E+03  0.13038747928E+03  0.25297772605E+03  0.00000000000E+00 0.  1.
   -9000007    1    1    2    0  501 -0.24208353253E+03 -0.97037628915E+02  0.10480467110E+04  0.11517042357E+04  0.40000000000E+03 0. -1.
<mgrwt>
<rscale>  2 0.47725235E+03</rscale>
<asrwt>0</asrwt>
<pdfrwt beam="1">  1        2 0.17604660E-01 0.47725235E+03</pdfrwt>
<pdfrwt beam="2">  1       -2 0.30899632E+00 0.47725235E+03</pdfrwt>
<totfact> 0.99959425E+00</totfact>
</mgrwt>
</event>
<event>
 6    1  0.9022793E-004  0.5575305E+03  0.7818608E-02  0.9997658E-01
          1   -1    0    0  502    0  0.00000000000E+00  0.00000000000E+00  0.51684114726E+03  0.51684114726E+03  0.00000000000E+00 0. -1.
         -1   -1    0    0    0  501 -0.00000000000E+00 -0.00000000000E+00 -0.60148862164E+03  0.60148862164E+03  0.00000000000E+00 0.  1.
    9000007    2    1    2  502    0 -0.14091372770E+03 -0.35969246667E+03 -0.36780639095E+02  0.56018410408E+03  0.40400255670E+03 0.  0.
    9000005    1    3    3    0    0 -0.53553938294E+02  0.16284178746E+02  0.12859768249E+03  0.14025534827E+03  0.99999687468E+00 0.  0.
          4    1    3    3  502    0 -0.87359789403E+02 -0.37597664542E+03 -0.16537832158E+03  0.41992875581E+03  0.00000000000E+00 0.  1.
   -9000007    1    1    2    0  501  0.14091372770E+03  0.35969246667E+03 -0.47866835290E+02  0.55814566482E+03  0.40000000000E+03 0. -1.
<mgrwt>
<rscale>  2 0.55753046E+03</rscale>
<asrwt>0</asrwt>
<pdfrwt beam="1">  1        1 0.79514022E-01 0.55753046E+03</pdfrwt>
<pdfrwt beam="2">  1       -1 0.92536712E-01 0.55753046E+03</pdfrwt>
<totfact> 0.50042432E+01</totfact>
</mgrwt>
</event>
<event>
 6    1  0.9022793E-004  0.4623068E+03  0.7818608E-02  0.1024114E+00
         -2   -1    0    0    0  501 -0.00000000000E+00  0.00000000000E+00  0.14395441701E+03  0.14395441701E+03  0.00000000000E+00 0. -1.
          2   -1    0    0  502    0  0.00000000000E+00 -0.00000000000E+00 -0.20163104866E+04  0.20163104866E+04  0.00000000000E+00 0.  1.
    9000007    2    1    2  502    0  0.22447814532E+03 -0.55595631555E+02 -0.14912001456E+04  0.15612981680E+04  0.40061550540E+03 0.  0.
    9000005    1    3    3    0    0  0.20705633155E+03  0.10959164437E+03 -0.45399421095E+03  0.51087610682E+03  0.99999687468E+00 0.  0.
          4    1    3    3  502    0  0.17421813763E+02 -0.16518727593E+03 -0.10372059346E+04  0.10504220611E+04  0.00000000000E+00 0.  1.
   -9000007    1    1    2    0  501 -0.22447814532E+03  0.55595631555E+02 -0.38115592400E+03  0.59896673561E+03  0.40000000000E+03 0. -1.
<mgrwt>
<rscale>  2 0.46230678E+03</rscale>
<asrwt>0</asrwt>
<pdfrwt beam="1">  1        2 0.31020161E+00 0.46230678E+03</pdfrwt>
<pdfrwt beam="2">  1       -2 0.22146833E-01 0.46230678E+03</pdfrwt>
<totfact> 0.12409469E+02</totfact>
</mgrwt>
</event>
<event>
 6    1  0.9022793E-004  0.5098122E+03  0.7818608E-02  0.1011249E+00
          1   -1    0    0  502    0  0.00000000000E+00  0.00000000000E+00  0.68848726643E+03  0.68848726643E+03  0.00000000000E+00 0.  1.
         -1   -1    0    0    0  501 -0.00000000000E+00 -0.00000000000E+00 -0.37941049427E+03  0.37941049427E+03  0.00000000000E+00 0. -1.
    9000007    2    1    2  502    0  0.30789140980E+03 -0.71363269112E+02  0.19236857790E+03  0.54491531452E+03  0.40004648958E+03 0.  0.
    9000005    1    3    3    0    0  0.12824710477E+03 -0.19752810881E+03 -0.23944308892E+02  0.23672558708E+03  0.99999687468E+00 0.  0.
          4    1    3    3  502    0  0.17964430503E+03  0.12616483970E+03  0.21631288680E+03  0.30818972744E+03  0.00000000000E+00 0.  1.
   -9000007    1    1    2    0  501 -0.30789140980E+03  0.71363269112E+02  0.11670819426E+03  0.52298244618E+03  0.40000000000E+03 0. -1.
<mgrwt>
<rscale>  2 0.50981215E+03</rscale>
<asrwt>0</asrwt>
<pdfrwt beam="1">  1        1 0.10592112E+00 0.50981215E+03</pdfrwt>
<pdfrwt beam="2">  1       -1 0.58370845E-01 0.50981215E+03</pdfrwt>
<totfact> 0.86585518E+01</totfact>
</mgrwt>
</event>
<event>
 6    1  0.9022793E-004  0.4011657E+03  0.7818608E-02  0.1043377E+00
         -1   -1    0    0    0  501 -0.00000000000E+00  0.00000000000E+00  0.11837602364E+03  0.11837602364E+03  0.00000000000E+00 0. -1.
          1   -1    0    0  502    0  0.00000000000E+00 -0.00000000000E+00 -0.14102947405E+04  0.14102947405E+04  0.00000000000E+00 0.  1.
    9000007    2    1    2  502    0  0.19866749843E+02 -0.27554483882E+02 -0.79056913179E+03  0.88640497509E+03  0.39944998485E+03 0.  0.
    9000005    1    3    3    0    0  0.66958763653E+02 -0.25123765191E+02  0.20155900381E+02  0.74309756568E+02  0.99999687468E+00 0.  0.
          4    1    3    3  502    0 -0.47092013810E+02 -0.24307186907E+01 -0.81072503217E+03  0.81209521852E+03  0.00000000000E+00 0.  1.
   -9000007    1    1    2    0  501 -0.19866749843E+02  0.27554483882E+02 -0.50134958506E+03  0.64226578904E+03  0.40000000000E+03 0. -1.
<mgrwt>
<rscale>  2 0.40116572E+03</rscale>
<asrwt>0</asrwt>
<pdfrwt beam="1">  1        1 0.21696841E+00 0.40116572E+03</pdfrwt>
<pdfrwt beam="2">  1       -1 0.18211697E-01 0.40116572E+03</pdfrwt>
<totfact> 0.19033470E+02</totfact>
</mgrwt>
</event>
<event>
 6    1  0.9022793E-004  0.7993080E+03  0.7818608E-02  0.9561019E-01
          3   -1    0    0  502    0  0.00000000000E+00  0.00000000000E+00  0.86861785194E+03  0.86861785194E+03  0.00000000000E+00 0.  1.
         -3   -1    0    0    0  501 -0.00000000000E+00 -0.00000000000E+00 -0.98952567022E+03  0.98952567022E+03  0.00000000000E+00 0. -1.
    9000007    2    1    2  502    0  0.35658225458E+03  0.59370705569E+03  0.41027836274E+03  0.89804054271E+03  0.39813252715E+03 0.  0.
    9000005    1    3    3    0    0  0.54680535098E+02  0.46160826286E+03  0.28642870602E+03  0.54599867481E+03  0.99999687468E+00 0.  0.
          4    1    3    3  502    0  0.30190171948E+03  0.13209879282E+03  0.12384965671E+03  0.35204186791E+03  0.00000000000E+00 0.  1.
   -9000007    1    1    2    0  501 -0.35658225458E+03 -0.59370705569E+03 -0.53118618102E+03  0.96010297945E+03  0.40000000000E+03 0. -1.
<mgrwt>
<rscale>  2 0.79930801E+03</rscale>
<asrwt>0</asrwt>
<pdfrwt beam="1">  1        3 0.13363352E+00 0.79930801E+03</pdfrwt>
<pdfrwt beam="2">  1       -3 0.15223472E+00 0.79930801E+03</pdfrwt>
<totfact> 0.34743265E-01</totfact>
</mgrwt>
</event>
<event>
 6    1  0.9022793E-004  0.4195271E+03  0.7818608E-02  0.1037220E+00
          2   -1    0    0  502    0  0.00000000000E+00  0.00000000000E+00  0.23284937798E+04  0.23284937798E+04  0.00000000000E+00 0. -1.
         -2   -1    0    0    0  501 -0.00000000000E+00 -0.00000000000E+00 -0.80710781310E+02  0.80710781310E+02  0.00000000000E+00 0.  1.
    9000007    2    1    2  502    0  0.34076268452E+02 -0.12174213486E+03  0.14274745767E+04  0.14878532458E+04  0.40005158949E+03 0.  0.
    9000005    1    3    3    0    0  0.97292693043E+02 -0.17601955285E+03  0.13744591841E+04  0.13890960369E+04  0.99999687468E+00 0.  0.
          4    1    3    3  502    0 -0.63216424591E+02  0.54277417985E+02  0.53015392658E+02  0.98757208850E+02  0.00000000000E+00 0.  1.
   -9000007    1    1    2    0  501 -0.34076268452E+02  0.12174213486E+03  0.82030842176E+03  0.92135131534E+03  0.40000000000E+03 0.  1.
<mgrwt>
<rscale>  2 0.41952709E+03</rscale>
<asrwt>0</asrwt>
<pdfrwt beam="1">  1        2 0.35822976E+00 0.41952709E+03</pdfrwt>
<pdfrwt beam="2">  1       -2 0.12417045E-01 0.41952709E+03</pdfrwt>
<totfact> 0.22605816E+02</totfact>
</mgrwt>
</event>
<event>
 6    1  0.9022793E-004  0.4732688E+03  0.7818608E-02  0.1021002E+00
         -3   -1    0    0    0  501 -0.00000000000E+00  0.00000000000E+00  0.13905633500E+04  0.13905633500E+04  0.00000000000E+00 0.  1.
          3   -1    0    0  502    0  0.00000000000E+00 -0.00000000000E+00 -0.17913833048E+03  0.17913833048E+03  0.00000000000E+00 0. -1.
    9000007    2    1    2  502    0 -0.22136658551E+03 -0.12438374890E+03  0.85434788990E+03  0.97642387145E+03  0.39877158574E+03 0.  0.
    9000005    1    3    3    0    0 -0.15560582854E+03  0.33912574031E+02  0.70701911664E+02  0.17424981165E+03  0.99999687468E+00 0.  0.
          4    1    3    3  502    0 -0.65760756966E+02 -0.15829632293E+03  0.78364597823E+03  0.80217405980E+03  0.00000000000E+00 0.  1.
   -9000007    1    1    2    0  501  0.22136658551E+03  0.12438374890E+03  0.35707712959E+03  0.59327780899E+03  0.40000000000E+03 0. -1.
<mgrwt>
<rscale>  2 0.47326878E+03</rscale>
<asrwt>0</asrwt>
<pdfrwt beam="1">  1        3 0.27559744E-01 0.47326878E+03</pdfrwt>
<pdfrwt beam="2">  1       -3 0.21393282E+00 0.47326878E+03</pdfrwt>
<totfact> 0.40581503E+00</totfact>
</mgrwt>
</event>
<event>
 6    1  0.9022793E-004  0.5072568E+03  0.7818608E-02  0.1011902E+00
          2   -1    0    0  502    0  0.00000000000E+00  0.00000000000E+00  0.87282465063E+03  0.87282465063E+03  0.00000000000E+00 0. -1.
         -2   -1    0    0    0  501 -0.00000000000E+00 -0.00000000000E+00 -0.31763264548E+03  0.31763264548E+03  0.00000000000E+00 0.  1.
    9000007    2    1    2  502    0 -0.52710811692E+02 -0.30659612517E+03  0.11827826504E+03  0.52137342249E+03  0.40132391414E+03 0.  0.
    9000005    1    3    3    0    0  0.10883258502E+03 -0.31698754974E+02  0.16389408316E+03  0.19927772860E+03  0.99999687468E+00 0.  0.
          4    1    3    3  502    0 -0.16154339671E+03 -0.27489737020E+03 -0.45615818120E+02  0.32209569390E+03  0.00000000000E+00 0.  1.
   -9000007    1    1    2    0  501  0.52710811692E+02  0.30659612517E+03  0.43691374011E+03  0.66908387362E+03  0.40000000000E+03 0. -1.
<mgrwt>
<rscale>  2 0.50725685E+03</rscale>
<asrwt>0</asrwt>
<pdfrwt beam="1">  1        2 0.13428071E+00 0.50725685E+03</pdfrwt>
<pdfrwt beam="2">  1       -2 0.48866561E-01 0.50725685E+03</pdfrwt>
<totfact> 0.12512844E+02</totfact>
</mgrwt>
</event>
<event>
 6    1  0.9022793E-004  0.4512888E+03  0.7818608E-02  0.1027338E+00
         -2   -1    0    0    0  501 -0.00000000000E+00  0.00000000000E+00  0.18905693328E+03  0.18905693328E+03  0.00000000000E+00 0. -1.
          2   -1    0    0  502    0  0.00000000000E+00 -0.00000000000E+00 -0.11616609748E+04  0.11616609748E+04  0.00000000000E+00 0.  1.
    9000007    2    1    2  502    0 -0.46368225451E+01 -0.20827266921E+03 -0.30454208925E+03  0.54467462331E+03  0.40065640678E+03 0.  0.
    9000005    1    3    3    0    0  0.94236583532E+02 -0.41804046202E+02  0.68915892051E+02  0.12401012913E+03  0.99999687468E+00 0.  0.
          4    1    3    3  502    0 -0.98873406077E+02 -0.16646862301E+03 -0.37345798130E+03  0.42066449419E+03  0.00000000000E+00 0.  1.
   -9000007    1    1    2    0  501  0.46368225451E+01  0.20827266921E+03 -0.66806195229E+03  0.80604328480E+03  0.40000000000E+03 0. -1.
<mgrwt>
<rscale>  2 0.45128884E+03</rscale>
<asrwt>0</asrwt>
<pdfrwt beam="1">  1        2 0.17871707E+00 0.45128884E+03</pdfrwt>
<pdfrwt beam="2">  1       -2 0.29085682E-01 0.45128884E+03</pdfrwt>
<totfact> 0.22442705E+02</totfact>
</mgrwt>
</event>
<event>
 6    1  0.9022793E-004  0.4469300E+03  0.7818608E-02  0.1028642E+00
          2   -1    0    0  502    0  0.00000000000E+00  0.00000000000E+00  0.28946460457E+04  0.28946460457E+04  0.00000000000E+00 0. -1.
         -2   -1    0    0    0  501 -0.00000000000E+00 -0.00000000000E+00 -0.77690031790E+02  0.77690031790E+02  0.00000000000E+00 0.  1.
    9000007    2    1    2  502    0 -0.19225139786E+03  0.51550796212E+02  0.19057683025E+04  0.19575054858E+04  0.40032089533E+03 0.  0.
    9000005    1    3    3    0    0 -0.22446083526E+03  0.17021510669E+03  0.16481138690E+04  0.16720156023E+04  0.99999687468E+00 0.  0.
          4    1    3    3  502    0  0.32209437393E+02 -0.11866431048E+03  0.25765443348E+03  0.28548988341E+03  0.00000000000E+00 0.  1.
   -9000007    1    1    2    0  501  0.19225139786E+03 -0.51550796212E+02  0.91118771141E+03  0.10148305918E+04  0.40000000000E+03 0.  1.
<mgrwt>
<rscale>  2 0.44693003E+03</rscale>
<asrwt>0</asrwt>
<pdfrwt beam="1">  1        2 0.44533008E+00 0.44693003E+03</pdfrwt>
<pdfrwt beam="2">  1       -2 0.11952315E-01 0.44693003E+03</pdfrwt>
<totfact> 0.11442099E+02</totfact>
</mgrwt>
</event>
<event>
 6    1  0.9022793E-004  0.4484423E+03  0.7818608E-02  0.1028188E+00
          3   -1    0    0  502    0  0.00000000000E+00  0.00000000000E+00  0.46899751581E+03  0.46899751581E+03  0.00000000000E+00 0.  1.
         -3   -1    0    0    0  501 -0.00000000000E+00 -0.00000000000E+00 -0.43112613244E+03  0.43112613244E+03  0.00000000000E+00 0. -1.
    9000007    2    1    2  502    0  0.70740205649E+02  0.18909841629E+03 -0.14189794827E+02  0.44904410536E+03  0.40084519523E+03 0.  0.
    9000005    1    3    3    0    0  0.24743928381E+02  0.29233248706E+03  0.77576262709E+02  0.30346271848E+03  0.99999687468E+00 0.  0.
          4    1    3    3  502    0  0.45996277268E+02 -0.10323407076E+03 -0.91766057536E+02  0.14558138688E+03  0.00000000000E+00 0.  1.
   -9000007    1    1    2    0  501 -0.70740205649E+02 -0.18909841629E+03  0.52061178196E+02  0.45107954289E+03  0.40000000000E+03 0. -1.
<mgrwt>
<rscale>  2 0.44844235E+03</rscale>
<asrwt>0</asrwt>
<pdfrwt beam="1">  1        3 0.72153464E-01 0.44844235E+03</pdfrwt>
<pdfrwt beam="2">  1       -3 0.66327097E-01 0.44844235E+03</pdfrwt>
<totfact> 0.10432119E+01</totfact>
</mgrwt>
</event>
<event>
 6    1  0.9022793E-004  0.5087550E+03  0.7818608E-02  0.1011519E+00
         -2   -1    0    0    0  501 -0.00000000000E+00  0.00000000000E+00  0.13311098518E+04  0.13311098518E+04  0.00000000000E+00 0. -1.
          2   -1    0    0  502    0  0.00000000000E+00 -0.00000000000E+00 -0.35063059475E+03  0.35063059475E+03  0.00000000000E+00 0.  1.
    9000007    2    1    2  502    0 -0.77374030148E+02  0.30480347678E+03  0.10514114975E+04  0.11680058042E+04  0.39984937350E+03 0.  0.
    9000005    1    3    3    0    0 -0.13918357535E+03  0.37452169356E+03  0.94829862702E+03  0.10290334555E+04  0.99999687468E+00 0.  0.
          4    1    3    3  502    0  0.61809545207E+02 -0.69718216777E+02  0.10311287052E+03  0.13897234868E+03  0.00000000000E+00 0.  1.
   -9000007    1    1    2    0  501  0.77374030148E+02 -0.30480347678E+03 -0.70932240495E+02  0.51373464234E+03  0.40000000000E+03 0.  1.
<mgrwt>
<rscale>  2 0.50875500E+03</rscale>
<asrwt>0</asrwt>
<pdfrwt beam="1">  1        2 0.53943169E-01 0.50875500E+03</pdfrwt>
<pdfrwt beam="2">  1       -2 0.20478613E+00 0.50875500E+03</pdfrwt>
<totfact> 0.11965841E+01</totfact>
</mgrwt>
</event>
<event>
 6    1  0.9022793E-004  0.4441146E+03  0.7818608E-02  0.1029492E+00
         -2   -1    0    0    0  501 -0.00000000000E+00  0.00000000000E+00  0.12508324044E+04  0.12508324044E+04  0.00000000000E+00 0. -1.
          2   -1    0    0  502    0  0.00000000000E+00 -0.00000000000E+00 -0.16724475021E+03  0.16724475021E+03  0.00000000000E+00 0.  1.
    9000007    2    1    2  502    0  0.55173805048E+02  0.18498977639E+03  0.71127472897E+03  0.83852363645E+03  0.39993097240E+03 0.  0.
    9000005    1    3    3    0    0  0.55238556618E+02  0.87613764655E+02  0.73172815627E+03  0.73902270910E+03  0.99999687468E+00 0.  0.
          4    1    3    3  502    0 -0.64751570497E-01  0.97376011738E+02 -0.20453427302E+02  0.99500927348E+02  0.00000000000E+00 0.  1.
   -9000007    1    1    2    0  501 -0.55173805048E+02 -0.18498977639E+03  0.37231292524E+03  0.57955351818E+03  0.40000000000E+03 0. -1.
<mgrwt>
<rscale>  2 0.44411457E+03</rscale>
<asrwt>0</asrwt>
<pdfrwt beam="1">  1        2 0.25729962E-01 0.44411457E+03</pdfrwt>
<pdfrwt beam="2">  1       -2 0.19243575E+00 0.44411457E+03</pdfrwt>
<totfact> 0.32975831E+01</totfact>
</mgrwt>
</event>
<event>
 6    1  0.9022793E-004  0.4509983E+03  0.7818608E-02  0.1027425E+00
         -2   -1    0    0    0  501 -0.00000000000E+00  0.00000000000E+00  0.14862980758E+03  0.14862980758E+03  0.00000000000E+00 0.  1.
          2   -1    0    0  502    0  0.00000000000E+00 -0.00000000000E+00 -0.17703661872E+04  0.17703661872E+04  0.00000000000E+00 0. -1.
    9000007    2    1    2  502    0  0.10384364491E+03  0.18160518624E+03 -0.35316221245E+03  0.57250263651E+03  0.39908867968E+03 0.  0.
    9000005    1    3    3    0    0 -0.38431689628E+02  0.25105473373E+03 -0.98037556141E+02  0.27224591182E+03  0.99999687468E+00 0.  0.
          4    1    3    3  502    0  0.14227533454E+03 -0.69449547489E+02 -0.25512465631E+03  0.30025672469E+03  0.00000000000E+00 0.  1.
   -9000007    1    1    2    0  501 -0.10384364491E+03 -0.18160518624E+03 -0.12685741672E+04  0.13464933583E+04  0.40000000000E+03 0. -1.
<mgrwt>
<rscale>  2 0.45099835E+03</rscale>
<asrwt>0</asrwt>
<pdfrwt beam="1">  1        2 0.27236402E+00 0.45099835E+03</pdfrwt>
<pdfrwt beam="2">  1       -2 0.22866125E-01 0.45099835E+03</pdfrwt>
<totfact> 0.15918163E+02</totfact>
</mgrwt>
</event>
<event>
 6    1  0.9022793E-004  0.4537433E+03  0.7818608E-02  0.1026612E+00
          1   -1    0    0  502    0  0.00000000000E+00  0.00000000000E+00  0.91488737000E+03  0.91488737000E+03  0.00000000000E+00 0.  1.
         -1   -1    0    0    0  501 -0.00000000000E+00 -0.00000000000E+00 -0.22945694152E+03  0.22945694152E+03  0.00000000000E+00 0. -1.
    9000007    2    1    2  502    0  0.15979413071E+03 -0.14336583657E+03  0.26313172379E+03  0.52432485757E+03  0.39948757789E+03 0.  0.
    9000005    1    3    3    0    0  0.23123040985E+02  0.13835425644E+03  0.86992433573E+02  0.16506137886E+03  0.99999687468E+00 0.  0.
          4    1    3    3  502    0  0.13667108972E+03 -0.28172009301E+03  0.17613929022E+03  0.35926347871E+03  0.00000000000E+00 0.  1.
   -9000007    1    1    2    0  501 -0.15979413071E+03  0.14336583657E+03  0.42229870469E+03  0.62001945396E+03  0.40000000000E+03 0.  1.
<mgrwt>
<rscale>  2 0.45374331E+03</rscale>
<asrwt>0</asrwt>
<pdfrwt beam="1">  1        1 0.14075190E+00 0.45374331E+03</pdfrwt>
<pdfrwt beam="2">  1       -1 0.35301068E-01 0.45374331E+03</pdfrwt>
<totfact> 0.14108124E+02</totfact>
</mgrwt>
</event>
<event>
 6    1  0.9022793E-004  0.4823180E+03  0.7818608E-02  0.1018500E+00
         -1   -1    0    0    0  501 -0.00000000000E+00  0.00000000000E+00  0.23418822919E+03  0.23418822919E+03  0.00000000000E+00 0. -1.
          1   -1    0    0  502    0  0.00000000000E+00 -0.00000000000E+00 -0.13834788407E+04  0.13834788407E+04  0.00000000000E+00 0.  1.
    9000007    2    1    2  502    0 -0.20985732247E+03 -0.16851507403E+03 -0.10043307988E+04  0.11142281230E+04  0.40048287187E+03 0.  0.
    9000005    1    3    3    0    0 -0.17359588160E+03  0.56324014654E+02 -0.17015816653E+03  0.24952500148E+03  0.99999687468E+00 0.  0.
          4    1    3    3  502    0 -0.36261440863E+02 -0.22483908869E+03 -0.83417263230E+03  0.86470312152E+03  0.00000000000E+00 0.  1.
   -9000007    1    1    2    0  501  0.20985732247E+03  0.16851507403E+03 -0.14495981272E+03  0.50343894692E+03  0.40000000000E+03 0. -1.
<mgrwt>
<rscale>  2 0.48231796E+03</rscale>
<asrwt>0</asrwt>
<pdfrwt beam="1">  1        1 0.21284290E+00 0.48231796E+03</pdfrwt>
<pdfrwt beam="2">  1       -1 0.36028959E-01 0.48231796E+03</pdfrwt>
<totfact> 0.61672087E+01</totfact>
</mgrwt>
</event>
<event>
 6    1  0.9022793E-004  0.4046540E+03  0.7818608E-02  0.1042180E+00
          2   -1    0    0  502    0  0.00000000000E+00  0.00000000000E+00  0.40817076879E+04  0.40817076879E+04  0.00000000000E+00 0. -1.
         -2   -1    0    0    0  501 -0.00000000000E+00 -0.00000000000E+00 -0.46808604049E+02  0.46808604049E+02  0.00000000000E+00 0.  1.
    9000007    2    1    2  502    0  0.39838080675E+02  0.43370391642E+02  0.27994130693E+04  0.28285571558E+04  0.40069188589E+03 0.  0.
    9000005    1    3    3    0    0 -0.70526640424E+02  0.91441542744E+02  0.25394556432E+04  0.25420801574E+04  0.99999687468E+00 0.  0.
          4    1    3    3  502    0  0.11036472110E+03 -0.48071151102E+02  0.25995742611E+03  0.28647699841E+03  0.00000000000E+00 0.  1.
   -9000007    1    1    2    0  501 -0.39838080675E+02 -0.43370391642E+02  0.12354860145E+04  0.12999591361E+04  0.40000000000E+03 0.  1.
<mgrwt>
<rscale>  2 0.40465395E+03</rscale>
<asrwt>0</asrwt>
<pdfrwt beam="1">  1        2 0.62795475E+00 0.40465395E+03</pdfrwt>
<pdfrwt beam="2">  1       -2 0.72013269E-02 0.40465395E+03</pdfrwt>
<totfact> 0.40894413E+01</totfact>
</mgrwt>
</event>
<event>
 6    1  0.9022793E-004  0.4270650E+03  0.7818608E-02  0.1034791E+00
          2   -1    0    0  502    0  0.00000000000E+00  0.00000000000E+00  0.53382825727E+03  0.53382825727E+03  0.00000000000E+00 0.  1.
         -2   -1    0    0    0  501 -0.00000000000E+00 -0.00000000000E+00 -0.37130084136E+03  0.37130084136E+03  0.00000000000E+00 0. -1.
    9000007    2    1    2  502    0  0.13252810520E+03 -0.69861585249E+02 -0.46629940994E+02  0.42953353546E+03  0.39985043069E+03 0.  0.
    9000005    1    3    3    0    0  0.82295286917E+02 -0.14353623682E+03 -0.19542776541E+03  0.25606283802E+03  0.99999687468E+00 0.  0.
          4    1    3    3  502    0  0.50232818281E+02  0.73674651573E+02  0.14879782442E+03  0.17347069743E+03  0.00000000000E+00 0.  1.
   -9000007    1    1    2    0  501 -0.13252810520E+03  0.69861585249E+02  0.20915735690E+03  0.47559556317E+03  0.40000000000E+03 0.  1.
<mgrwt>
<rscale>  2 0.42706500E+03</rscale>
<asrwt>0</asrwt>
<pdfrwt beam="1">  1        2 0.82127424E-01 0.42706500E+03</pdfrwt>
<pdfrwt beam="2">  1       -2 0.57123206E-01 0.42706500E+03</pdfrwt>
<totfact> 0.16853677E+02</totfact>
</mgrwt>
</event>
<event>
 6    1  0.9022793E-004  0.6488598E+03  0.7818608E-02  0.9808921E-01
          1   -1    0    0  502    0  0.00000000000E+00  0.00000000000E+00  0.63586881593E+03  0.63586881593E+03  0.00000000000E+00 0. -1.
         -1   -1    0    0    0  501 -0.00000000000E+00 -0.00000000000E+00 -0.67477131214E+03  0.67477131214E+03  0.00000000000E+00 0.  1.
    9000007    2    1    2  502    0 -0.50305025010E+03 -0.88852258615E+02  0.70291938525E+02  0.65270570688E+03  0.40016184874E+03 0.  0.
    9000005    1    3    3    0    0 -0.47254924436E+03  0.13376316929E+02  0.17417077668E+03  0.50380370547E+03  0.99999687468E+00 0.  0.
          4    1    3    3  502    0 -0.30501005742E+02 -0.10222857554E+03 -0.10387883816E+03  0.14890200142E+03  0.00000000000E+00 0.  1.
   -9000007    1    1    2    0  501  0.50305025010E+03  0.88852258615E+02 -0.10919443473E+03  0.65793442118E+03  0.40000000000E+03 0.  1.
<mgrwt>
<rscale>  2 0.64885979E+03</rscale>
<asrwt>0</asrwt>
<pdfrwt beam="1">  1        1 0.97825971E-01 0.64885979E+03</pdfrwt>
<pdfrwt beam="2">  1       -1 0.10381097E+00 0.64885979E+03</pdfrwt>
<totfact> 0.28505627E+01</totfact>
</mgrwt>
</event>
<event>
 6    1  0.9022793E-004  0.5248429E+03  0.7818608E-02  0.1007491E+00
         -1   -1    0    0    0  501 -0.00000000000E+00  0.00000000000E+00  0.23407099475E+03  0.23407099475E+03  0.00000000000E+00 0. -1.
          1   -1    0    0  502    0  0.00000000000E+00 -0.00000000000E+00 -0.13620495092E+04  0.13620495092E+04  0.00000000000E+00 0.  1.
    9000007    2    1    2  502    0 -0.29648810232E+03  0.16586413673E+03 -0.85832882280E+03  0.10060975698E+04  0.40010979141E+03 0.  0.
    9000005    1    3    3    0    0 -0.26468461067E+03 -0.78760231631E+02 -0.49746818925E+03  0.56897866086E+03  0.99999687468E+00 0.  0.
          4    1    3    3  502    0 -0.31803491649E+02  0.24462436836E+03 -0.36086063356E+03  0.43711890891E+03  0.00000000000E+00 0.  1.
   -9000007    1    1    2    0  501  0.29648810232E+03 -0.16586413673E+03 -0.26964969168E+03  0.59002293421E+03  0.40000000000E+03 0. -1.
<mgrwt>
<rscale>  2 0.52484286E+03</rscale>
<asrwt>0</asrwt>
<pdfrwt beam="1">  1        1 0.20954607E+00 0.52484286E+03</pdfrwt>
<pdfrwt beam="2">  1       -1 0.36010923E-01 0.52484286E+03</pdfrwt>
<totfact> 0.63450556E+01</totfact>
</mgrwt>
</event>
<event>
 6    1  0.9022793E-004  0.4677653E+03  0.7818608E-02  0.1022553E+00
         -2   -1    0    0    0  501 -0.00000000000E+00  0.00000000000E+00  0.15916546930E+03  0.15916546930E+03  0.00000000000E+00 0.  1.
          2   -1    0    0  502    0  0.00000000000E+00 -0.00000000000E+00 -0.16116154898E+04  0.16116154898E+04  0.00000000000E+00 0. -1.
    9000007    2    1    2  502    0  0.15669255242E+03  0.18157580941E+03 -0.38858338428E+03  0.60917235453E+03  0.40320166225E+03 0.  0.
    9000005    1    3    3    0    0  0.78262633269E+02 -0.96013837501E+02 -0.27043826879E+03  0.29745849119E+03  0.99999687468E+00 0.  0.
          4    1    3    3  502    0  0.78429919151E+02  0.27758964691E+03 -0.11814511549E+03  0.31171386335E+03  0.00000000000E+00 0.  1.
   -9000007    1    1    2    0  501 -0.15669255242E+03 -0.18157580941E+03 -0.10638666362E+04  0.11616086046E+04  0.40000000000E+03 0. -1.
<mgrwt>
<rscale>  2 0.46776526E+03</rscale>
<asrwt>0</asrwt>
<pdfrwt beam="1">  1        2 0.24794086E+00 0.46776526E+03</pdfrwt>
<pdfrwt beam="2">  1       -2 0.24486994E-01 0.46776526E+03</pdfrwt>
<totfact> 0.17122516E+02</totfact>
</mgrwt>
</event>
<event>
 6    1  0.9022793E-004  0.6040762E+03  0.7818608E-02  0.9896985E-01
          1   -1    0    0  502    0  0.00000000000E+00  0.00000000000E+00  0.19692002571E+04  0.19692002571E+04  0.00000000000E+00 0.  1.
         -1   -1    0    0    0  501 -0.00000000000E+00 -0.00000000000E+00 -0.18717251357E+03  0.18717251357E+03  0.00000000000E+00 0. -1.
    9000007    2    1    2  502    0  0.41405262017E+03  0.18141596804E+03  0.99930197470E+03  0.11679341257E+04  0.40139053249E+03 0.  0.
    9000005    1    3    3    0    0  0.77105275412E+02  0.12550459444E+03  0.44494614992E+02  0.15387461610E+03  0.99999687468E+00 0.  0.
          4    1    3    3  502    0  0.33694734476E+03  0.55911373603E+02  0.95480735971E+03  0.10140595096E+04  0.00000000000E+00 0.  1.
   -9000007    1    1    2    0  501 -0.41405262017E+03 -0.18141596804E+03  0.78272576885E+03  0.98843864501E+03  0.40000000000E+03 0. -1.
<mgrwt>
<rscale>  2 0.60407622E+03</rscale>
<asrwt>0</asrwt>
<pdfrwt beam="1">  1        1 0.30295387E+00 0.60407622E+03</pdfrwt>
<pdfrwt beam="2">  1       -1 0.28795773E-01 0.60407622E+03</pdfrwt>
<totfact> 0.36238646E+01</totfact>
</mgrwt>
</event>
<event>
 6    1  0.9022793E-004  0.4397086E+03  0.7818608E-02  0.1030836E+00
         -1   -1    0    0    0  501 -0.00000000000E+00  0.00000000000E+00  0.21680521903E+03  0.21680521903E+03  0.00000000000E+00 0.  1.
          1   -1    0    0  502    0  0.00000000000E+00 -0.00000000000E+00 -0.89327726608E+03  0.89327726608E+03  0.00000000000E+00 0. -1.
    9000007    2    1    2  502    0  0.15739095819E+03 -0.91719809822E+02 -0.31569169096E+03  0.54144648328E+03  0.40039806852E+03 0.  0.
    9000005    1    3    3    0    0  0.17958717875E+03  0.12245917337E+03 -0.20733308104E+03  0.30039276023E+03  0.99999687468E+00 0.  0.
          4    1    3    3  502    0 -0.22196220557E+02 -0.21417898319E+03 -0.10835860992E+03  0.24105372304E+03  0.00000000000E+00 0.  1.
   -9000007    1    1    2    0  501 -0.15739095819E+03  0.91719809822E+02 -0.36078035609E+03  0.56863600182E+03  0.40000000000E+03 0.  1.
<mgrwt>
<rscale>  2 0.43970863E+03</rscale>
<asrwt>0</asrwt>
<pdfrwt beam="1">  1        1 0.13742727E+00 0.43970863E+03</pdfrwt>
<pdfrwt beam="2">  1       -1 0.33354650E-01 0.43970863E+03</pdfrwt>
<totfact> 0.16245741E+02</totfact>
</mgrwt>
</event>
<event>
 6    1  0.9022793E-004  0.4633068E+03  0.7818608E-02  0.1023827E+00
         -1   -1    0    0    0  501 -0.00000000000E+00  0.00000000000E+00  0.14310951517E+04  0.14310951517E+04  0.00000000000E+00 0. -1.
          1   -1    0    0  502    0  0.00000000000E+00 -0.00000000000E+00 -0.15407934112E+03  0.15407934112E+03  0.00000000000E+00 0.  1.
    9000007    2    1    2  502    0 -0.21040812879E+03  0.10220621571E+03  0.50932754083E+03  0.68847890863E+03  0.39983868321E+03 0.  0.
    9000005    1    3    3    0    0  0.71577580060E+02 -0.73169552112E+02  0.23999403065E+03  0.26091237622E+03  0.99999687468E+00 0.  0.
          4    1    3    3  502    0 -0.28198570885E+03  0.17537576782E+03  0.26933351018E+03  0.42756653241E+03  0.00000000000E+00 0.  1.
   -9000007    1    1    2    0  501  0.21040812879E+03 -0.10220621571E+03  0.76768826970E+03  0.89669558415E+03  0.40000000000E+03 0. -1.
<mgrwt>
<rscale>  2 0.46330678E+03</rscale>
<asrwt>0</asrwt>
<pdfrwt beam="1">  1        1 0.23704515E-01 0.46330678E+03</pdfrwt>
<pdfrwt beam="2">  1       -1 0.22016848E+00 0.46330678E+03</pdfrwt>
<totfact> 0.24437053E+01</totfact>
</mgrwt>
</event>
<event>
 6    1  0.9022793E-004  0.4528931E+03  0.7818608E-02  0.1026863E+00
          1   -1    0    0  502    0  0.00000000000E+00  0.00000000000E+00  0.82221221128E+03  0.82221221128E+03  0.00000000000E+00 0.  1.
         -1   -1    0    0    0  501 -0.00000000000E+00 -0.00000000000E+00 -0.25489098409E+03  0.25489098409E+03  0.00000000000E+00 0. -1.
    9000007    2    1    2  502    0  0.20306738138E+03 -0.62426284466E+02  0.20506160204E+03  0.49713299063E+03  0.39994693070E+03 0.  0.
    9000005    1    3    3    0    0  0.22041529964E+03  0.43168512660E+02 -0.41449075371E+02  0.22839757144E+03  0.99999687468E+00 0.  0.
          4    1    3    3  502    0 -0.17347918260E+02 -0.10559479713E+03  0.24651067741E+03  0.26873541919E+03  0.00000000000E+00 0.  1.
   -9000007    1    1    2    0  501 -0.20306738138E+03  0.62426284466E+02  0.36225962515E+03  0.57997020474E+03  0.40000000000E+03 0.  1.
<mgrwt>
<rscale>  2 0.45289312E+03</rscale>
<asrwt>0</asrwt>
<pdfrwt beam="1">  1        1 0.12649419E+00 0.45289312E+03</pdfrwt>
<pdfrwt beam="2">  1       -1 0.39213998E-01 0.45289312E+03</pdfrwt>
<totfact> 0.13929224E+02</totfact>
</mgrwt>
</event>
<event>
 6    1  0.9022793E-004  0.4637932E+03  0.7818608E-02  0.1023687E+00
         -2   -1    0    0    0  501 -0.00000000000E+00  0.00000000000E+00  0.56219431050E+03  0.56219431050E+03  0.00000000000E+00 0.  1.
          2   -1    0    0  502    0  0.00000000000E+00 -0.00000000000E+00 -0.44611992413E+03  0.44611992413E+03  0.00000000000E+00 0. -1.
    9000007    2    1    2  502    0 -0.11292828120E+02  0.23555870102E+03  0.24819132392E+03  0.52554066992E+03  0.39872124709E+03 0.  0.
    9000005    1    3    3    0    0  0.45019228871E+02 -0.10639512032E+03  0.46311898205E+02  0.12446864868E+03  0.99999687468E+00 0.  0.
          4    1    3    3  502    0 -0.56312056991E+02  0.34195382134E+03  0.20187942571E+03  0.40107202124E+03  0.00000000000E+00 0.  1.
   -9000007    1    1    2    0  501  0.11292828120E+02 -0.23555870102E+03 -0.13211693755E+03  0.48277356471E+03  0.40000000000E+03 0.  1.
<mgrwt>
<rscale>  2 0.46379321E+03</rscale>
<asrwt>0</asrwt>
<pdfrwt beam="1">  1        2 0.68633834E-01 0.46379321E+03</pdfrwt>
<pdfrwt beam="2">  1       -2 0.86491433E-01 0.46379321E+03</pdfrwt>
<totfact> 0.83835214E+01</totfact>
</mgrwt>
</event>
<event>
 6    1  0.9022793E-004  0.4081313E+03  0.7818608E-02  0.1041000E+00
          1   -1    0    0  502    0  0.00000000000E+00  0.00000000000E+00  0.10464492366E+04  0.10464492366E+04  0.00000000000E+00 0.  1.
         -1   -1    0    0    0  501 -0.00000000000E+00 -0.00000000000E+00 -0.23253719438E+03  0.23253719438E+03  0.00000000000E+00 0. -1.
    9000007    2    1    2  502    0  0.27785230800E+02  0.69533991053E+02  0.76694559696E+03  0.86933677342E+03  0.40241009178E+03 0.  0.
    9000005    1    3    3    0    0 -0.51461525390E+02  0.22601988760E+03  0.47962710911E+03  0.53270671291E+03  0.99999687468E+00 0.  0.
          4    1    3    3  502    0  0.79246756190E+02 -0.15648589655E+03  0.28731848784E+03  0.33663006051E+03  0.00000000000E+00 0.  1.
   -9000007    1    1    2    0  501 -0.27785230800E+02 -0.69533991053E+02  0.46966445280E+02  0.40964965757E+03  0.40000000000E+03 0. -1.
<mgrwt>
<rscale>  2 0.40813126E+03</rscale>
<asrwt>0</asrwt>
<pdfrwt beam="1">  1        1 0.16099219E+00 0.40813126E+03</pdfrwt>
<pdfrwt beam="2">  1       -1 0.35774954E-01 0.40813126E+03</pdfrwt>
<totfact> 0.10979197E+02</totfact>
</mgrwt>
</event>
<event>
 6    1  0.9022793E-004  0.4012299E+03  0.7818608E-02  0.1043355E+00
         -1   -1    0    0    0  501 -0.00000000000E+00  0.00000000000E+00  0.19790702627E+03  0.19790702627E+03  0.00000000000E+00 0.  1.
          1   -1    0    0  502    0  0.00000000000E+00 -0.00000000000E+00 -0.82484285199E+03  0.82484285199E+03  0.00000000000E+00 0. -1.
    9000007    2    1    2  502    0  0.19188975247E+02  0.23444053651E+02 -0.37365909659E+03  0.54833767148E+03  0.40016901563E+03 0.  0.
    9000005    1    3    3    0    0  0.18277590375E+03  0.11280081578E+03 -0.19309157997E+03  0.28881899743E+03  0.99999687468E+00 0.  0.
          4    1    3    3  502    0 -0.16358692850E+03 -0.89356762132E+02 -0.18056751663E+03  0.25951867404E+03  0.00000000000E+00 0.  1.
   -9000007    1    1    2    0  501 -0.19188975247E+02 -0.23444053651E+02 -0.25327672913E+03  0.47441220678E+03  0.40000000000E+03 0.  1.
<mgrwt>
<rscale>  2 0.40122992E+03</rscale>
<asrwt>0</asrwt>
<pdfrwt beam="1">  1        1 0.12689890E+00 0.40122992E+03</pdfrwt>
<pdfrwt beam="2">  1       -1 0.30447234E-01 0.40122992E+03</pdfrwt>
<totfact> 0.21747274E+02</totfact>
</mgrwt>
</event>
<event>
 6    1  0.9022793E-004  0.4297474E+03  0.7818608E-02  0.1033940E+00
          2   -1    0    0  502    0  0.00000000000E+00  0.00000000000E+00  0.28812821232E+04  0.28812821232E+04  0.00000000000E+00 0. -1.
         -2   -1    0    0    0  501 -0.00000000000E+00 -0.00000000000E+00 -0.11773135808E+03  0.11773135808E+03  0.00000000000E+00 0.  1.
    9000007    2    1    2  502    0 -0.67260704175E+02 -0.13921532553E+03  0.37127006479E+03  0.56859955390E+03  0.40194412858E+03 0.  0.
    9000005    1    3    3    0    0  0.74675413381E+02  0.11289878670E+03  0.76139858402E+02  0.15530882600E+03  0.99999687468E+00 0.  0.
          4    1    3    3  502    0 -0.14193611756E+03 -0.25211411223E+03  0.29513020639E+03  0.41329072791E+03  0.00000000000E+00 0.  1.
   -9000007    1    1    2    0  501  0.67260704175E+02  0.13921532553E+03  0.23922807003E+04  0.24304139274E+04  0.40000000000E+03 0. -1.
<mgrwt>
<rscale>  2 0.42974737E+03</rscale>
<asrwt>0</asrwt>
<pdfrwt beam="1">  1        2 0.44327412E+00 0.42974737E+03</pdfrwt>
<pdfrwt beam="2">  1       -2 0.18112519E-01 0.42974737E+03</pdfrwt>
<totfact> 0.58365259E+01</totfact>
</mgrwt>
</event>
<event>
 6    1  0.9022793E-004  0.6078394E+03  0.7818608E-02  0.9889274E-01
          1   -1    0    0  502    0  0.00000000000E+00  0.00000000000E+00  0.51134673692E+03  0.51134673692E+03  0.00000000000E+00 0. -1.
         -1   -1    0    0    0  501 -0.00000000000E+00 -0.00000000000E+00 -0.72296911278E+03  0.72296911278E+03  0.00000000000E+00 0.  1.
    9000007    2    1    2  502    0 -0.41078566803E+03 -0.20117437940E+03 -0.90823844918E+02  0.61479322616E+03  0.40063168140E+03 0.  0.
    9000005    1    3    3    0    0 -0.33015735526E+03 -0.10032750172E+03  0.12188854483E+03  0.36596079597E+03  0.99999687468E+00 0.  0.
          4    1    3    3  502    0 -0.80628312767E+02 -0.10084687769E+03 -0.21271238975E+03  0.24883243019E+03  0.00000000000E+00 0.  1.
   -9000007    1    1    2    0  501  0.41078566803E+03  0.20117437940E+03 -0.12079853094E+03  0.61952262353E+03  0.40000000000E+03 0. -1.
<mgrwt>
<rscale>  2 0.60783944E+03</rscale>
<asrwt>0</asrwt>
<pdfrwt beam="1">  1        1 0.78668728E-01 0.60783944E+03</pdfrwt>
<pdfrwt beam="2">  1       -1 0.11122602E+00 0.60783944E+03</pdfrwt>
<totfact> 0.33182205E+01</totfact>
</mgrwt>
</event>
<event>
 6    1  0.9022793E-004  0.8342266E+03  0.7818608E-02  0.9511755E-01
         -2   -1    0    0    0  501 -0.00000000000E+00  0.00000000000E+00  0.12402626860E+04  0.12402626860E+04  0.00000000000E+00 0.  1.
          2   -1    0    0  502    0  0.00000000000E+00 -0.00000000000E+00 -0.13027719453E+04  0.13027719453E+04  0.00000000000E+00 0. -1.
    9000007    2    1    2  502    0  0.84226141337E+02 -0.72738759811E+03 -0.99062776699E+03  0.12949998862E+04  0.39936771497E+03 0.  0.
    9000005    1    3    3    0    0 -0.14890039162E+02 -0.28875407761E+03 -0.70570909229E+03  0.76264470990E+03  0.99999687468E+00 0.  0.
          4    1    3    3  502    0  0.99116180499E+02 -0.43863352050E+03 -0.28491867470E+03  0.53235517630E+03  0.00000000000E+00 0.  1.
   -9000007    1    1    2    0  501 -0.84226141337E+02  0.72738759811E+03  0.92811850766E+03  0.12480347451E+04  0.40000000000E+03 0.  1.
<mgrwt>
<rscale>  2 0.83422659E+03</rscale>
<asrwt>0</asrwt>
<pdfrwt beam="1">  1        2 0.20042645E+00 0.83422659E+03</pdfrwt>
<pdfrwt beam="2">  1       -2 0.19080964E+00 0.83422659E+03</pdfrwt>
<totfact> 0.25567076E+00</totfact>
</mgrwt>
</event>
<event>
 6    1  0.9022793E-004  0.4667421E+03  0.7818608E-02  0.1022844E+00
         -2   -1    0    0    0  501 -0.00000000000E+00  0.00000000000E+00  0.14770871069E+03  0.14770871069E+03  0.00000000000E+00 0.  1.
          2   -1    0    0  502    0  0.00000000000E+00 -0.00000000000E+00 -0.15642686106E+04  0.15642686106E+04  0.00000000000E+00 0. -1.
    9000007    2    1    2  502    0 -0.22621849051E+03 -0.84471200348E+02 -0.91222749602E+03  0.10244736030E+04  0.39884454303E+03 0.  0.
    9000005    1    3    3    0    0 -0.14756698445E+03  0.15298366986E+03 -0.35675973777E+03  0.41528126448E+03  0.99999687468E+00 0.  0.
          4    1    3    3  502    0 -0.78651506065E+02 -0.23745487021E+03 -0.55546775825E+03  0.60919233847E+03  0.00000000000E+00 0.  1.
   -9000007    1    1    2    0  501  0.22621849051E+03  0.84471200348E+02 -0.50433240392E+03  0.68750371838E+03  0.40000000000E+03 0. -1.
<mgrwt>
<rscale>  2 0.46674210E+03</rscale>
<asrwt>0</asrwt>
<pdfrwt beam="1">  1        2 0.24065670E+00 0.46674210E+03</pdfrwt>
<pdfrwt beam="2">  1       -2 0.22724418E-01 0.46674210E+03</pdfrwt>
<totfact> 0.20744118E+02</totfact>
</mgrwt>
</event>
<event>
 6    1  0.9022793E-004  0.4139233E+03  0.7818608E-02  0.1039062E+00
         -2   -1    0    0    0  501 -0.00000000000E+00  0.00000000000E+00  0.11816637641E+03  0.11816637641E+03  0.00000000000E+00 0. -1.
          2   -1    0    0  502    0  0.00000000000E+00 -0.00000000000E+00 -0.15699329309E+04  0.15699329309E+04  0.00000000000E+00 0.  1.
    9000007    2    1    2  502    0  0.92981717581E+02  0.52246494031E+02 -0.95916165386E+03  0.10446438822E+04  0.39989306883E+03 0.  0.
    9000005    1    3    3    0    0  0.21853665220E+03  0.12652615485E+03 -0.73521423567E+03  0.77737256739E+03  0.99999687468E+00 0.  0.
          4    1    3    3  502    0 -0.12555493462E+03 -0.74279660817E+02 -0.22394741819E+03  0.26727131483E+03  0.00000000000E+00 0.  1.
   -9000007    1    1    2    0  501 -0.92981717581E+02 -0.52246494031E+02 -0.49260490066E+03  0.64345542510E+03  0.40000000000E+03 0. -1.
<mgrwt>
<rscale>  2 0.41392333E+03</rscale>
<asrwt>0</asrwt>
<pdfrwt beam="1">  1        2 0.24152813E+00 0.41392333E+03</pdfrwt>
<pdfrwt beam="2">  1       -2 0.18179443E-01 0.41392333E+03</pdfrwt>
<totfact> 0.30548678E+02</totfact>
</mgrwt>
</event>
<event>
 6    1  0.9022793E-004  0.5167045E+03  0.7818608E-02  0.1009508E+00
         -1   -1    0    0    0  501 -0.00000000000E+00  0.00000000000E+00  0.49475587312E+03  0.49475587312E+03  0.00000000000E+00 0. -1.
          1   -1    0    0  502    0  0.00000000000E+00 -0.00000000000E+00 -0.54191820194E+03  0.54191820194E+03  0.00000000000E+00 0.  1.
    9000007    2    1    2  502    0 -0.13867537155E+03 -0.29517309871E+03  0.10090201226E+02  0.51740933616E+03  0.40156268765E+03 0.  0.
    9000005    1    3    3    0    0 -0.10658679383E+01  0.85617787819E+02  0.66747910335E+02  0.10857175136E+03  0.99999687468E+00 0.  0.
          4    1    3    3  502    0 -0.13760950361E+03 -0.38079088653E+03 -0.56657709109E+02  0.40883758480E+03  0.00000000000E+00 0.  1.
   -9000007    1    1    2    0  501  0.13867537155E+03  0.29517309871E+03 -0.57252530045E+02  0.51926473891E+03  0.40000000000E+03 0. -1.
<mgrwt>
<rscale>  2 0.51670454E+03</rscale>
<asrwt>0</asrwt>
<pdfrwt beam="1">  1        1 0.83372031E-01 0.51670454E+03</pdfrwt>
<pdfrwt beam="2">  1       -1 0.76116288E-01 0.51670454E+03</pdfrwt>
<totfact> 0.71536025E+01</totfact>
</mgrwt>
</event>
<event>
 6    1  0.9022793E-004  0.5059247E+03  0.7818608E-02  0.1012244E+00
          2   -1    0    0  502    0  0.00000000000E+00  0.00000000000E+00  0.56415888928E+03  0.56415888928E+03  0.00000000000E+00 0.  1.
         -2   -1    0    0    0  501 -0.00000000000E+00 -0.00000000000E+00 -0.56576166461E+03  0.56576166461E+03  0.00000000000E+00 0. -1.
    9000007    2    1    2  502    0  0.22319259551E+03 -0.21448663680E+03 -0.25223692629E+03  0.56544120998E+03  0.40035089972E+03 0.  0.
    9000005    1    3    3    0    0  0.23431889753E+03 -0.20525667923E+03 -0.34888665203E+03  0.46771630938E+03  0.99999687468E+00 0.  0.
          4    1    3    3  502    0 -0.11126302021E+02 -0.92299575754E+01  0.96649725733E+02  0.97724900603E+02  0.00000000000E+00 0.  1.
   -9000007    1    1    2    0  501 -0.22319259551E+03  0.21448663680E+03  0.25063415096E+03  0.56447934390E+03  0.40000000000E+03 0.  1.
<mgrwt>
<rscale>  2 0.50592473E+03</rscale>
<asrwt>0</asrwt>
<pdfrwt beam="1">  1        2 0.86793676E-01 0.50592473E+03</pdfrwt>
<pdfrwt beam="2">  1       -2 0.87040256E-01 0.50592473E+03</pdfrwt>
<totfact> 0.62874217E+01</totfact>
</mgrwt>
</event>
<event>
 6    1  0.9022793E-004  0.4047934E+03  0.7818608E-02  0.1042132E+00
         -2   -1    0    0    0  501 -0.00000000000E+00  0.00000000000E+00  0.28040625893E+03  0.28040625893E+03  0.00000000000E+00 0. -1.
          2   -1    0    0  502    0  0.00000000000E+00 -0.00000000000E+00 -0.81590630597E+03  0.81590630597E+03  0.00000000000E+00 0.  1.
    9000007    2    1    2  502    0 -0.21842655011E+02 -0.56802594483E+02  0.24174454921E+02  0.40570472794E+03  0.40038517166E+03 0.  0.
    9000005    1    3    3    0    0  0.10314820632E+03 -0.18122794867E+03  0.75899362433E+02  0.22191177313E+03  0.99999687468E+00 0.  0.
          4    1    3    3  502    0 -0.12499086133E+03  0.12442535418E+03 -0.51724907512E+02  0.18379295481E+03  0.00000000000E+00 0.  1.
   -9000007    1    1    2    0  501  0.21842655011E+02  0.56802594483E+02 -0.55967450197E+03  0.69060783696E+03  0.40000000000E+03 0.  1.
<mgrwt>
<rscale>  2 0.40479341E+03</rscale>
<asrwt>0</asrwt>
<pdfrwt beam="1">  1        2 0.12552405E+00 0.40479341E+03</pdfrwt>
<pdfrwt beam="2">  1       -2 0.43139425E-01 0.40479341E+03</pdfrwt>
<totfact> 0.17707639E+02</totfact>
</mgrwt>
</event>
<event>
 6    1  0.9022793E-004  0.5268821E+03  0.7818608E-02  0.1006991E+00
          2   -1    0    0  502    0  0.00000000000E+00  0.00000000000E+00  0.82612691356E+03  0.82612691356E+03  0.00000000000E+00 0.  1.
         -2   -1    0    0    0  501 -0.00000000000E+00 -0.00000000000E+00 -0.33784538651E+03  0.33784538651E+03  0.00000000000E+00 0. -1.
    9000007    2    1    2  502    0 -0.22502067745E+03 -0.25934834189E+03  0.28665461329E+03  0.59957059909E+03  0.39927204793E+03 0.  0.
    9000005    1    3    3    0    0  0.13191028660E+02 -0.19279927093E+03 -0.32322618754E+02  0.19593701484E+03  0.99999687468E+00 0.  0.
          4    1    3    3  502    0 -0.23821170610E+03 -0.66549070956E+02  0.31897723204E+03  0.40363358424E+03  0.00000000000E+00 0.  1.
   -9000007    1    1    2    0  501  0.22502067745E+03  0.25934834189E+03  0.20162691376E+03  0.56440170098E+03  0.40000000000E+03 0.  1.
<mgrwt>
<rscale>  2 0.52688215E+03</rscale>
<asrwt>0</asrwt>
<pdfrwt beam="1">  1        2 0.12709645E+00 0.52688215E+03</pdfrwt>
<pdfrwt beam="2">  1       -2 0.51976213E-01 0.52688215E+03</pdfrwt>
<totfact> 0.11865915E+02</totfact>
</mgrwt>
</event>
<event>
 6    1  0.9022793E-004  0.4885669E+03  0.7818608E-02  0.1016807E+00
         -2   -1    0    0    0  501 -0.00000000000E+00  0.00000000000E+00  0.39609131764E+03  0.39609131764E+03  0.00000000000E+00 0.  1.
          2   -1    0    0  502    0  0.00000000000E+00 -0.00000000000E+00 -0.10415603314E+04  0.10415603314E+04  0.00000000000E+00 0. -1.
    9000007    2    1    2  502    0 -0.27934394379E+03  0.25287451453E+02  0.14389132184E+03  0.50934015307E+03  0.40006272619E+03 0.  0.
    9000005    1    3    3    0    0 -0.34020301617E+03 -0.94209926934E+02  0.86360703336E+02  0.36341818009E+03  0.99999687468E+00 0.  0.
          4    1    3    3  502    0  0.60859072379E+02  0.11949737839E+03  0.57530618502E+02  0.14592197298E+03  0.00000000000E+00 0.  1.
   -9000007    1    1    2    0  501  0.27934394379E+03 -0.25287451453E+02 -0.78936033557E+03  0.92831149595E+03  0.40000000000E+03 0. -1.
<mgrwt>
<rscale>  2 0.48856687E+03</rscale>
<asrwt>0</asrwt>
<pdfrwt beam="1">  1        2 0.16024005E+00 0.48856687E+03</pdfrwt>
<pdfrwt beam="2">  1       -2 0.60937126E-01 0.48856687E+03</pdfrwt>
<totfact> 0.61974958E+01</totfact>
</mgrwt>
</event>
<event>
 6    1  0.9022793E-004  0.4322229E+03  0.7818608E-02  0.1033160E+00
         -1   -1    0    0    0  501 -0.00000000000E+00  0.00000000000E+00  0.10126865994E+04  0.10126865994E+04  0.00000000000E+00 0.  1.
          1   -1    0    0  502    0  0.00000000000E+00 -0.00000000000E+00 -0.22584299687E+03  0.22584299687E+03  0.00000000000E+00 0. -1.
    9000007    2    1    2  502    0 -0.15772043120E+03  0.46891343531E+02  0.12816825811E+03  0.45053991242E+03  0.39935520252E+03 0.  0.
    9000005    1    3    3    0    0 -0.25805966509E+03  0.39936963174E+02 -0.30260082618E+02  0.26288100800E+03  0.99999687468E+00 0.  0.
          4    1    3    3  502    0  0.10033923389E+03  0.69543803572E+01  0.15842834073E+03  0.18765890443E+03  0.00000000000E+00 0.  1.
   -9000007    1    1    2    0  501  0.15772043120E+03 -0.46891343531E+02  0.65867534442E+03  0.78798968386E+03  0.40000000000E+03 0.  1.
<mgrwt>
<rscale>  2 0.43222291E+03</rscale>
<asrwt>0</asrwt>
<pdfrwt beam="1">  1        1 0.34745077E-01 0.43222291E+03</pdfrwt>
<pdfrwt beam="2">  1       -1 0.15579794E+00 0.43222291E+03</pdfrwt>
<totfact> 0.42163448E+01</totfact>
</mgrwt>
</event>
<event>
 6    1  0.9022793E-004  0.4144335E+03  0.7818608E-02  0.1038893E+00
         -1   -1    0    0    0  501 -0.00000000000E+00  0.00000000000E+00  0.22432741403E+03  0.22432741403E+03  0.00000000000E+00 0.  1.
          1   -1    0    0  502    0  0.00000000000E+00 -0.00000000000E+00 -0.82078475938E+03  0.82078475938E+03  0.00000000000E+00 0. -1.
    9000007    2    1    2  502    0 -0.10277652279E+03 -0.33503175391E+02 -0.16284351116E+03  0.44535686197E+03  0.40017402336E+03 0.  0.
    9000005    1    3    3    0    0  0.13595554333E+03 -0.33561183899E+02  0.24151508311E+02  0.14210755847E+03  0.99999687468E+00 0.  0.
          4    1    3    3  502    0 -0.23873206613E+03  0.58008507714E-01 -0.18699501947E+03  0.30324930349E+03  0.00000000000E+00 0.  1.
   -9000007    1    1    2    0  501  0.10277652279E+03  0.33503175391E+02 -0.43361383419E+03  0.59975531144E+03  0.40000000000E+03 0. -1.
<mgrwt>
<rscale>  2 0.41443345E+03</rscale>
<asrwt>0</asrwt>
<pdfrwt beam="1">  1        1 0.12627458E+00 0.41443345E+03</pdfrwt>
<pdfrwt beam="2">  1       -1 0.34511911E-01 0.41443345E+03</pdfrwt>
<totfact> 0.17597591E+02</totfact>
</mgrwt>
</event>
<event>
 6    1  0.9022793E-004  0.4594483E+03  0.7818608E-02  0.1024941E+00
          2   -1    0    0  502    0  0.00000000000E+00  0.00000000000E+00  0.22429638748E+03  0.22429638748E+03  0.00000000000E+00 0. -1.
         -2   -1    0    0    0  501 -0.00000000000E+00 -0.00000000000E+00 -0.10235483928E+04  0.10235483928E+04  0.00000000000E+00 0.  1.
    9000007    2    1    2  502    0 -0.22455925839E+03  0.21678017806E+02 -0.22275332312E+03  0.51079150705E+03  0.40048985472E+03 0.  0.
    9000005    1    3    3    0    0  0.49179546917E+02 -0.11524054642E+03  0.10835982794E+02  0.12576736418E+03  0.99999687468E+00 0.  0.
          4    1    3    3  502    0 -0.27373880531E+03  0.13691856423E+03 -0.23358930591E+03  0.38502414288E+03  0.00000000000E+00 0.  1.
   -9000007    1    1    2    0  501  0.22455925839E+03 -0.21678017806E+02 -0.57649868221E+03  0.73705327323E+03  0.40000000000E+03 0.  1.
<mgrwt>
<rscale>  2 0.45944833E+03</rscale>
<asrwt>0</asrwt>
<pdfrwt beam="1">  1        2 0.34507136E-01 0.45944833E+03</pdfrwt>
<pdfrwt beam="2">  1       -2 0.15746898E+00 0.45944833E+03</pdfrwt>
<totfact> 0.41340208E+01</totfact>
</mgrwt>
</event>
<event>
 6    1  0.9022793E-004  0.4748533E+03  0.7818608E-02  0.1020559E+00
         -2   -1    0    0    0  501 -0.00000000000E+00  0.00000000000E+00  0.19536462271E+03  0.19536462271E+03  0.00000000000E+00 0. -1.
          2   -1    0    0  502    0  0.00000000000E+00 -0.00000000000E+00 -0.13871145194E+04  0.13871145194E+04  0.00000000000E+00 0.  1.
    9000007    2    1    2  502    0  0.14842745043E+03 -0.20851121714E+03 -0.27160814728E+03  0.54702345754E+03  0.39994504837E+03 0.  0.
    9000005    1    3    3    0    0  0.19034557221E+03 -0.55984391534E+02  0.35509727491E+02  0.20156296708E+03  0.99999687468E+00 0.  0.
          4    1    3    3  502    0 -0.41918121786E+02 -0.15252682560E+03 -0.30711787477E+03  0.34546049046E+03  0.00000000000E+00 0.  1.
   -9000007    1    1    2    0  501 -0.14842745043E+03  0.20851121714E+03 -0.92014174942E+03  0.10354556846E+04  0.40000000000E+03 0.  1.
<mgrwt>
<rscale>  2 0.47485330E+03</rscale>
<asrwt>0</asrwt>
<pdfrwt beam="1">  1        2 0.21340223E+00 0.47485330E+03</pdfrwt>
<pdfrwt beam="2">  1       -2 0.30056097E-01 0.47485330E+03</pdfrwt>
<totfact> 0.15666711E+02</totfact>
</mgrwt>
</event>
<event>
 6    1  0.9022793E-004  0.7807292E+03  0.7818608E-02  0.9588337E-01
          1   -1    0    0  502    0  0.00000000000E+00  0.00000000000E+00  0.65545959075E+03  0.65545959075E+03  0.00000000000E+00 0. -1.
         -1   -1    0    0    0  501 -0.00000000000E+00 -0.00000000000E+00 -0.12920157689E+04  0.12920157689E+04  0.00000000000E+00 0.  1.
    9000007    2    1    2  502    0  0.36270976917E+03  0.56391310740E+03  0.19720055625E+03  0.80523779177E+03  0.39995433809E+03 0.  0.
    9000005    1    3    3    0    0  0.41970897471E+03  0.56381323082E+03  0.22990101197E+03  0.73952448100E+03  0.99999687468E+00 0.  0.
          4    1    3    3  502    0 -0.56999205541E+02  0.99876579456E-01 -0.32700455723E+02  0.65713310768E+02  0.00000000000E+00 0.  1.
   -9000007    1    1    2    0  501 -0.36270976917E+03 -0.56391310740E+03 -0.83375673442E+03  0.11422375679E+04  0.40000000000E+03 0.  1.
<mgrwt>
<rscale>  2 0.78072921E+03</rscale>
<asrwt>0</asrwt>
<pdfrwt beam="1">  1        1 0.10083994E+00 0.78072921E+03</pdfrwt>
<pdfrwt beam="2">  1       -1 0.19877165E+00 0.78072921E+03</pdfrwt>
<totfact> 0.47637687E+00</totfact>
</mgrwt>
</event>
<event>
 6    1  0.9022793E-004  0.4212268E+03  0.7818608E-02  0.1036668E+00
          2   -1    0    0  502    0  0.00000000000E+00  0.00000000000E+00  0.24869358178E+03  0.24869358178E+03  0.00000000000E+00 0.  1.
         -2   -1    0    0    0  501 -0.00000000000E+00 -0.00000000000E+00 -0.76808017252E+03  0.76808017252E+03  0.00000000000E+00 0. -1.
    9000007    2    1    2  502    0  0.28286616824E+02  0.12922147514E+03 -0.39522413105E+03  0.57755326442E+03  0.39983413705E+03 0.  0.
    9000005    1    3    3    0    0  0.77949265837E+02 -0.85023130900E+02 -0.32783219820E+03  0.34753412926E+03  0.99999687468E+00 0.  0.
          4    1    3    3  502    0 -0.49662649013E+02  0.21424460604E+03 -0.67391932848E+02  0.23001913516E+03  0.00000000000E+00 0.  1.
   -9000007    1    1    2    0  501 -0.28286616824E+02 -0.12922147514E+03 -0.12416245969E+03  0.43922048988E+03  0.40000000000E+03 0.  1.
<mgrwt>
<rscale>  2 0.42122675E+03</rscale>
<asrwt>0</asrwt>
<pdfrwt beam="1">  1        2 0.38260551E-01 0.42122675E+03</pdfrwt>
<pdfrwt beam="2">  1       -2 0.11816618E+00 0.42122675E+03</pdfrwt>
<totfact> 0.76903470E+01</totfact>
</mgrwt>
</event>
<event>
 6    1  0.9022793E-004  0.4326386E+03  0.7818608E-02  0.1033030E+00
          2   -1    0    0  502    0  0.00000000000E+00  0.00000000000E+00  0.16048052766E+04  0.16048052766E+04  0.00000000000E+00 0.  1.
         -2   -1    0    0    0  501 -0.00000000000E+00 -0.00000000000E+00 -0.17826145339E+03  0.17826145339E+03  0.00000000000E+00 0. -1.
    9000007    2    1    2  502    0 -0.66692318891E+02 -0.15062080075E+03  0.18912862892E+03  0.47221553551E+03  0.40010421478E+03 0.  0.
    9000005    1    3    3    0    0 -0.20918199324E+03 -0.15623138212E+03  0.36989125955E+02  0.26369403954E+03  0.99999687468E+00 0.  0.
          4    1    3    3  502    0  0.14248967435E+03  0.56105813704E+01  0.15213950297E+03  0.20852149597E+03  0.00000000000E+00 0.  1.
   -9000007    1    1    2    0  501  0.66692318891E+02  0.15062080075E+03  0.12374151942E+04  0.13108511944E+04  0.40000000000E+03 0.  1.
<mgrwt>
<rscale>  2 0.43263862E+03</rscale>
<asrwt>0</asrwt>
<pdfrwt beam="1">  1        2 0.24689311E+00 0.43263862E+03</pdfrwt>
<pdfrwt beam="2">  1       -2 0.27424840E-01 0.43263862E+03</pdfrwt>
<totfact> 0.14154967E+02</totfact>
</mgrwt>
</event>
<event>
 6    1  0.9022793E-004  0.4009843E+03  0.7818608E-02  0.1043439E+00
         -1   -1    0    0    0  501 -0.00000000000E+00  0.00000000000E+00  0.23409866565E+03  0.23409866565E+03  0.00000000000E+00 0.  1.
          1   -1    0    0  502    0  0.00000000000E+00 -0.00000000000E+00 -0.68995262225E+03  0.68995262225E+03  0.00000000000E+00 0. -1.
    9000007    2    1    2  502    0 -0.27029718906E+02 -0.10162364962E+02 -0.25892560686E+03  0.47726872971E+03  0.39988634774E+03 0.  0.
    9000005    1    3    3    0    0 -0.25400627958E+02  0.14321572100E+03 -0.28660722485E+03  0.32140416297E+03  0.99999687468E+00 0.  0.
          4    1    3    3  502    0 -0.16290909476E+01 -0.15337808596E+03  0.27681617991E+02  0.15586456674E+03  0.00000000000E+00 0.  1.
   -9000007    1    1    2    0  501  0.27029718906E+02  0.10162364962E+02 -0.19692834973E+03  0.44678255818E+03  0.40000000000E+03 0.  1.
<mgrwt>
<rscale>  2 0.40098431E+03</rscale>
<asrwt>0</asrwt>
<pdfrwt beam="1">  1        1 0.10614656E+00 0.40098431E+03</pdfrwt>
<pdfrwt beam="2">  1       -1 0.36015180E-01 0.40098431E+03</pdfrwt>
<totfact> 0.21312395E+02</totfact>
</mgrwt>
</event>
<event>
 6    1  0.9022793E-004  0.4343466E+03  0.7818608E-02  0.1032496E+00
         -4   -1    0    0    0  501 -0.00000000000E+00  0.00000000000E+00  0.69375374622E+03  0.69375374622E+03  0.00000000000E+00 0. -1.
          4   -1    0    0  502    0  0.00000000000E+00 -0.00000000000E+00 -0.27390712117E+03  0.27390712117E+03  0.00000000000E+00 0.  1.
    9000007    2    1    2  502    0 -0.13794984518E+03 -0.97809480052E+02  0.16891828760E+03  0.46610141458E+03  0.40015033002E+03 0.  0.
    9000005    1    3    3    0    0 -0.86274590362E+02 -0.76387624190E+02  0.30119269462E+03  0.32248474903E+03  0.99999687468E+00 0.  0.
          4    1    3    3  502    0 -0.51675254816E+02 -0.21421855862E+02 -0.13227440702E+03  0.14361666555E+03  0.00000000000E+00 0.  1.
   -9000007    1    1    2    0  501  0.13794984518E+03  0.97809480052E+02  0.25092833745E+03  0.50155945282E+03  0.40000000000E+03 0. -1.
<mgrwt>
<rscale>  2 0.43434662E+03</rscale>
<asrwt>0</asrwt>
<pdfrwt beam="1">  1        4 0.42139557E-01 0.43434662E+03</pdfrwt>
<pdfrwt beam="2">  1       -4 0.10673134E+00 0.43434662E+03</pdfrwt>
<totfact> 0.74972179E+00</totfact>
</mgrwt>
</event>
<event>
 6    1  0.9022793E-004  0.4042200E+03  0.7818608E-02  0.1042328E+00
         -2   -1    0    0    0  501 -0.00000000000E+00  0.00000000000E+00  0.48638941549E+03  0.48638941549E+03  0.00000000000E+00 0.  1.
          2   -1    0    0  502    0  0.00000000000E+00 -0.00000000000E+00 -0.37025916379E+03  0.37025916379E+03  0.00000000000E+00 0. -1.
    9000007    2    1    2  502    0  0.51226530577E+02  0.26655146259E+02 -0.72343498093E+02  0.41071471802E+03  0.40014790218E+03 0.  0.
    9000005    1    3    3    0    0 -0.41565986867E+02 -0.90521142570E+02 -0.19394396947E+03  0.21802997914E+03  0.99999687468E+00 0.  0.
          4    1    3    3  502    0  0.92792517444E+02  0.11717628883E+03  0.12160047138E+03  0.19268473888E+03  0.00000000000E+00 0.  1.
   -9000007    1    1    2    0  501 -0.51226530577E+02 -0.26655146259E+02  0.18847374979E+03  0.44593386126E+03  0.40000000000E+03 0.  1.
<mgrwt>
<rscale>  2 0.40422001E+03</rscale>
<asrwt>0</asrwt>
<pdfrwt beam="1">  1        2 0.56962948E-01 0.40422001E+03</pdfrwt>
<pdfrwt beam="2">  1       -2 0.74829141E-01 0.40422001E+03</pdfrwt>
<totfact> 0.14317633E+02</totfact>
</mgrwt>
</event>
<event>
 6    1  0.9022793E-004  0.5331651E+03  0.7818608E-02  0.1005467E+00
         -1   -1    0    0    0  501 -0.00000000000E+00  0.00000000000E+00  0.82621283601E+03  0.82621283601E+03  0.00000000000E+00 0.  1.
          1   -1    0    0  502    0  0.00000000000E+00 -0.00000000000E+00 -0.47688705406E+03  0.47688705406E+03  0.00000000000E+00 0. -1.
    9000007    2    1    2  502    0  0.15214223077E+03 -0.31903643577E+03 -0.16934783288E+03  0.55881914703E+03  0.39833232966E+03 0.  0.
    9000005    1    3    3    0    0  0.19659891980E+03  0.13482841732E+02 -0.62621945417E+02  0.20677386278E+03  0.99999687468E+00 0.  0.
          4    1    3    3  502    0 -0.44456689026E+02 -0.33251927750E+03 -0.10672588747E+03  0.35204528426E+03  0.00000000000E+00 0.  1.
   -9000007    1    1    2    0  501 -0.15214223077E+03  0.31903643577E+03  0.51867361483E+03  0.74428074304E+03  0.40000000000E+03 0.  1.
<mgrwt>
<rscale>  2 0.53316512E+03</rscale>
<asrwt>0</asrwt>
<pdfrwt beam="1">  1        1 0.73367239E-01 0.53316512E+03</pdfrwt>
<pdfrwt beam="2">  1       -1 0.12710967E+00 0.53316512E+03</pdfrwt>
<totfact> 0.26686090E+01</totfact>
</mgrwt>
</event>
<event>
 6    1  0.9022793E-004  0.4393667E+03  0.7818608E-02  0.1030941E+00
          1   -1    0    0  502    0  0.00000000000E+00  0.00000000000E+00  0.59972464530E+03  0.59972464530E+03  0.00000000000E+00 0.  1.
         -1   -1    0    0    0  501 -0.00000000000E+00 -0.00000000000E+00 -0.34259278126E+03  0.34259278126E+03  0.00000000000E+00 0. -1.
    9000007    2    1    2  502    0 -0.12565186849E+03  0.13034180661E+03  0.12816721825E+02  0.43985621680E+03  0.40066425407E+03 0.  0.
    9000005    1    3    3    0    0 -0.18861091491E+03  0.24209696951E+03  0.37671604822E+02  0.30920085652E+03  0.99999687468E+00 0.  0.
          4    1    3    3  502    0  0.62959046421E+02 -0.11175516290E+03 -0.24854882997E+02  0.13065536028E+03  0.00000000000E+00 0.  1.
   -9000007    1    1    2    0  501  0.12565186849E+03 -0.13034180661E+03  0.24431514222E+03  0.50246120977E+03  0.40000000000E+03 0.  1.
<mgrwt>
<rscale>  2 0.43936672E+03</rscale>
<asrwt>0</asrwt>
<pdfrwt beam="1">  1        1 0.92265330E-01 0.43936672E+03</pdfrwt>
<pdfrwt beam="2">  1       -1 0.52706582E-01 0.43936672E+03</pdfrwt>
<totfact> 0.12964258E+02</totfact>
</mgrwt>
</event>
<event>
 6    1  0.9022793E-004  0.5825392E+03  0.7818608E-02  0.9942309E-01
         -1   -1    0    0    0  501 -0.00000000000E+00  0.00000000000E+00  0.38819342405E+03  0.38819342405E+03  0.00000000000E+00 0.  1.
          1   -1    0    0  502    0  0.00000000000E+00 -0.00000000000E+00 -0.88247489507E+03  0.88247489507E+03  0.00000000000E+00 0. -1.
    9000007    2    1    2  502    0 -0.41752631661E+03  0.72013042828E+02 -0.18549560865E+03  0.61122703122E+03  0.39959449379E+03 0.  0.
    9000005    1    3    3    0    0 -0.25645688898E+03  0.68347413539E+02  0.99824473560E+02  0.28356203969E+03  0.99999687468E+00 0.  0.
          4    1    3    3  502    0 -0.16106942763E+03  0.36656292886E+01 -0.28532008221E+03  0.32766499152E+03  0.00000000000E+00 0.  1.
   -9000007    1    1    2    0  501  0.41752631661E+03 -0.72013042828E+02 -0.30878586236E+03  0.65944128791E+03  0.40000000000E+03 0.  1.
<mgrwt>
<rscale>  2 0.58253922E+03</rscale>
<asrwt>0</asrwt>
<pdfrwt beam="1">  1        1 0.13576537E+00 0.58253922E+03</pdfrwt>
<pdfrwt beam="2">  1       -1 0.59722066E-01 0.58253922E+03</pdfrwt>
<totfact> 0.55665970E+01</totfact>
</mgrwt>
</event>
<event>
 6    1  0.9022793E-004  0.4173136E+03  0.7818608E-02  0.1037944E+00
          2   -1    0    0  502    0  0.00000000000E+00  0.00000000000E+00  0.61777783214E+03  0.61777783214E+03  0.00000000000E+00 0. -1.
         -2   -1    0    0    0  501 -0.00000000000E+00 -0.00000000000E+00 -0.33261528345E+03  0.33261528345E+03  0.00000000000E+00 0.  1.
    9000007    2    1    2  502    0  0.90452286185E+02 -0.87627609431E+02 -0.43552142299E+02  0.41755771692E+03  0.39572394905E+03 0.  0.
    9000005    1    3    3    0    0  0.22485390680E+03 -0.32660918876E+01 -0.10398230099E+03  0.24775646444E+03  0.99999687468E+00 0.  0.
          4    1    3    3  502    0 -0.13440162061E+03 -0.84361517543E+02  0.60430158686E+02  0.16980125248E+03  0.00000000000E+00 0.  1.
   -9000007    1    1    2    0  501 -0.90452286185E+02  0.87627609431E+02  0.32871469099E+03  0.53283539868E+03  0.40000000000E+03 0. -1.
<mgrwt>
<rscale>  2 0.41731358E+03</rscale>
<asrwt>0</asrwt>
<pdfrwt beam="1">  1        2 0.95042743E-01 0.41731358E+03</pdfrwt>
<pdfrwt beam="2">  1       -2 0.51171582E-01 0.41731358E+03</pdfrwt>
<totfact> 0.17803746E+02</totfact>
</mgrwt>
</event>
<event>
 6    1  0.9022793E-004  0.4318279E+03  0.7818608E-02  0.1033284E+00
         -2   -1    0    0    0  501 -0.00000000000E+00  0.00000000000E+00  0.13709175448E+03  0.13709175448E+03  0.00000000000E+00 0.  1.
          2   -1    0    0  502    0  0.00000000000E+00 -0.00000000000E+00 -0.13646412735E+04  0.13646412735E+04  0.00000000000E+00 0. -1.
    9000007    2    1    2  502    0 -0.15929152516E+03 -0.32796087828E+02 -0.65654220191E+03  0.78584286213E+03  0.40006495436E+03 0.  0.
    9000005    1    3    3    0    0 -0.26256961477E+03  0.75740888458E+02 -0.49565798410E+03  0.56600116783E+03  0.99999687468E+00 0.  0.
          4    1    3    3  502    0  0.10327808960E+03 -0.10853697629E+03 -0.16088421780E+03  0.21984169430E+03  0.00000000000E+00 0.  1.
   -9000007    1    1    2    0  501  0.15929152516E+03  0.32796087828E+02 -0.57100731711E+03  0.71589016585E+03  0.40000000000E+03 0.  1.
<mgrwt>
<rscale>  2 0.43182792E+03</rscale>
<asrwt>0</asrwt>
<pdfrwt beam="1">  1        2 0.20994481E+00 0.43182792E+03</pdfrwt>
<pdfrwt beam="2">  1       -2 0.21091039E-01 0.43182792E+03</pdfrwt>
<totfact> 0.30567551E+02</totfact>
</mgrwt>
</event>
<event>
 6    1  0.9022793E-004  0.4213794E+03  0.7818608E-02  0.1036618E+00
         -1   -1    0    0    0  501 -0.00000000000E+00  0.00000000000E+00  0.11490028045E+03  0.11490028045E+03  0.00000000000E+00 0. -1.
          1   -1    0    0  502    0  0.00000000000E+00 -0.00000000000E+00 -0.15618867439E+04  0.15618867439E+04  0.00000000000E+00 0.  1.
    9000007    2    1    2  502    0  0.97576806723E+02  0.88792746643E+02 -0.81008590608E+03  0.91321141902E+03  0.40038798124E+03 0.  0.
    9000005    1    3    3    0    0  0.16789568931E+03  0.21752857266E+03 -0.51929434165E+03  0.58751617482E+03  0.99999687468E+00 0.  0.
          4    1    3    3  502    0 -0.70318882590E+02 -0.12873582601E+03 -0.29079156444E+03  0.32569524420E+03  0.00000000000E+00 0.  1.
   -9000007    1    1    2    0  501 -0.97576806723E+02 -0.88792746643E+02 -0.63690055734E+03  0.76357560529E+03  0.40000000000E+03 0. -1.
<mgrwt>
<rscale>  2 0.42137938E+03</rscale>
<asrwt>0</asrwt>
<pdfrwt beam="1">  1        1 0.24029027E+00 0.42137938E+03</pdfrwt>
<pdfrwt beam="2">  1       -1 0.17676966E-01 0.42137938E+03</pdfrwt>
<totfact> 0.15746387E+02</totfact>
</mgrwt>
</event>
<event>
 6    1  0.9022793E-004  0.4032061E+03  0.7818608E-02  0.1042675E+00
          2   -1    0    0  502    0  0.00000000000E+00  0.00000000000E+00  0.30855559367E+04  0.30855559367E+04  0.00000000000E+00 0.  1.
         -2   -1    0    0    0  501 -0.00000000000E+00 -0.00000000000E+00 -0.53131734617E+02  0.53131734617E+02  0.00000000000E+00 0. -1.
    9000007    2    1    2  502    0 -0.23926061273E+02  0.46338155809E+02  0.16587809572E+04  0.17070398636E+04  0.39963877552E+03 0.  0.
    9000005    1    3    3    0    0 -0.19051912998E+03  0.85375156717E+02  0.61862846393E+03  0.65290782860E+03  0.99999687468E+00 0.  0.
          4    1    3    3  502    0  0.16659306870E+03 -0.39037000907E+02  0.10401524933E+04  0.10541320350E+04  0.00000000000E+00 0.  1.
   -9000007    1    1    2    0  501  0.23926061273E+02 -0.46338155809E+02  0.13736432449E+04  0.14316478077E+04  0.40000000000E+03 0.  1.
<mgrwt>
<rscale>  2 0.40320614E+03</rscale>
<asrwt>0</asrwt>
<pdfrwt beam="1">  1        2 0.47470077E+00 0.40320614E+03</pdfrwt>
<pdfrwt beam="2">  1       -2 0.81741154E-02 0.40320614E+03</pdfrwt>
<totfact> 0.16355202E+02</totfact>
</mgrwt>
</event>
<event>
 6    1  0.9022793E-004  0.4924318E+03  0.7818608E-02  0.1015773E+00
          1   -1    0    0  502    0  0.00000000000E+00  0.00000000000E+00  0.13510144797E+04  0.13510144797E+04  0.00000000000E+00 0. -1.
         -1   -1    0    0    0  501 -0.00000000000E+00 -0.00000000000E+00 -0.21652640616E+03  0.21652640616E+03  0.00000000000E+00 0.  1.
    9000007    2    1    2  502    0 -0.90881797030E+02  0.27165661499E+03  0.89182871834E+03  0.10189605543E+04  0.40108020507E+03 0.  0.
    9000005    1    3    3    0    0 -0.20176365359E+03  0.11834560356E+03  0.74084732058E+03  0.77689768065E+03  0.99999687468E+00 0.  0.
          4    1    3    3  502    0  0.11088185656E+03  0.15331101142E+03  0.15098139776E+03  0.24206287367E+03  0.00000000000E+00 0.  1.
   -9000007    1    1    2    0  501  0.90881797030E+02 -0.27165661499E+03  0.24265935520E+03  0.54858033155E+03  0.40000000000E+03 0.  1.
<mgrwt>
<rscale>  2 0.49243182E+03</rscale>
<asrwt>0</asrwt>
<pdfrwt beam="1">  1        1 0.20784838E+00 0.49243182E+03</pdfrwt>
<pdfrwt beam="2">  1       -1 0.33311755E-01 0.49243182E+03</pdfrwt>
<totfact> 0.74446808E+01</totfact>
</mgrwt>
</event>
<event>
 6    1  0.9022793E-004  0.4913287E+03  0.7818608E-02  0.1016067E+00
          2   -1    0    0  502    0  0.00000000000E+00  0.00000000000E+00  0.85901914271E+03  0.85901914271E+03  0.00000000000E+00 0. -1.
         -2   -1    0    0    0  501 -0.00000000000E+00 -0.00000000000E+00 -0.28228210997E+03  0.28228210997E+03  0.00000000000E+00 0.  1.
    9000007    2    1    2  502    0 -0.18181734943E+03 -0.21993222712E+03  0.32647015849E+03  0.58988376890E+03  0.39994044974E+03 0.  0.
    9000005    1    3    3    0    0 -0.22237154876E+03 -0.26321961365E+03  0.37787358067E+03  0.51139330624E+03  0.99999687468E+00 0.  0.
          4    1    3    3  502    0  0.40554199337E+02  0.43287386525E+02 -0.51403422178E+02  0.78490462653E+02  0.00000000000E+00 0.  1.
   -9000007    1    1    2    0  501  0.18181734943E+03  0.21993222712E+03  0.25026687424E+03  0.55141748378E+03  0.40000000000E+03 0.  1.
<mgrwt>
<rscale>  2 0.49132872E+03</rscale>
<asrwt>0</asrwt>
<pdfrwt beam="1">  1        2 0.13215679E+00 0.49132872E+03</pdfrwt>
<pdfrwt beam="2">  1       -2 0.43428017E-01 0.49132872E+03</pdfrwt>
<totfact> 0.16193343E+02</totfact>
</mgrwt>
</event>
<event>
 6    1  0.9022793E-004  0.4664159E+03  0.7818608E-02  0.1022937E+00
         -1   -1    0    0    0  501 -0.00000000000E+00  0.00000000000E+00  0.24753233643E+03  0.24753233643E+03  0.00000000000E+00 0. -1.
          1   -1    0    0  502    0  0.00000000000E+00 -0.00000000000E+00 -0.10776376244E+04  0.10776376244E+04  0.00000000000E+00 0.  1.
    9000007    2    1    2  502    0  0.12125383744E+03  0.20774967041E+03 -0.13022815580E+03  0.48392658417E+03  0.39920314084E+03 0.  0.
    9000005    1    3    3    0    0  0.16523868110E+03  0.30425332422E+03 -0.47606539533E+02  0.34948718092E+03  0.99999687468E+00 0.  0.
          4    1    3    3  502    0 -0.43984843656E+02 -0.96503653811E+02 -0.82621616267E+02  0.13443940325E+03  0.00000000000E+00 0.  1.
   -9000007    1    1    2    0  501 -0.12125383744E+03 -0.20774967041E+03 -0.69987713217E+03  0.84124337667E+03  0.40000000000E+03 0.  1.
<mgrwt>
<rscale>  2 0.46641587E+03</rscale>
<asrwt>0</asrwt>
<pdfrwt beam="1">  1        1 0.16579040E+00 0.46641587E+03</pdfrwt>
<pdfrwt beam="2">  1       -1 0.38081898E-01 0.46641587E+03</pdfrwt>
<totfact> 0.92379160E+01</totfact>
</mgrwt>
</event>
<event>
 6    1  0.9022793E-004  0.4041976E+03  0.7818608E-02  0.1042336E+00
          2   -1    0    0  502    0  0.00000000000E+00  0.00000000000E+00  0.22067302675E+03  0.22067302675E+03  0.00000000000E+00 0.  1.
         -2   -1    0    0    0  501 -0.00000000000E+00 -0.00000000000E+00 -0.82323802061E+03  0.82323802061E+03  0.00000000000E+00 0. -1.
    9000007    2    1    2  502    0  0.54998849549E+02  0.41701386430E+02 -0.46574137976E+03  0.61556004588E+03  0.39652901305E+03 0.  0.
    9000005    1    3    3    0    0  0.18521367569E+02  0.55360415235E+02 -0.53388594561E+03  0.53706891508E+03  0.99999687468E+00 0.  0.
          4    1    3    3  502    0  0.36477481980E+02 -0.13659028806E+02  0.68144565854E+02  0.78491130804E+02  0.00000000000E+00 0.  1.
   -9000007    1    1    2    0  501 -0.54998849549E+02 -0.41701386430E+02 -0.13682361410E+03  0.42835100147E+03  0.40000000000E+03 0.  1.
<mgrwt>
<rscale>  2 0.40419755E+03</rscale>
<asrwt>0</asrwt>
<pdfrwt beam="1">  1        2 0.33949697E-01 0.40419755E+03</pdfrwt>
<pdfrwt beam="2">  1       -2 0.12665200E+00 0.40419755E+03</pdfrwt>
<totfact> 0.74036888E+01</totfact>
</mgrwt>
</event>
<event>
 6    1  0.9022793E-004  0.5512411E+03  0.7818608E-02  0.1001207E+00
          2   -1    0    0  502    0  0.00000000000E+00  0.00000000000E+00  0.20517740141E+04  0.20517740141E+04  0.00000000000E+00 0. -1.
         -2   -1    0    0    0  501 -0.00000000000E+00 -0.00000000000E+00 -0.14942511576E+03  0.14942511576E+03  0.00000000000E+00 0.  1.
    9000007    2    1    2  502    0 -0.22716458492E+03 -0.30383591869E+03  0.84742987231E+03  0.10109159007E+04  0.39986692245E+03 0.  0.
    9000005    1    3    3    0    0  0.77693390539E+02  0.22431207254E+02  0.26467710820E+03  0.27675692149E+03  0.99999687468E+00 0.  0.
          4    1    3    3  502    0 -0.30485797546E+03 -0.32626712595E+03  0.58275276411E+03  0.73415897921E+03  0.00000000000E+00 0.  1.
   -9000007    1    1    2    0  501  0.22716458492E+03  0.30383591869E+03  0.10549190260E+04  0.11902832292E+04  0.40000000000E+03 0. -1.
<mgrwt>
<rscale>  2 0.55124113E+03</rscale>
<asrwt>0</asrwt>
<pdfrwt beam="1">  1        2 0.31565752E+00 0.55124113E+03</pdfrwt>
<pdfrwt beam="2">  1       -2 0.22988481E-01 0.55124113E+03</pdfrwt>
<totfact> 0.10967198E+02</totfact>
</mgrwt>
</event>
<event>
 6    1  0.9022793E-004  0.5743410E+03  0.7818608E-02  0.9960118E-01
          1   -1    0    0  502    0  0.00000000000E+00  0.00000000000E+00  0.12019698062E+04  0.12019698062E+04  0.00000000000E+00 0.  1.
         -1   -1    0    0    0  501 -0.00000000000E+00 -0.00000000000E+00 -0.34725647584E+03  0.34725647584E+03  0.00000000000E+00 0. -1.
    9000007    2    1    2  502    0  0.26154052749E+01 -0.41263200289E+03  0.72437105121E+02  0.57854193440E+03  0.39898825234E+03 0.  0.
    9000005    1    3    3    0    0  0.94127772300E+02 -0.36254858411E+03 -0.90242207757E+02  0.38528712594E+03  0.99999687468E+00 0.  0.
          4    1    3    3  502    0 -0.91512367025E+02 -0.50083418778E+02  0.16267931288E+03  0.19325480846E+03  0.00000000000E+00 0.  1.
   -9000007    1    1    2    0  501 -0.26154052749E+01  0.41263200289E+03  0.78227622523E+03  0.97068434762E+03  0.40000000000E+03 0.  1.
<mgrwt>
<rscale>  2 0.57434099E+03</rscale>
<asrwt>0</asrwt>
<pdfrwt beam="1">  1        1 0.18491843E+00 0.57434099E+03</pdfrwt>
<pdfrwt beam="2">  1       -1 0.53424074E-01 0.57434099E+03</pdfrwt>
<totfact> 0.39530021E+01</totfact>
</mgrwt>
</event>
<event>
 6    1  0.9022793E-004  0.4050523E+03  0.7818608E-02  0.1042044E+00
          1   -1    0    0  502    0  0.00000000000E+00  0.00000000000E+00  0.16397995828E+04  0.16397995828E+04  0.00000000000E+00 0. -1.
         -1   -1    0    0    0  501 -0.00000000000E+00 -0.00000000000E+00 -0.11050041819E+03  0.11050041819E+03  0.00000000000E+00 0.  1.
    9000007    2    1    2  502    0  0.35503247901E+02  0.52923693884E+02  0.49557183898E+03  0.64005066784E+03  0.40001501451E+03 0.  0.
    9000005    1    3    3    0    0  0.47883146722E+02  0.17024771694E+03  0.56888242488E+02  0.18578038914E+03  0.99999687468E+00 0.  0.
          4    1    3    3  502    0 -0.12379898821E+02 -0.11732402305E+03  0.43868359649E+03  0.45427027870E+03  0.00000000000E+00 0.  1.
   -9000007    1    1    2    0  501 -0.35503247901E+02 -0.52923693884E+02  0.10337273256E+04  0.11102493331E+04  0.40000000000E+03 0. -1.
<mgrwt>
<rscale>  2 0.40505235E+03</rscale>
<asrwt>0</asrwt>
<pdfrwt beam="1">  1        1 0.25227684E+00 0.40505235E+03</pdfrwt>
<pdfrwt beam="2">  1       -1 0.17000066E-01 0.40505235E+03</pdfrwt>
<totfact> 0.14924660E+02</totfact>
</mgrwt>
</event>
<event>
 6    1  0.9022793E-004  0.6615133E+03  0.7818608E-02  0.9785412E-01
          2   -1    0    0  502    0  0.00000000000E+00  0.00000000000E+00  0.15402694457E+04  0.15402694457E+04  0.00000000000E+00 0. -1.
         -2   -1    0    0    0  501 -0.00000000000E+00 -0.00000000000E+00 -0.28875402427E+03  0.28875402427E+03  0.00000000000E+00 0.  1.
    9000007    2    1    2  502    0 -0.42898486018E+03 -0.30568948020E+03  0.74187302075E+03  0.99403278430E+03  0.40031428750E+03 0.  0.
    9000005    1    3    3    0    0 -0.24761706080E+03 -0.32024333143E+03  0.69796046092E+03  0.80685798325E+03  0.99999687468E+00 0.  0.
          4    1    3    3  502    0 -0.18136779938E+03  0.14553851231E+02  0.43912559824E+02  0.18717480105E+03  0.00000000000E+00 0.  1.
   -9000007    1    1    2    0  501  0.42898486018E+03  0.30568948020E+03  0.50964240067E+03  0.83499068565E+03  0.40000000000E+03 0. -1.
<mgrwt>
<rscale>  2 0.66151328E+03</rscale>
<asrwt>0</asrwt>
<pdfrwt beam="1">  1        2 0.23696453E+00 0.66151328E+03</pdfrwt>
<pdfrwt beam="2">  1       -2 0.44423697E-01 0.66151328E+03</pdfrwt>
<totfact> 0.59714873E+01</totfact>
</mgrwt>
</event>
<event>
 6    1  0.9022793E-004  0.4956612E+03  0.7818608E-02  0.1014918E+00
          2   -1    0    0  502    0  0.00000000000E+00  0.00000000000E+00  0.95507161199E+03  0.95507161199E+03  0.00000000000E+00 0. -1.
         -2   -1    0    0    0  501 -0.00000000000E+00 -0.00000000000E+00 -0.25731491189E+03  0.25731491189E+03  0.00000000000E+00 0.  1.
    9000007    2    1    2  502    0  0.29243383100E+03  0.89071292369E+01  0.35946474086E+03  0.61235458126E+03  0.40020788449E+03 0.  0.
    9000005    1    3    3    0    0  0.35923094319E+03 -0.16366565213E+02  0.39365048304E+03  0.53317580383E+03  0.99999687468E+00 0.  0.
          4    1    3    3  502    0 -0.66797112185E+02  0.25273694450E+02 -0.34185742177E+02  0.79178777432E+02  0.00000000000E+00 0.  1.
   -9000007    1    1    2    0  501 -0.29243383100E+03 -0.89071292369E+01  0.33829195924E+03  0.60003194261E+03  0.40000000000E+03 0.  1.
<mgrwt>
<rscale>  2 0.49566122E+03</rscale>
<asrwt>0</asrwt>
<pdfrwt beam="1">  1        2 0.14693409E+00 0.49566122E+03</pdfrwt>
<pdfrwt beam="2">  1       -2 0.39586910E-01 0.49566122E+03</pdfrwt>
<totfact> 0.16754106E+02</totfact>
</mgrwt>
</event>
<event>
 6    1  0.9022793E-004  0.4174457E+03  0.7818608E-02  0.1037901E+00
         -2   -1    0    0    0  501 -0.00000000000E+00  0.00000000000E+00  0.81536598903E+02  0.81536598903E+02  0.00000000000E+00 0.  1.
          2   -1    0    0  502    0  0.00000000000E+00 -0.00000000000E+00 -0.21482803429E+04  0.21482803429E+04  0.00000000000E+00 0. -1.
    9000007    2    1    2  502    0 -0.45336158449E+02 -0.11059887541E+03 -0.95326487518E+03  0.10406480430E+04  0.39993368039E+03 0.  0.
    9000005    1    3    3    0    0  0.92576137369E+02 -0.99126520672E+01 -0.81672237008E+03  0.82201279288E+03  0.99999687468E+00 0.  0.
          4    1    3    3  502    0 -0.13791229582E+03 -0.10068622334E+03 -0.13654250510E+03  0.21863525015E+03  0.00000000000E+00 0.  1.
   -9000007    1    1    2    0  501  0.45336158449E+02  0.11059887541E+03 -0.11134788688E+04  0.11891688988E+04  0.40000000000E+03 0.  1.
<mgrwt>
<rscale>  2 0.41744575E+03</rscale>
<asrwt>0</asrwt>
<pdfrwt beam="1">  1        2 0.33050468E+00 0.41744575E+03</pdfrwt>
<pdfrwt beam="2">  1       -2 0.12544092E-01 0.41744575E+03</pdfrwt>
<totfact> 0.27850517E+02</totfact>
</mgrwt>
</event>
<event>
 6    1  0.9022793E-004  0.4056203E+03  0.7818608E-02  0.1041851E+00
         -2   -1    0    0    0  501 -0.00000000000E+00  0.00000000000E+00  0.80127303324E+02  0.80127303324E+02  0.00000000000E+00 0.  1.
          2   -1    0    0  502    0  0.00000000000E+00 -0.00000000000E+00 -0.31878513248E+04  0.31878513248E+04  0.00000000000E+00 0. -1.
    9000007    2    1    2  502    0  0.64816633736E+02 -0.22942498045E+02 -0.57847560034E+03  0.70637266115E+03  0.39950064081E+03 0.  0.
    9000005    1    3    3    0    0  0.20869425236E+03  0.35764080365E+02 -0.47394431350E+03  0.51909206574E+03  0.99999687468E+00 0.  0.
          4    1    3    3  502    0 -0.14387761863E+03 -0.58706578410E+02 -0.10453128683E+03  0.18728059541E+03  0.00000000000E+00 0.  1.
   -9000007    1    1    2    0  501 -0.64816633736E+02  0.22942498045E+02 -0.25292484211E+04  0.25616059670E+04  0.40000000000E+03 0. -1.
<mgrwt>
<rscale>  2 0.40562028E+03</rscale>
<asrwt>0</asrwt>
<pdfrwt beam="1">  1        2 0.49043865E+00 0.40562028E+03</pdfrwt>
<pdfrwt beam="2">  1       -2 0.12327278E-01 0.40562028E+03</pdfrwt>
<totfact> 0.72926033E+01</totfact>
</mgrwt>
</event>
<event>
 6    1  0.9022793E-004  0.4188263E+03  0.7818608E-02  0.1037449E+00
         -1   -1    0    0    0  501 -0.00000000000E+00  0.00000000000E+00  0.37324684627E+03  0.37324684627E+03  0.00000000000E+00 0. -1.
          1   -1    0    0  502    0  0.00000000000E+00 -0.00000000000E+00 -0.50658249273E+03  0.50658249273E+03  0.00000000000E+00 0.  1.
    9000007    2    1    2  502    0  0.30708242368E+02  0.12088436624E+03 -0.18490573905E+03  0.45767356136E+03  0.39964850842E+03 0.  0.
    9000005    1    3    3    0    0 -0.10739879165E+03  0.39844385430E+02  0.85819899307E+02  0.14313675492E+03  0.99999687468E+00 0.  0.
          4    1    3    3  502    0  0.13810703402E+03  0.81039980809E+02 -0.27072563836E+03  0.31453680643E+03  0.00000000000E+00 0.  1.
   -9000007    1    1    2    0  501 -0.30708242368E+02 -0.12088436624E+03  0.51570092595E+02  0.42215577765E+03  0.40000000000E+03 0. -1.
<mgrwt>
<rscale>  2 0.41882626E+03</rscale>
<asrwt>0</asrwt>
<pdfrwt beam="1">  1        1 0.77935768E-01 0.41882626E+03</pdfrwt>
<pdfrwt beam="2">  1       -1 0.57422592E-01 0.41882626E+03</pdfrwt>
<totfact> 0.13933354E+02</totfact>
</mgrwt>
</event>
<event>
 6    1  0.9022793E-004  0.4436069E+03  0.7818608E-02  0.1029646E+00
         -2   -1    0    0    0  501 -0.00000000000E+00  0.00000000000E+00  0.12981076385E+03  0.12981076385E+03  0.00000000000E+00 0. -1.
          2   -1    0    0  502    0  0.00000000000E+00 -0.00000000000E+00 -0.15512306420E+04  0.15512306420E+04  0.00000000000E+00 0.  1.
    9000007    2    1    2  502    0 -0.16265835378E+03 -0.10728937045E+03 -0.83535811959E+03  0.94521728699E+03  0.39704380437E+03 0.  0.
    9000005    1    3    3    0    0 -0.24745327123E+03 -0.11226919578E+03 -0.30662199037E+03  0.40970176804E+03  0.99999687468E+00 0.  0.
          4    1    3    3  502    0  0.84794917451E+02  0.49798253299E+01 -0.52873612922E+03  0.53551551894E+03  0.00000000000E+00 0.  1.
   -9000007    1    1    2    0  501  0.16265835378E+03  0.10728937045E+03 -0.58606175860E+03  0.73582411890E+03  0.40000000000E+03 0. -1.
<mgrwt>
<rscale>  2 0.44360694E+03</rscale>
<asrwt>0</asrwt>
<pdfrwt beam="1">  1        2 0.23865086E+00 0.44360694E+03</pdfrwt>
<pdfrwt beam="2">  1       -2 0.19970888E-01 0.44360694E+03</pdfrwt>
<totfact> 0.26504499E+02</totfact>
</mgrwt>
</event>
<event>
 6    1  0.9022793E-004  0.4619713E+03  0.7818608E-02  0.1024211E+00
          3   -1    0    0  502    0  0.00000000000E+00  0.00000000000E+00  0.26569030650E+03  0.26569030650E+03  0.00000000000E+00 0. -1.
         -3   -1    0    0    0  501 -0.00000000000E+00 -0.00000000000E+00 -0.97492768904E+03  0.97492768904E+03  0.00000000000E+00 0.  1.
    9000007    2    1    2  502    0  0.22162557494E+03 -0.65606508173E+02 -0.94317675374E+02  0.47149618747E+03  0.39998840174E+03 0.  0.
    9000005    1    3    3    0    0  0.98469260723E+02  0.16652307799E+03 -0.35785953707E+01  0.19349402355E+03  0.99999687468E+00 0.  0.
          4    1    3    3  502    0  0.12315631421E+03 -0.23212958616E+03 -0.90739080003E+02  0.27800216392E+03  0.00000000000E+00 0.  1.
   -9000007    1    1    2    0  501 -0.22162557494E+03  0.65606508173E+02 -0.61491970717E+03  0.76912180807E+03  0.40000000000E+03 0.  1.
<mgrwt>
<rscale>  2 0.46197129E+03</rscale>
<asrwt>0</asrwt>
<pdfrwt beam="1">  1        3 0.40875432E-01 0.46197129E+03</pdfrwt>
<pdfrwt beam="2">  1       -3 0.14998888E+00 0.46197129E+03</pdfrwt>
<totfact> 0.50385226E+00</totfact>
</mgrwt>
</event>
<event>
 6    1  0.9022793E-004  0.4479425E+03  0.7818608E-02  0.1028337E+00
          2   -1    0    0  502    0  0.00000000000E+00  0.00000000000E+00  0.13326483966E+04  0.13326483966E+04  0.00000000000E+00 0.  1.
         -2   -1    0    0    0  501 -0.00000000000E+00 -0.00000000000E+00 -0.15576545191E+03  0.15576545191E+03  0.00000000000E+00 0. -1.
    9000007    2    1    2  502    0 -0.15102619440E+03 -0.13218359564E+03  0.45301129252E+03  0.63737237880E+03  0.40092755425E+03 0.  0.
    9000005    1    3    3    0    0  0.79076285635E+02 -0.12559029662E+03  0.23777636923E+02  0.15030754327E+03  0.99999687468E+00 0.  0.
          4    1    3    3  502    0 -0.23010248003E+03 -0.65932990279E+01  0.42923365560E+03  0.48706483553E+03  0.00000000000E+00 0.  1.
   -9000007    1    1    2    0  501  0.15102619440E+03  0.13218359564E+03  0.72387165217E+03  0.85104146971E+03  0.40000000000E+03 0.  1.
<mgrwt>
<rscale>  2 0.44794254E+03</rscale>
<asrwt>0</asrwt>
<pdfrwt beam="1">  1        2 0.20502282E+00 0.44794254E+03</pdfrwt>
<pdfrwt beam="2">  1       -2 0.23963917E-01 0.44794254E+03</pdfrwt>
<totfact> 0.25396281E+02</totfact>
</mgrwt>
</event>
<event>
 6    1  0.9022793E-004  0.4238210E+03  0.7818608E-02  0.1035830E+00
         -1   -1    0    0    0  501 -0.00000000000E+00  0.00000000000E+00  0.74327666114E+03  0.74327666114E+03  0.00000000000E+00 0. -1.
          1   -1    0    0  502    0  0.00000000000E+00 -0.00000000000E+00 -0.27751201640E+03  0.27751201640E+03  0.00000000000E+00 0.  1.
    9000007    2    1    2  502    0 -0.13619663170E+03  0.36656934851E+02  0.49293002503E+02  0.42636300334E+03  0.39932738093E+03 0.  0.
    9000005    1    3    3    0    0 -0.37600004628E-01  0.19472303388E+03  0.88822037768E+02  0.21402667059E+03  0.99999687468E+00 0.  0.
          4    1    3    3  502    0 -0.13615903170E+03 -0.15806609903E+03 -0.39529035266E+02  0.21233633275E+03  0.00000000000E+00 0.  1.
   -9000007    1    1    2    0  501  0.13619663170E+03 -0.36656934851E+02  0.41647164224E+03  0.59442567420E+03  0.40000000000E+03 0. -1.
<mgrwt>
<rscale>  2 0.42382099E+03</rscale>
<asrwt>0</asrwt>
<pdfrwt beam="1">  1        1 0.42694157E-01 0.42382099E+03</pdfrwt>
<pdfrwt beam="2">  1       -1 0.11435025E+00 0.42382099E+03</pdfrwt>
<totfact> 0.70821114E+01</totfact>
</mgrwt>
</event>
<event>
 6    1  0.9022793E-004  0.5385659E+03  0.7818608E-02  0.1004176E+00
         -2   -1    0    0    0  501 -0.00000000000E+00  0.00000000000E+00  0.14699156508E+03  0.14699156508E+03  0.00000000000E+00 0.  1.
          2   -1    0    0  502    0  0.00000000000E+00 -0.00000000000E+00 -0.21749796043E+04  0.21749796043E+04  0.00000000000E+00 0. -1.
    9000007    2    1    2  502    0 -0.28771893472E+03  0.21738727897E+03 -0.66045150195E+03  0.85221078237E+03  0.40003451939E+03 0.  0.
    9000005    1    3    3    0    0 -0.47629639266E+02  0.92110701446E+02 -0.55008820369E+03  0.55977763057E+03  0.99999687468E+00 0.  0.
          4    1    3    3  502    0 -0.24008929545E+03  0.12527657752E+03 -0.11036329826E+03  0.29243315180E+03  0.00000000000E+00 0.  1.
   -9000007    1    1    2    0  501  0.28771893472E+03 -0.21738727897E+03 -0.13675365373E+04  0.14697603870E+04  0.40000000000E+03 0. -1.
<mgrwt>
<rscale>  2 0.53856589E+03</rscale>
<asrwt>0</asrwt>
<pdfrwt beam="1">  1        2 0.33461225E+00 0.53856589E+03</pdfrwt>
<pdfrwt beam="2">  1       -2 0.22614086E-01 0.53856589E+03</pdfrwt>
<totfact> 0.96981641E+01</totfact>
</mgrwt>
</event>
<event>
 6    1  0.9022793E-004  0.4357832E+03  0.7818608E-02  0.1032049E+00
         -1   -1    0    0    0  501 -0.00000000000E+00  0.00000000000E+00  0.24269853378E+03  0.24269853378E+03  0.00000000000E+00 0.  1.
          1   -1    0    0  502    0  0.00000000000E+00 -0.00000000000E+00 -0.80329981469E+03  0.80329981469E+03  0.00000000000E+00 0. -1.
    9000007    2    1    2  502    0 -0.12460203393E+02 -0.17175038757E+03 -0.36467818586E+03  0.56846373039E+03  0.40063372452E+03 0.  0.
    9000005    1    3    3    0    0  0.18346812750E+03 -0.33910469104E+02 -0.22058116075E+03  0.28890746303E+03  0.99999687468E+00 0.  0.
          4    1    3    3  502    0 -0.19592833090E+03 -0.13783991847E+03 -0.14409702511E+03  0.27955626736E+03  0.00000000000E+00 0.  1.
   -9000007    1    1    2    0  501  0.12460203393E+02  0.17175038757E+03 -0.19592309505E+03  0.47753461809E+03  0.40000000000E+03 0.  1.
<mgrwt>
<rscale>  2 0.43578317E+03</rscale>
<asrwt>0</asrwt>
<pdfrwt beam="1">  1        1 0.12358458E+00 0.43578317E+03</pdfrwt>
<pdfrwt beam="2">  1       -1 0.37338237E-01 0.43578317E+03</pdfrwt>
<totfact> 0.15804034E+02</totfact>
</mgrwt>
</event>
<event>
 6    1  0.9022793E-004  0.4270300E+03  0.7818608E-02  0.1034802E+00
         -2   -1    0    0    0  501 -0.00000000000E+00  0.00000000000E+00  0.29320095235E+03  0.29320095235E+03  0.00000000000E+00 0. -1.
          2   -1    0    0  502    0  0.00000000000E+00 -0.00000000000E+00 -0.84490358376E+03  0.84490358376E+03  0.00000000000E+00 0.  1.
    9000007    2    1    2  502    0  0.50373207790E+02 -0.14104285352E+03 -0.56813101671E+03  0.71066981778E+03  0.39981019392E+03 0.  0.
    9000005    1    3    3    0    0 -0.42840109275E+02 -0.24592230151E+03 -0.21062674301E+03  0.32661548985E+03  0.99999687468E+00 0.  0.
          4    1    3    3  502    0  0.93213317066E+02  0.10487944799E+03 -0.35750427370E+03  0.38405432793E+03  0.00000000000E+00 0.  1.
   -9000007    1    1    2    0  501 -0.50373207790E+02  0.14104285352E+03  0.16428385294E+02  0.42743471833E+03  0.40000000000E+03 0. -1.
<mgrwt>
<rscale>  2 0.42703001E+03</rscale>
<asrwt>0</asrwt>
<pdfrwt beam="1">  1        2 0.12998517E+00 0.42703001E+03</pdfrwt>
<pdfrwt beam="2">  1       -2 0.45107839E-01 0.42703001E+03</pdfrwt>
<totfact> 0.15454893E+02</totfact>
</mgrwt>
</event>
<event>
 6    1  0.9022793E-004  0.5931705E+03  0.7818608E-02  0.9919677E-01
          1   -1    0    0  502    0  0.00000000000E+00  0.00000000000E+00  0.22593118542E+04  0.22593118542E+04  0.00000000000E+00 0.  1.
         -1   -1    0    0    0  501 -0.00000000000E+00 -0.00000000000E+00 -0.40017669955E+03  0.40017669955E+03  0.00000000000E+00 0. -1.
    9000007    2    1    2  502    0  0.21616333391E+02  0.43818265343E+03 -0.11002649126E+03  0.60277542563E+03  0.39844834211E+03 0.  0.
    9000005    1    3    3    0    0 -0.88957774094E+02  0.46695568028E+03 -0.11252582255E+03  0.48849171298E+03  0.99999687468E+00 0.  0.
          4    1    3    3  502    0  0.11057410749E+03 -0.28773026846E+02  0.24993312902E+01  0.11428371265E+03  0.00000000000E+00 0.  1.
   -9000007    1    1    2    0  501 -0.21616333391E+02 -0.43818265343E+03  0.19691616459E+04  0.20567131281E+04  0.40000000000E+03 0.  1.
<mgrwt>
<rscale>  2 0.59317055E+03</rscale>
<asrwt>0</asrwt>
<pdfrwt beam="1">  1        1 0.34758643E+00 0.59317055E+03</pdfrwt>
<pdfrwt beam="2">  1       -1 0.61565647E-01 0.59317055E+03</pdfrwt>
<totfact> 0.57720625E+00</totfact>
</mgrwt>
</event>
<event>
 6    1  0.9022793E-004  0.5643042E+03  0.7818608E-02  0.9982362E-01
          2   -1    0    0  502    0  0.00000000000E+00  0.00000000000E+00  0.10095066982E+04  0.10095066982E+04  0.00000000000E+00 0. -1.
         -2   -1    0    0    0  501 -0.00000000000E+00 -0.00000000000E+00 -0.65774672156E+03  0.65774672156E+03  0.00000000000E+00 0.  1.
    9000007    2    1    2  502    0  0.39636727920E+03  0.37571319233E+02  0.77725045057E+03  0.96045729117E+03  0.39980160230E+03 0.  0.
    9000005    1    3    3    0    0  0.30433431481E+02 -0.31140812212E+02  0.48546915118E+03  0.48741895807E+03  0.99999687468E+00 0.  0.
          4    1    3    3  502    0  0.36593384772E+03  0.68712131446E+02  0.29178129938E+03  0.47303833310E+03  0.00000000000E+00 0.  1.
   -9000007    1    1    2    0  501 -0.39636727920E+03 -0.37571319233E+02 -0.42549047390E+03  0.70679612862E+03  0.40000000000E+03 0.  1.
<mgrwt>
<rscale>  2 0.56430424E+03</rscale>
<asrwt>0</asrwt>
<pdfrwt beam="1">  1        2 0.15530872E+00 0.56430424E+03</pdfrwt>
<pdfrwt beam="2">  1       -2 0.10119180E+00 0.56430424E+03</pdfrwt>
<totfact> 0.20735716E+01</totfact>
</mgrwt>
</event>
<event>
 6    1  0.9022793E-004  0.4455171E+03  0.7818608E-02  0.1029067E+00
          1   -1    0    0  502    0  0.00000000000E+00  0.00000000000E+00  0.10924801079E+04  0.10924801079E+04  0.00000000000E+00 0. -1.
         -1   -1    0    0    0  501 -0.00000000000E+00 -0.00000000000E+00 -0.18255272359E+03  0.18255272359E+03  0.00000000000E+00 0.  1.
    9000007    2    1    2  502    0  0.30476299885E+02  0.19490359528E+03  0.41048382553E+03  0.60543587458E+03  0.39892281320E+03 0.  0.
    9000005    1    3    3    0    0  0.17962398380E+03  0.21612484178E+03  0.33394679747E+03  0.43645868800E+03  0.99999687468E+00 0.  0.
          4    1    3    3  502    0 -0.14914768392E+03 -0.21221246498E+02  0.76537028061E+02  0.16897718658E+03  0.00000000000E+00 0.  1.
   -9000007    1    1    2    0  501 -0.30476299885E+02 -0.19490359528E+03  0.49944355880E+03  0.66959695694E+03  0.40000000000E+03 0. -1.
<mgrwt>
<rscale>  2 0.44551707E+03</rscale>
<asrwt>0</asrwt>
<pdfrwt beam="1">  1        1 0.16807386E+00 0.44551707E+03</pdfrwt>
<pdfrwt beam="2">  1       -1 0.28085035E-01 0.44551707E+03</pdfrwt>
<totfact> 0.15378340E+02</totfact>
</mgrwt>
</event>
<event>
 6    1  0.9022793E-004  0.5777237E+03  0.7818608E-02  0.9952731E-01
          2   -1    0    0  502    0  0.00000000000E+00  0.00000000000E+00  0.27994948391E+03  0.27994948391E+03  0.00000000000E+00 0. -1.
         -2   -1    0    0    0  501 -0.00000000000E+00 -0.00000000000E+00 -0.12341174176E+04  0.12341174176E+04  0.00000000000E+00 0.  1.
    9000007    2    1    2  502    0  0.33281805039E+02  0.41568238178E+03 -0.33752473757E+03  0.66899391509E+03  0.39966284402E+03 0.  0.
    9000005    1    3    3    0    0  0.17640952008E+03  0.38218798611E+03 -0.30113257158E+03  0.51756139844E+03  0.99999687468E+00 0.  0.
          4    1    3    3  502    0 -0.14312771504E+03  0.33494395668E+02 -0.36392165994E+02  0.15143251665E+03  0.00000000000E+00 0.  1.
   -9000007    1    1    2    0  501 -0.33281805039E+02 -0.41568238178E+03 -0.61664319615E+03  0.84507298645E+03  0.40000000000E+03 0.  1.
<mgrwt>
<rscale>  2 0.57772371E+03</rscale>
<asrwt>0</asrwt>
<pdfrwt beam="1">  1        2 0.43069152E-01 0.57772371E+03</pdfrwt>
<pdfrwt beam="2">  1       -2 0.18986422E+00 0.57772371E+03</pdfrwt>
<totfact> 0.19017693E+01</totfact>
</mgrwt>
</event>
<event>
 6    1  0.9022793E-004  0.4069901E+03  0.7818608E-02  0.1041386E+00
         -2   -1    0    0    0  501 -0.00000000000E+00  0.00000000000E+00  0.85088512601E+02  0.85088512601E+02  0.00000000000E+00 0. -1.
          2   -1    0    0  502    0  0.00000000000E+00 -0.00000000000E+00 -0.20136722736E+04  0.20136722736E+04  0.00000000000E+00 0.  1.
    9000007    2    1    2  502    0  0.72763553270E+02  0.66364704647E+01 -0.11565311042E+04  0.12261761873E+04  0.40075587310E+03 0.  0.
    9000005    1    3    3    0    0 -0.26312725631E+01  0.73428056261E+02 -0.87695621026E+01  0.74003434074E+02  0.99999687468E+00 0.  0.
          4    1    3    3  502    0  0.75394825833E+02 -0.66791585796E+02 -0.11477615421E+04  0.11521727532E+04  0.00000000000E+00 0.  1.
   -9000007    1    1    2    0  501 -0.72763553270E+02 -0.66364704647E+01 -0.77205265684E+03  0.87258459897E+03  0.40000000000E+03 0.  1.
<mgrwt>
<rscale>  2 0.40699009E+03</rscale>
<asrwt>0</asrwt>
<pdfrwt beam="1">  1        2 0.30979575E+00 0.40699009E+03</pdfrwt>
<pdfrwt beam="2">  1       -2 0.13090540E-01 0.40699009E+03</pdfrwt>
<totfact> 0.30707874E+02</totfact>
</mgrwt>
</event>
<event>
 6    1  0.9022793E-004  0.4273898E+03  0.7818608E-02  0.1034688E+00
         -1   -1    0    0    0  501 -0.00000000000E+00  0.00000000000E+00  0.10474194440E+03  0.10474194440E+03  0.00000000000E+00 0. -1.
          1   -1    0    0  502    0  0.00000000000E+00 -0.00000000000E+00 -0.18287121286E+04  0.18287121286E+04  0.00000000000E+00 0.  1.
    9000007    2    1    2  502    0  0.40418488276E+02 -0.14514369737E+03 -0.10700590494E+04  0.11522369973E+04  0.39990421572E+03 0.  0.
    9000005    1    3    3    0    0  0.13356298187E+03  0.42047542688E+01 -0.10148636740E+03  0.16780117058E+03  0.99999687468E+00 0.  0.
          4    1    3    3  502    0 -0.93144493598E+02 -0.14934845164E+03 -0.96857268199E+03  0.98443582675E+03  0.00000000000E+00 0.  1.
   -9000007    1    1    2    0  501 -0.40418488276E+02  0.14514369737E+03 -0.65391113477E+03  0.78121707563E+03  0.40000000000E+03 0.  1.
<mgrwt>
<rscale>  2 0.42738979E+03</rscale>
<asrwt>0</asrwt>
<pdfrwt beam="1">  1        1 0.28134032E+00 0.42738979E+03</pdfrwt>
<pdfrwt beam="2">  1       -1 0.16114146E-01 0.42738979E+03</pdfrwt>
<totfact> 0.12165576E+02</totfact>
</mgrwt>
</event>
<event>
 6    1  0.9022793E-004  0.4119190E+03  0.7818608E-02  0.1039729E+00
         -2   -1    0    0    0  501 -0.00000000000E+00  0.00000000000E+00  0.64384237854E+03  0.64384237854E+03  0.00000000000E+00 0. -1.
          2   -1    0    0  502    0  0.00000000000E+00 -0.00000000000E+00 -0.33140155844E+03  0.33140155844E+03  0.00000000000E+00 0.  1.
    9000007    2    1    2  502    0  0.83263537861E+02 -0.48024484739E+02 -0.64277670627E+02  0.41743035779E+03  0.40109514681E+03 0.  0.
    9000005    1    3    3    0    0  0.20301602813E+03  0.81561017076E+02  0.24057518912E+02  0.22010786309E+03  0.99999687468E+00 0.  0.
          4    1    3    3  502    0 -0.11975249026E+03 -0.12958550181E+03 -0.88335189539E+02  0.19732249470E+03  0.00000000000E+00 0.  1.
   -9000007    1    1    2    0  501 -0.83263537861E+02  0.48024484739E+02  0.37671849072E+03  0.55781357919E+03  0.40000000000E+03 0. -1.
<mgrwt>
<rscale>  2 0.41191900E+03</rscale>
<asrwt>0</asrwt>
<pdfrwt beam="1">  1        2 0.50984856E-01 0.41191900E+03</pdfrwt>
<pdfrwt beam="2">  1       -2 0.99052673E-01 0.41191900E+03</pdfrwt>
<totfact> 0.85646900E+01</totfact>
</mgrwt>
</event>
<event>
 6    1  0.9022793E-004  0.5597608E+03  0.7818608E-02  0.9992596E-01
          1   -1    0    0  502    0  0.00000000000E+00  0.00000000000E+00  0.13805911587E+04  0.13805911587E+04  0.00000000000E+00 0.  1.
         -1   -1    0    0    0  501 -0.00000000000E+00 -0.00000000000E+00 -0.23413697009E+03  0.23413697009E+03  0.00000000000E+00 0. -1.
    9000007    2    1    2  502    0  0.52122821963E+02  0.38824710831E+03  0.71452169386E+03  0.90760841778E+03  0.39969886585E+03 0.  0.
    9000005    1    3    3    0    0  0.88108621110E+02 -0.61393885381E+02  0.16158563606E+03  0.19401870026E+03  0.99999687468E+00 0.  0.
          4    1    3    3  502    0 -0.35985799147E+02  0.44964099369E+03  0.55293605780E+03  0.71358971753E+03  0.00000000000E+00 0.  1.
   -9000007    1    1    2    0  501 -0.52122821963E+02 -0.38824710831E+03  0.43193249476E+03  0.70711971102E+03  0.40000000000E+03 0.  1.
<mgrwt>
<rscale>  2 0.55976082E+03</rscale>
<asrwt>0</asrwt>
<pdfrwt beam="1">  1        1 0.21239864E+00 0.55976082E+03</pdfrwt>
<pdfrwt beam="2">  1       -1 0.36021073E-01 0.55976082E+03</pdfrwt>
<totfact> 0.61272042E+01</totfact>
</mgrwt>
</event>
<event>
 6    1  0.9022793E-004  0.7391910E+03  0.7818608E-02  0.9652462E-01
          2   -1    0    0  502    0  0.00000000000E+00  0.00000000000E+00  0.89148514988E+03  0.89148514988E+03  0.00000000000E+00 0. -1.
         -2   -1    0    0    0  501 -0.00000000000E+00 -0.00000000000E+00 -0.81259304105E+03  0.81259304105E+03  0.00000000000E+00 0.  1.
    9000007    2    1    2  502    0  0.47844424931E+03  0.39529152273E+03  0.46184558919E+03  0.87232242403E+03  0.40308904173E+03 0.  0.
    9000005    1    3    3    0    0  0.23942758535E+03  0.38374830559E+03  0.14443706211E+03  0.47481722334E+03  0.99999687468E+00 0.  0.
          4    1    3    3  502    0  0.23901666396E+03  0.11543217141E+02  0.31740852708E+03  0.39750520069E+03  0.00000000000E+00 0.  1.
   -9000007    1    1    2    0  501 -0.47844424931E+03 -0.39529152273E+03 -0.38295348037E+03  0.83175576690E+03  0.40000000000E+03 0.  1.
<mgrwt>
<rscale>  2 0.73919095E+03</rscale>
<asrwt>0</asrwt>
<pdfrwt beam="1">  1        2 0.13715156E+00 0.73919095E+03</pdfrwt>
<pdfrwt beam="2">  1       -2 0.12501431E+00 0.73919095E+03</pdfrwt>
<totfact> 0.14485781E+01</totfact>
</mgrwt>
</event>
<event>
 6    1  0.9022793E-004  0.4205200E+03  0.7818608E-02  0.1036897E+00
         -2   -1    0    0    0  501 -0.00000000000E+00  0.00000000000E+00  0.31172036143E+03  0.31172036143E+03  0.00000000000E+00 0. -1.
          2   -1    0    0  502    0  0.00000000000E+00 -0.00000000000E+00 -0.58381792501E+03  0.58381792501E+03  0.00000000000E+00 0.  1.
    9000007    2    1    2  502    0  0.32730266978E+02  0.12545179318E+03 -0.60728085083E+02  0.42491478593E+03  0.40006905928E+03 0.  0.
    9000005    1    3    3    0    0  0.13693436895E+02 -0.78286773037E+02  0.12529017274E+03  0.14837437928E+03  0.99999687468E+00 0.  0.
          4    1    3    3  502    0  0.19036830083E+02  0.20373856622E+03 -0.18601825782E+03  0.27654040665E+03  0.00000000000E+00 0.  1.
   -9000007    1    1    2    0  501 -0.32730266978E+02 -0.12545179318E+03 -0.21136947850E+03  0.47062350051E+03  0.40000000000E+03 0. -1.
<mgrwt>
<rscale>  2 0.42051997E+03</rscale>
<asrwt>0</asrwt>
<pdfrwt beam="1">  1        2 0.89818141E-01 0.42051997E+03</pdfrwt>
<pdfrwt beam="2">  1       -2 0.47956979E-01 0.42051997E+03</pdfrwt>
<totfact> 0.21690019E+02</totfact>
</mgrwt>
</event>
<event>
 6    1  0.9022793E-004  0.4474090E+03  0.7818608E-02  0.1028498E+00
         -1   -1    0    0    0  501 -0.00000000000E+00  0.00000000000E+00  0.10168282449E+03  0.10168282449E+03  0.00000000000E+00 0.  1.
          1   -1    0    0  502    0  0.00000000000E+00 -0.00000000000E+00 -0.22536257730E+04  0.22536257730E+04  0.00000000000E+00 0. -1.
    9000007    2    1    2  502    0  0.15613401306E+03  0.12124153802E+03 -0.14973400518E+04  0.15631076804E+04  0.40274191410E+03 0.  0.
    9000005    1    3    3    0    0  0.21086490471E+03  0.23624060435E+03 -0.95988891457E+03  0.10107726547E+04  0.99999687468E+00 0.  0.
          4    1    3    3  502    0 -0.54730891650E+02 -0.11499906633E+03 -0.53745113721E+03  0.55233502573E+03  0.00000000000E+00 0.  1.
   -9000007    1    1    2    0  501 -0.15613401306E+03 -0.12124153802E+03 -0.65460289670E+03  0.79220091703E+03  0.40000000000E+03 0.  1.
<mgrwt>
<rscale>  2 0.44740903E+03</rscale>
<asrwt>0</asrwt>
<pdfrwt beam="1">  1        1 0.34671165E+00 0.44740903E+03</pdfrwt>
<pdfrwt beam="2">  1       -1 0.15643512E-01 0.44740903E+03</pdfrwt>
<totfact> 0.66671977E+01</totfact>
</mgrwt>
</event>
<event>
 6    1  0.9022793E-004  0.4308638E+03  0.7818608E-02  0.1033587E+00
          2   -1    0    0  502    0  0.00000000000E+00  0.00000000000E+00  0.89471715498E+03  0.89471715498E+03  0.00000000000E+00 0.  1.
         -2   -1    0    0    0  501 -0.00000000000E+00 -0.00000000000E+00 -0.32070550744E+03  0.32070550744E+03  0.00000000000E+00 0. -1.
    9000007    2    1    2  502    0  0.15091369928E+03  0.54122546007E+02  0.64805251712E+03  0.77817416901E+03  0.39984844347E+03 0.  0.
    9000005    1    3    3    0    0 -0.16583777294E+02  0.19173474472E+03  0.18528459412E+03  0.26714904981E+03  0.99999687468E+00 0.  0.
          4    1    3    3  502    0  0.16749747658E+03 -0.13761219871E+03  0.46276792300E+03  0.51102511920E+03  0.00000000000E+00 0.  1.
   -9000007    1    1    2    0  501 -0.15091369928E+03 -0.54122546007E+02 -0.74040869585E+02  0.43724849341E+03  0.40000000000E+03 0. -1.
<mgrwt>
<rscale>  2 0.43086375E+03</rscale>
<asrwt>0</asrwt>
<pdfrwt beam="1">  1        2 0.13764879E+00 0.43086375E+03</pdfrwt>
<pdfrwt beam="2">  1       -2 0.49339309E-01 0.43086375E+03</pdfrwt>
<totfact> 0.11959238E+02</totfact>
</mgrwt>
</event>
<event>
 6    1  0.9022793E-004  0.5312638E+03  0.7818608E-02  0.1005926E+00
         -1   -1    0    0    0  501 -0.00000000000E+00  0.00000000000E+00  0.65099627624E+03  0.65099627624E+03  0.00000000000E+00 0.  1.
          1   -1    0    0  502    0  0.00000000000E+00 -0.00000000000E+00 -0.49352086566E+03  0.49352086566E+03  0.00000000000E+00 0. -1.
    9000007    2    1    2  502    0  0.12499149862E+03  0.32647201878E+03  0.27822197813E+03  0.59973591301E+03  0.40008604382E+03 0.  0.
    9000005    1    3    3    0    0  0.25611019400E+03  0.29044388146E+03  0.15798570146E+03  0.41822310028E+03  0.99999687468E+00 0.  0.
          4    1    3    3  502    0 -0.13111869538E+03  0.36028137316E+02  0.12023627667E+03  0.18151281273E+03  0.00000000000E+00 0.  1.
   -9000007    1    1    2    0  501 -0.12499149862E+03 -0.32647201878E+03 -0.12074656755E+03  0.54478122889E+03  0.40000000000E+03 0. -1.
<mgrwt>
<rscale>  2 0.53126384E+03</rscale>
<asrwt>0</asrwt>
<pdfrwt beam="1">  1        1 0.75926288E-01 0.53126384E+03</pdfrwt>
<pdfrwt beam="2">  1       -1 0.10015327E+00 0.53126384E+03</pdfrwt>
<totfact> 0.44801766E+01</totfact>
</mgrwt>
</event>
<event>
 6    1  0.9022793E-004  0.4088267E+03  0.7818608E-02  0.1040765E+00
          2   -1    0    0  502    0  0.00000000000E+00  0.00000000000E+00  0.81385675378E+03  0.81385675378E+03  0.00000000000E+00 0.  1.
         -2   -1    0    0    0  501 -0.00000000000E+00 -0.00000000000E+00 -0.20544788393E+03  0.20544788393E+03  0.00000000000E+00 0. -1.
    9000007    2    1    2  502    0  0.28881152282E+02 -0.78198681935E+02  0.29426694544E+03  0.50390740887E+03  0.40047532599E+03 0.  0.
    9000005    1    3    3    0    0 -0.40295576729E+02  0.55234912171E+02 -0.77234377435E+02  0.10315414717E+03  0.99999687468E+00 0.  0.
          4    1    3    3  502    0  0.69176729011E+02 -0.13343359411E+03  0.37150132287E+03  0.40075326171E+03  0.00000000000E+00 0.  1.
   -9000007    1    1    2    0  501 -0.28881152282E+02  0.78198681935E+02  0.31414192442E+03  0.51539722884E+03  0.40000000000E+03 0.  1.
<mgrwt>
<rscale>  2 0.40882672E+03</rscale>
<asrwt>0</asrwt>
<pdfrwt beam="1">  1        2 0.12520873E+00 0.40882672E+03</pdfrwt>
<pdfrwt beam="2">  1       -2 0.31607367E-01 0.40882672E+03</pdfrwt>
<totfact> 0.32110729E+02</totfact>
</mgrwt>
</event>
<event>
 6    1  0.9022793E-004  0.5078003E+03  0.7818608E-02  0.1011763E+00
         -1   -1    0    0    0  501 -0.00000000000E+00  0.00000000000E+00  0.18445729225E+03  0.18445729225E+03  0.00000000000E+00 0. -1.
          1   -1    0    0  502    0  0.00000000000E+00 -0.00000000000E+00 -0.14316444848E+04  0.14316444848E+04  0.00000000000E+00 0.  1.
    9000007    2    1    2  502    0 -0.31256792924E+03 -0.10274255941E+02 -0.49968661535E+03  0.71246391617E+03  0.40014228413E+03 0.  0.
    9000005    1    3    3    0    0  0.12066489896E+02  0.14454970855E+03 -0.18074665604E+03  0.23175541435E+03  0.99999687468E+00 0.  0.
          4    1    3    3  502    0 -0.32463441914E+03 -0.15482396449E+03 -0.31893995932E+03  0.48070850181E+03  0.00000000000E+00 0.  1.
   -9000007    1    1    2    0  501  0.31256792924E+03  0.10274255941E+02 -0.74750057722E+03  0.90363786091E+03  0.40000000000E+03 0.  1.
<mgrwt>
<rscale>  2 0.50780034E+03</rscale>
<asrwt>0</asrwt>
<pdfrwt beam="1">  1        1 0.22025299E+00 0.50780034E+03</pdfrwt>
<pdfrwt beam="2">  1       -1 0.28378046E-01 0.50780034E+03</pdfrwt>
<totfact> 0.86361872E+01</totfact>
</mgrwt>
</event>
<event>
 6    1  0.9022793E-004  0.4466639E+03  0.7818608E-02  0.1028722E+00
          2   -1    0    0  502    0  0.00000000000E+00  0.00000000000E+00  0.12212714475E+04  0.12212714475E+04  0.00000000000E+00 0. -1.
         -2   -1    0    0    0  501 -0.00000000000E+00 -0.00000000000E+00 -0.17617677238E+03  0.17617677238E+03  0.00000000000E+00 0.  1.
    9000007    2    1    2  502    0  0.14871353176E+03 -0.13098032657E+03  0.33438540401E+03  0.55817518415E+03  0.40059253277E+03 0.  0.
    9000005    1    3    3    0    0  0.42681601704E+01  0.11012795451E+03  0.23586118754E+03  0.26034185860E+03  0.99999687468E+00 0.  0.
          4    1    3    3  502    0  0.14444537159E+03 -0.24110828108E+03  0.98524216475E+02  0.29783332556E+03  0.00000000000E+00 0.  1.
   -9000007    1    1    2    0  501 -0.14871353176E+03  0.13098032657E+03  0.71070927114E+03  0.83927303577E+03  0.40000000000E+03 0. -1.
<mgrwt>
<rscale>  2 0.44666386E+03</rscale>
<asrwt>0</asrwt>
<pdfrwt beam="1">  1        2 0.18788791E+00 0.44666386E+03</pdfrwt>
<pdfrwt beam="2">  1       -2 0.27104120E-01 0.44666386E+03</pdfrwt>
<totfact> 0.23569201E+02</totfact>
</mgrwt>
</event>
<event>
 6    1  0.9022793E-004  0.4683896E+03  0.7818608E-02  0.1022376E+00
         -2   -1    0    0    0  501 -0.00000000000E+00  0.00000000000E+00  0.76608284165E+02  0.76608284165E+02  0.00000000000E+00 0.  1.
          2   -1    0    0  502    0  0.00000000000E+00 -0.00000000000E+00 -0.29270577778E+04  0.29270577778E+04  0.00000000000E+00 0. -1.
    9000007    2    1    2  502    0 -0.23372535990E+03  0.68894420066E+02 -0.12044438594E+04  0.12923190682E+04  0.40003697171E+03 0.  0.
    9000005    1    3    3    0    0  0.10761459473E+03 -0.31576804812E+02 -0.31287134525E+03  0.33236647586E+03  0.99999687468E+00 0.  0.
          4    1    3    3  502    0 -0.34133995462E+03  0.10047122488E+03 -0.89157251414E+03  0.95995259238E+03  0.00000000000E+00 0.  1.
   -9000007    1    1    2    0  501  0.23372535990E+03 -0.68894420066E+02 -0.16460056343E+04  0.17113469937E+04  0.40000000000E+03 0. -1.
<mgrwt>
<rscale>  2 0.46838955E+03</rscale>
<asrwt>0</asrwt>
<pdfrwt beam="1">  1        2 0.45031656E+00 0.46838955E+03</pdfrwt>
<pdfrwt beam="2">  1       -2 0.11785890E-01 0.46838955E+03</pdfrwt>
<totfact> 0.11151130E+02</totfact>
</mgrwt>
</event>
<event>
 6    1  0.9022793E-004  0.4682097E+03  0.7818608E-02  0.1022427E+00
          2   -1    0    0  502    0  0.00000000000E+00  0.00000000000E+00  0.15991603936E+04  0.15991603936E+04  0.00000000000E+00 0. -1.
         -2   -1    0    0    0  501 -0.00000000000E+00 -0.00000000000E+00 -0.14665877747E+03  0.14665877747E+03  0.00000000000E+00 0.  1.
    9000007    2    1    2  502    0  0.13613189955E+03 -0.20137138422E+03  0.94949526069E+03  0.10587254933E+04  0.40034496573E+03 0.  0.
    9000005    1    3    3    0    0 -0.40371800186E+02  0.23205522704E+02 -0.18009531072E+02  0.49937177908E+02  0.99999687468E+00 0.  0.
          4    1    3    3  502    0  0.17650369973E+03 -0.22457690692E+03  0.96750479176E+03  0.10087883154E+04  0.00000000000E+00 0.  1.
   -9000007    1    1    2    0  501 -0.13613189955E+03  0.20137138422E+03  0.50300635543E+03  0.68709367779E+03  0.40000000000E+03 0. -1.
<mgrwt>
<rscale>  2 0.46820971E+03</rscale>
<asrwt>0</asrwt>
<pdfrwt beam="1">  1        2 0.24602466E+00 0.46820971E+03</pdfrwt>
<pdfrwt beam="2">  1       -2 0.22562890E-01 0.46820971E+03</pdfrwt>
<totfact> 0.20106634E+02</totfact>
</mgrwt>
</event>
<event>
 6    1  0.9022793E-004  0.4184821E+03  0.7818608E-02  0.1037561E+00
          1   -1    0    0  502    0  0.00000000000E+00  0.00000000000E+00  0.16270698982E+04  0.16270698982E+04  0.00000000000E+00 0. -1.
         -1   -1    0    0    0  501 -0.00000000000E+00 -0.00000000000E+00 -0.10936845052E+03  0.10936845052E+03  0.00000000000E+00 0.  1.
    9000007    2    1    2  502    0  0.54229551816E+02  0.10913761971E+03  0.86878702175E+03  0.96446568306E+03  0.40068853278E+03 0.  0.
    9000005    1    3    3    0    0 -0.66435635013E+01 -0.65556032927E+02 -0.97905744513E+01  0.66622711825E+02  0.99999687468E+00 0.  0.
          4    1    3    3  502    0  0.60873115317E+02  0.17469365264E+03  0.87857759621E+03  0.89784297123E+03  0.00000000000E+00 0.  1.
   -9000007    1    1    2    0  501 -0.54229551816E+02 -0.10913761971E+03  0.64891442588E+03  0.77197266561E+03  0.40000000000E+03 0.  1.
<mgrwt>
<rscale>  2 0.41848214E+03</rscale>
<asrwt>0</asrwt>
<pdfrwt beam="1">  1        1 0.25031843E+00 0.41848214E+03</pdfrwt>
<pdfrwt beam="2">  1       -1 0.16825917E-01 0.41848214E+03</pdfrwt>
<totfact> 0.15443003E+02</totfact>
</mgrwt>
</event>
<event>
 6    1  0.9022793E-004  0.4032128E+03  0.7818608E-02  0.1042673E+00
          1   -1    0    0  502    0  0.00000000000E+00  0.00000000000E+00  0.13697944824E+04  0.13697944824E+04  0.00000000000E+00 0. -1.
         -1   -1    0    0    0  501 -0.00000000000E+00 -0.00000000000E+00 -0.11873877012E+03  0.11873877012E+03  0.00000000000E+00 0.  1.
    9000007    2    1    2  502    0 -0.65462009156E+02  0.33783616229E+02  0.60643005012E+03  0.72632012505E+03  0.39288282095E+03 0.  0.
    9000005    1    3    3    0    0 -0.22460290410E+03  0.92514575645E+01  0.25614501576E+03  0.34079806790E+03  0.99999687468E+00 0.  0.
          4    1    3    3  502    0  0.15914089494E+03  0.24532158664E+02  0.35028503436E+03  0.38552205715E+03  0.00000000000E+00 0.  1.
   -9000007    1    1    2    0  501  0.65462009156E+02 -0.33783616229E+02  0.64462566214E+03  0.76221312745E+03  0.40000000000E+03 0. -1.
<mgrwt>
<rscale>  2 0.40321282E+03</rscale>
<asrwt>0</asrwt>
<pdfrwt beam="1">  1        1 0.21073760E+00 0.40321282E+03</pdfrwt>
<pdfrwt beam="2">  1       -1 0.18267504E-01 0.40321282E+03</pdfrwt>
<totfact> 0.20178005E+02</totfact>
</mgrwt>
</event>
<event>
 6    1  0.9022793E-004  0.6986566E+03  0.7818608E-02  0.9719532E-01
         -1   -1    0    0    0  501 -0.00000000000E+00  0.00000000000E+00  0.13898372825E+04  0.13898372825E+04  0.00000000000E+00 0. -1.
          1   -1    0    0  502    0  0.00000000000E+00 -0.00000000000E+00 -0.35895478101E+03  0.35895478101E+03  0.00000000000E+00 0.  1.
    9000007    2    1    2  502    0 -0.45707477879E+03  0.34583219563E+03  0.64369620764E+03  0.94977361124E+03  0.39900857627E+03 0.  0.
    9000005    1    3    3    0    0 -0.28678016793E+03  0.23677537364E+03  0.64841725153E+03  0.74749673869E+03  0.99999687468E+00 0.  0.
          4    1    3    3  502    0 -0.17029461086E+03  0.10905682200E+03 -0.47210438904E+01  0.20227687255E+03  0.00000000000E+00 0.  1.
   -9000007    1    1    2    0  501  0.45707477879E+03 -0.34583219563E+03  0.38718629388E+03  0.79901845229E+03  0.40000000000E+03 0.  1.
<mgrwt>
<rscale>  2 0.69865658E+03</rscale>
<asrwt>0</asrwt>
<pdfrwt beam="1">  1        1 0.55223813E-01 0.69865658E+03</pdfrwt>
<pdfrwt beam="2">  1       -1 0.21382112E+00 0.69865658E+03</pdfrwt>
<totfact> 0.87249072E+00</totfact>
</mgrwt>
</event>
<event>
 6    1  0.9022793E-004  0.5216265E+03  0.7818608E-02  0.1008283E+00
          2   -1    0    0  502    0  0.00000000000E+00  0.00000000000E+00  0.13199492119E+04  0.13199492119E+04  0.00000000000E+00 0. -1.
         -2   -1    0    0    0  501 -0.00000000000E+00 -0.00000000000E+00 -0.62142312897E+03  0.62142312897E+03  0.00000000000E+00 0.  1.
    9000007    2    1    2  502    0 -0.75448863006E+02  0.32625480287E+03  0.11427734277E+04  0.12561786233E+04  0.39989861112E+03 0.  0.
    9000005    1    3    3    0    0 -0.32018335512E+02  0.41803288108E+03  0.89144470102E+03  0.98511487576E+03  0.99999687468E+00 0.  0.
          4    1    3    3  502    0 -0.43430527493E+02 -0.91778078212E+02  0.25132872668E+03  0.27106374750E+03  0.00000000000E+00 0.  1.
   -9000007    1    1    2    0  501  0.75448863006E+02 -0.32625480287E+03 -0.44424734476E+03  0.68519371761E+03  0.40000000000E+03 0.  1.
<mgrwt>
<rscale>  2 0.52162647E+03</rscale>
<asrwt>0</asrwt>
<pdfrwt beam="1">  1        2 0.20306911E+00 0.52162647E+03</pdfrwt>
<pdfrwt beam="2">  1       -2 0.95603559E-01 0.52162647E+03</pdfrwt>
<totfact> 0.15603931E+01</totfact>
</mgrwt>
</event>
<event>
 6    1  0.9022793E-004  0.4546597E+03  0.7818608E-02  0.1026342E+00
          2   -1    0    0  502    0  0.00000000000E+00  0.00000000000E+00  0.24390516276E+04  0.24390516276E+04  0.00000000000E+00 0. -1.
         -2   -1    0    0    0  501 -0.00000000000E+00 -0.00000000000E+00 -0.88412195202E+02  0.88412195202E+02  0.00000000000E+00 0.  1.
    9000007    2    1    2  502    0 -0.21353117516E+03 -0.37776122313E+02  0.14315974406E+04  0.15019586883E+04  0.39923185153E+03 0.  0.
    9000005    1    3    3    0    0  0.87753588386E+02  0.81916069864E+02  0.54186990035E+03  0.55500894018E+03  0.99999687468E+00 0.  0.
          4    1    3    3  502    0 -0.30128476354E+03 -0.11969219218E+03  0.88972754021E+03  0.94694974809E+03  0.00000000000E+00 0.  1.
   -9000007    1    1    2    0  501  0.21353117516E+03  0.37776122313E+02  0.91904199182E+03  0.10255051345E+04  0.40000000000E+03 0.  1.
<mgrwt>
<rscale>  2 0.45465966E+03</rscale>
<asrwt>0</asrwt>
<pdfrwt beam="1">  1        2 0.37523866E+00 0.45465966E+03</pdfrwt>
<pdfrwt beam="2">  1       -2 0.13601878E-01 0.45465966E+03</pdfrwt>
<totfact> 0.16806038E+02</totfact>
</mgrwt>
</event>
<event>
 6    1  0.9022793E-004  0.4547140E+03  0.7818608E-02  0.1026326E+00
          2   -1    0    0  502    0  0.00000000000E+00  0.00000000000E+00  0.21117634375E+04  0.21117634375E+04  0.00000000000E+00 0. -1.
         -2   -1    0    0    0  501 -0.00000000000E+00 -0.00000000000E+00 -0.10173501839E+03  0.10173501839E+03  0.00000000000E+00 0.  1.
    9000007    2    1    2  502    0 -0.17749032364E+03 -0.12333237927E+03  0.79056138227E+03  0.91203253444E+03  0.40012792201E+03 0.  0.
    9000005    1    3    3    0    0  0.18742604618E+01 -0.12839021198E+03  0.69879082476E+03  0.71049079948E+03  0.99999687468E+00 0.  0.
          4    1    3    3  502    0 -0.17936458411E+03  0.50578327165E+01  0.91770557513E+02  0.20154173496E+03  0.00000000000E+00 0.  1.
   -9000007    1    1    2    0  501  0.17749032364E+03  0.12333237927E+03  0.12194670368E+04  0.13014659214E+04  0.40000000000E+03 0. -1.
<mgrwt>
<rscale>  2 0.45471404E+03</rscale>
<asrwt>0</asrwt>
<pdfrwt beam="1">  1        2 0.32488665E+00 0.45471404E+03</pdfrwt>
<pdfrwt beam="2">  1       -2 0.15651543E-01 0.45471404E+03</pdfrwt>
<totfact> 0.20053479E+02</totfact>
</mgrwt>
</event>
<event>
 6    1  0.9022793E-004  0.4329061E+03  0.7818608E-02  0.1032946E+00
         -3   -1    0    0    0  501 -0.00000000000E+00  0.00000000000E+00  0.96730101594E+03  0.96730101594E+03  0.00000000000E+00 0. -1.
          3   -1    0    0  502    0  0.00000000000E+00 -0.00000000000E+00 -0.19591292116E+03  0.19591292116E+03  0.00000000000E+00 0.  1.
    9000007    2    1    2  502    0  0.11630470619E+03  0.11812066390E+03  0.44683268193E+03  0.62208965199E+03  0.39982097688E+03 0.  0.
    9000005    1    3    3    0    0 -0.56510802034E+02 -0.12097951891E+03  0.18135400370E+03  0.22521054459E+03  0.99999687468E+00 0.  0.
          4    1    3    3  502    0  0.17281550822E+03  0.23910018281E+03  0.26547867824E+03  0.39687910741E+03  0.00000000000E+00 0.  1.
   -9000007    1    1    2    0  501 -0.11630470619E+03 -0.11812066390E+03  0.32455541285E+03  0.54112428510E+03  0.40000000000E+03 0.  1.
<mgrwt>
<rscale>  2 0.43290607E+03</rscale>
<asrwt>0</asrwt>
<pdfrwt beam="1">  1        3 0.30140450E-01 0.43290607E+03</pdfrwt>
<pdfrwt beam="2">  1       -3 0.14881554E+00 0.43290607E+03</pdfrwt>
<totfact> 0.92630177E+00</totfact>
</mgrwt>
</event>
<event>
 6    1  0.9022793E-004  0.4188046E+03  0.7818608E-02  0.1037456E+00
         -1   -1    0    0    0  501 -0.00000000000E+00  0.00000000000E+00  0.27132654574E+03  0.27132654574E+03  0.00000000000E+00 0.  1.
          1   -1    0    0  502    0  0.00000000000E+00 -0.00000000000E+00 -0.81862229932E+03  0.81862229932E+03  0.00000000000E+00 0. -1.
    9000007    2    1    2  502    0  0.10951846436E+03 -0.59944088436E+02 -0.23597701428E+02  0.41924232384E+03  0.39952432568E+03 0.  0.
    9000005    1    3    3    0    0 -0.12725739480E+03  0.33452088581E+02 -0.85972623320E+02  0.15718071993E+03  0.99999687468E+00 0.  0.
          4    1    3    3  502    0  0.23677585917E+03 -0.93396177017E+02  0.62374921892E+02  0.26206160392E+03  0.00000000000E+00 0.  1.
   -9000007    1    1    2    0  501 -0.10951846436E+03  0.59944088436E+02 -0.52369805215E+03  0.67070652122E+03  0.40000000000E+03 0. -1.
<mgrwt>
<rscale>  2 0.41880464E+03</rscale>
<asrwt>0</asrwt>
<pdfrwt beam="1">  1        1 0.12594189E+00 0.41880464E+03</pdfrwt>
<pdfrwt beam="2">  1       -1 0.41742546E-01 0.41880464E+03</pdfrwt>
<totfact> 0.12581689E+02</totfact>
</mgrwt>
</event>
<event>
 6    1  0.9022793E-004  0.6758456E+03  0.7818608E-02  0.9759455E-01
         -2   -1    0    0    0  501 -0.00000000000E+00  0.00000000000E+00  0.34369211207E+03  0.34369211207E+03  0.00000000000E+00 0. -1.
          2   -1    0    0  502    0  0.00000000000E+00 -0.00000000000E+00 -0.15815444932E+04  0.15815444932E+04  0.00000000000E+00 0.  1.
    9000007    2    1    2  502    0 -0.21164372210E+03 -0.50165078458E+03 -0.23444531543E+03  0.71557867250E+03  0.40080126727E+03 0.  0.
    9000005    1    3    3    0    0 -0.30266899896E+03 -0.36474096047E+03 -0.27264516869E+03  0.54679144029E+03  0.99999687468E+00 0.  0.
          4    1    3    3  502    0  0.91025276868E+02 -0.13690982411E+03  0.38199853261E+02  0.16878723221E+03  0.00000000000E+00 0.  1.
   -9000007    1    1    2    0  501  0.21164372210E+03  0.50165078458E+03 -0.10034070657E+04  0.12096579327E+04  0.40000000000E+03 0.  1.
<mgrwt>
<rscale>  2 0.67584561E+03</rscale>
<asrwt>0</asrwt>
<pdfrwt beam="1">  1        2 0.24331454E+00 0.67584561E+03</pdfrwt>
<pdfrwt beam="2">  1       -2 0.52875709E-01 0.67584561E+03</pdfrwt>
<totfact> 0.39793564E+01</totfact>
</mgrwt>
</event>
<event>
 6    1  0.9022793E-004  0.4751929E+03  0.7818608E-02  0.1020465E+00
         -4   -1    0    0    0  501 -0.00000000000E+00  0.00000000000E+00  0.23181936382E+03  0.23181936382E+03  0.00000000000E+00 0. -1.
          4   -1    0    0  502    0  0.00000000000E+00 -0.00000000000E+00 -0.10419796735E+04  0.10419796735E+04  0.00000000000E+00 0.  1.
    9000007    2    1    2  502    0 -0.99978223756E+02  0.23609152958E+03 -0.56773664847E+03  0.74040979197E+03  0.40018358594E+03 0.  0.
    9000005    1    3    3    0    0  0.11849782000E+01  0.88039917620E+02  0.47169672719E+02  0.99891988098E+02  0.99999687468E+00 0.  0.
          4    1    3    3  502    0 -0.10116320196E+03  0.14805161196E+03 -0.61490632119E+03  0.64051780387E+03  0.00000000000E+00 0.  1.
   -9000007    1    1    2    0  501  0.99978223756E+02 -0.23609152958E+03 -0.24242366124E+03  0.53338924539E+03  0.40000000000E+03 0. -1.
<mgrwt>
<rscale>  2 0.47519290E+03</rscale>
<asrwt>0</asrwt>
<pdfrwt beam="1">  1        4 0.16030456E+00 0.47519290E+03</pdfrwt>
<pdfrwt beam="2">  1       -4 0.35664518E-01 0.47519290E+03</pdfrwt>
<totfact> 0.37443205E+00</totfact>
</mgrwt>
</event>
<event>
 6    1  0.9022793E-004  0.4163575E+03  0.7818608E-02  0.1038258E+00
          2   -1    0    0  502    0  0.00000000000E+00  0.00000000000E+00  0.30421584625E+03  0.30421584625E+03  0.00000000000E+00 0.  1.
         -2   -1    0    0    0  501 -0.00000000000E+00 -0.00000000000E+00 -0.59747974028E+03  0.59747974028E+03  0.00000000000E+00 0. -1.
    9000007    2    1    2  502    0 -0.11026084790E+03 -0.36898548938E+02 -0.49591470125E+02  0.41910341122E+03  0.39958653368E+03 0.  0.
    9000005    1    3    3    0    0 -0.16881236039E+03  0.44950532100E+01 -0.19440370478E+03  0.25751042493E+03  0.99999687468E+00 0.  0.
          4    1    3    3  502    0  0.58551512490E+02 -0.41393602148E+02  0.14481223465E+03  0.16159298629E+03  0.00000000000E+00 0.  1.
   -9000007    1    1    2    0  501  0.11026084790E+03  0.36898548938E+02 -0.24367242391E+03  0.48259217531E+03  0.40000000000E+03 0. -1.
<mgrwt>
<rscale>  2 0.41635751E+03</rscale>
<asrwt>0</asrwt>
<pdfrwt beam="1">  1        2 0.46802438E-01 0.41635751E+03</pdfrwt>
<pdfrwt beam="2">  1       -2 0.91919960E-01 0.41635751E+03</pdfrwt>
<totfact> 0.11183174E+02</totfact>
</mgrwt>
</event>
<event>
 6    1  0.9022793E-004  0.5079520E+03  0.7818608E-02  0.1011724E+00
          2   -1    0    0  502    0  0.00000000000E+00  0.00000000000E+00  0.18384741083E+04  0.18384741083E+04  0.00000000000E+00 0. -1.
         -2   -1    0    0    0  501 -0.00000000000E+00 -0.00000000000E+00 -0.27571849081E+03  0.27571849081E+03  0.00000000000E+00 0.  1.
    9000007    2    1    2  502    0  0.28989711164E+03  0.11783088711E+03  0.40729317863E+02  0.50967132781E+03  0.40022685038E+03 0.  0.
    9000005    1    3    3    0    0  0.68574187997E+02  0.22092945459E+03  0.10960935737E+03  0.25598330880E+03  0.99999687468E+00 0.  0.
          4    1    3    3  502    0  0.22132292364E+03 -0.10309856749E+03 -0.68880039504E+02  0.25368801901E+03  0.00000000000E+00 0.  1.
   -9000007    1    1    2    0  501 -0.28989711164E+03 -0.11783088711E+03  0.15220262996E+04  0.16045212713E+04  0.40000000000E+03 0. -1.
<mgrwt>
<rscale>  2 0.50795197E+03</rscale>
<asrwt>0</asrwt>
<pdfrwt beam="1">  1        2 0.28284216E+00 0.50795197E+03</pdfrwt>
<pdfrwt beam="2">  1       -2 0.42418230E-01 0.50795197E+03</pdfrwt>
<totfact> 0.46035079E+01</totfact>
</mgrwt>
</event>
<event>
 6    1  0.9022793E-004  0.4105896E+03  0.7818608E-02  0.1040173E+00
         -1   -1    0    0    0  501 -0.00000000000E+00  0.00000000000E+00  0.12883279088E+03  0.12883279088E+03  0.00000000000E+00 0. -1.
          1   -1    0    0  502    0  0.00000000000E+00 -0.00000000000E+00 -0.13403039314E+04  0.13403039314E+04  0.00000000000E+00 0.  1.
    9000007    2    1    2  502    0  0.79195759206E+02 -0.48081883828E+02 -0.71880535515E+03  0.82780731246E+03  0.39999996518E+03 0.  0.
    9000005    1    3    3    0    0 -0.34009473097E+02 -0.16086994629E+03 -0.10867408977E+03  0.19709602142E+03  0.99999687468E+00 0.  0.
          4    1    3    3  502    0  0.11320523230E+03  0.11278806246E+03 -0.61013126538E+03  0.63071129104E+03  0.00000000000E+00 0.  1.
   -9000007    1    1    2    0  501 -0.79195759206E+02  0.48081883828E+02 -0.49266578540E+03  0.64132940984E+03  0.40000000000E+03 0. -1.
<mgrwt>
<rscale>  2 0.41058960E+03</rscale>
<asrwt>0</asrwt>
<pdfrwt beam="1">  1        1 0.20620062E+00 0.41058960E+03</pdfrwt>
<pdfrwt beam="2">  1       -1 0.19820428E-01 0.41058960E+03</pdfrwt>
<totfact> 0.18476973E+02</totfact>
</mgrwt>
</event>
<event>
 6    1  0.9022793E-004  0.7833128E+03  0.7818608E-02  0.9584490E-01
          2   -1    0    0  502    0  0.00000000000E+00  0.00000000000E+00  0.11528339732E+04  0.11528339732E+04  0.00000000000E+00 0.  1.
         -2   -1    0    0    0  501 -0.00000000000E+00 -0.00000000000E+00 -0.53611964083E+03  0.53611964083E+03  0.00000000000E+00 0. -1.
    9000007    2    1    2  502    0  0.28636261244E+03 -0.60931236968E+03  0.38031587142E+03  0.87093812395E+03  0.40078416142E+03 0.  0.
    9000005    1    3    3    0    0  0.10026509769E+03 -0.22379456423E+02  0.20730128216E+03  0.23136281348E+03  0.99999687468E+00 0.  0.
          4    1    3    3  502    0  0.18609751475E+03 -0.58693291326E+03  0.17301458926E+03  0.63957531047E+03  0.00000000000E+00 0.  1.
   -9000007    1    1    2    0  501 -0.28636261244E+03  0.60931236968E+03  0.23639846092E+03  0.81801549006E+03  0.40000000000E+03 0. -1.
<mgrwt>
<rscale>  2 0.78331284E+03</rscale>
<asrwt>0</asrwt>
<pdfrwt beam="1">  1        2 0.17735907E+00 0.78331284E+03</pdfrwt>
<pdfrwt beam="2">  1       -2 0.82479945E-01 0.78331284E+03</pdfrwt>
<totfact> 0.26474084E+01</totfact>
</mgrwt>
</event>
<event>
 6    1  0.9022793E-004  0.4422996E+03  0.7818608E-02  0.1030044E+00
         -2   -1    0    0    0  501 -0.00000000000E+00  0.00000000000E+00  0.19087172243E+03  0.19087172243E+03  0.00000000000E+00 0.  1.
          2   -1    0    0  502    0  0.00000000000E+00 -0.00000000000E+00 -0.10271749629E+04  0.10271749629E+04  0.00000000000E+00 0. -1.
    9000007    2    1    2  502    0  0.16640081568E+03 -0.89778314243E+02 -0.38951065095E+03  0.58925976179E+03  0.39969881472E+03 0.  0.
    9000005    1    3    3    0    0  0.13674214486E+03 -0.17316061876E+03 -0.43647160394E+03  0.48907205513E+03  0.99999687468E+00 0.  0.
          4    1    3    3  502    0  0.29658670817E+02  0.83382304513E+02  0.46960952984E+02  0.10018770666E+03  0.00000000000E+00 0.  1.
   -9000007    1    1    2    0  501 -0.16640081568E+03  0.89778314243E+02 -0.44679258950E+03  0.62878692353E+03  0.40000000000E+03 0.  1.
<mgrwt>
<rscale>  2 0.44229957E+03</rscale>
<asrwt>0</asrwt>
<pdfrwt beam="1">  1        2 0.15802692E+00 0.44229957E+03</pdfrwt>
<pdfrwt beam="2">  1       -2 0.29364881E-01 0.44229957E+03</pdfrwt>
<totfact> 0.26599348E+02</totfact>
</mgrwt>
</event>
<event>
 6    1  0.9022793E-004  0.4273089E+03  0.7818608E-02  0.1034713E+00
         -2   -1    0    0    0  501 -0.00000000000E+00  0.00000000000E+00  0.94434823281E+02  0.94434823281E+02  0.00000000000E+00 0. -1.
          2   -1    0    0  502    0  0.00000000000E+00 -0.00000000000E+00 -0.19396900722E+04  0.19396900722E+04  0.00000000000E+00 0.  1.
    9000007    2    1    2  502    0 -0.14741617356E+03 -0.38216323953E+02 -0.97839525029E+03  0.10673579779E+04  0.39850190917E+03 0.  0.
    9000005    1    3    3    0    0 -0.14318061463E+03 -0.26502262470E+02 -0.74850521760E+02  0.16372739210E+03  0.99999687468E+00 0.  0.
          4    1    3    3  502    0 -0.42355589275E+01 -0.11714061483E+02 -0.90354472853E+03  0.90363058583E+03  0.00000000000E+00 0.  1.
   -9000007    1    1    2    0  501  0.14741617356E+03  0.38216323953E+02 -0.86685999859E+03  0.96676691751E+03  0.40000000000E+03 0. -1.
<mgrwt>
<rscale>  2 0.42730893E+03</rscale>
<asrwt>0</asrwt>
<pdfrwt beam="1">  1        2 0.29841385E+00 0.42730893E+03</pdfrwt>
<pdfrwt beam="2">  1       -2 0.14528434E-01 0.42730893E+03</pdfrwt>
<totfact> 0.28214516E+02</totfact>
</mgrwt>
</event>
<event>
 6    1  0.9022793E-004  0.4955791E+03  0.7818608E-02  0.1014939E+00
          2   -1    0    0  502    0  0.00000000000E+00  0.00000000000E+00  0.87466976837E+03  0.87466976837E+03  0.00000000000E+00 0. -1.
         -2   -1    0    0    0  501 -0.00000000000E+00 -0.00000000000E+00 -0.49537070601E+03  0.49537070601E+03  0.00000000000E+00 0.  1.
    9000007    2    1    2  502    0 -0.17724836256E+03  0.22944577783E+03  0.64083406765E+03  0.81105665888E+03  0.40383443966E+03 0.  0.
    9000005    1    3    3    0    0 -0.20948239899E+03  0.16446421236E+03  0.67880405873E+03  0.72918262649E+03  0.99999687468E+00 0.  0.
          4    1    3    3  502    0  0.32234036431E+02  0.64981565472E+02 -0.37969991082E+02  0.81874032383E+02  0.00000000000E+00 0.  1.
   -9000007    1    1    2    0  501  0.17724836256E+03 -0.22944577783E+03 -0.26153500529E+03  0.55898381550E+03  0.40000000000E+03 0.  1.
<mgrwt>
<rscale>  2 0.49557909E+03</rscale>
<asrwt>0</asrwt>
<pdfrwt beam="1">  1        2 0.13456458E+00 0.49557909E+03</pdfrwt>
<pdfrwt beam="2">  1       -2 0.76210878E-01 0.49557909E+03</pdfrwt>
<totfact> 0.48936175E+01</totfact>
</mgrwt>
</event>
<event>
 6    1  0.9022793E-004  0.5304036E+03  0.7818608E-02  0.1006134E+00
         -2   -1    0    0    0  501 -0.00000000000E+00  0.00000000000E+00  0.37401839898E+03  0.37401839898E+03  0.00000000000E+00 0.  1.
          2   -1    0    0  502    0  0.00000000000E+00 -0.00000000000E+00 -0.96146382168E+03  0.96146382168E+03  0.00000000000E+00 0. -1.
    9000007    2    1    2  502    0 -0.34853966803E+03 -0.11537849865E+02  0.17932704088E+02  0.53043830970E+03  0.39928711017E+03 0.  0.
    9000005    1    3    3    0    0 -0.54060970236E+02  0.44124088405E+02 -0.16512001731E+03  0.17926277860E+03  0.99999687468E+00 0.  0.
          4    1    3    3  502    0 -0.29447869780E+03 -0.55661938270E+02  0.18305272140E+03  0.35117553110E+03  0.00000000000E+00 0.  1.
   -9000007    1    1    2    0  501  0.34853966803E+03  0.11537849865E+02 -0.60537812679E+03  0.80504391096E+03  0.40000000000E+03 0. -1.
<mgrwt>
<rscale>  2 0.53040360E+03</rscale>
<asrwt>0</asrwt>
<pdfrwt beam="1">  1        2 0.14791751E+00 0.53040360E+03</pdfrwt>
<pdfrwt beam="2">  1       -2 0.57541292E-01 0.53040360E+03</pdfrwt>
<totfact> 0.78093910E+01</totfact>
</mgrwt>
</event>
<event>
 6    1  0.9022793E-004  0.4266382E+03  0.7818608E-02  0.1034927E+00
         -1   -1    0    0    0  501 -0.00000000000E+00  0.00000000000E+00  0.33885173546E+03  0.33885173546E+03  0.00000000000E+00 0. -1.
          1   -1    0    0  502    0  0.00000000000E+00 -0.00000000000E+00 -0.55465776765E+03  0.55465776765E+03  0.00000000000E+00 0.  1.
    9000007    2    1    2  502    0 -0.99810896470E+01  0.14834875880E+03 -0.18721111672E+03  0.46581259457E+03  0.39978293441E+03 0.  0.
    9000005    1    3    3    0    0  0.27765243433E+02 -0.98149260950E+02  0.56938427625E+02  0.11682110555E+03  0.99999687468E+00 0.  0.
          4    1    3    3  502    0 -0.37746333080E+02  0.24649801975E+03 -0.24414954434E+03  0.34899148901E+03  0.00000000000E+00 0.  1.
   -9000007    1    1    2    0  501  0.99810896470E+01 -0.14834875880E+03 -0.28594915476E+02  0.42769690855E+03  0.40000000000E+03 0. -1.
<mgrwt>
<rscale>  2 0.42663820E+03</rscale>
<asrwt>0</asrwt>
<pdfrwt beam="1">  1        1 0.85331964E-01 0.42663820E+03</pdfrwt>
<pdfrwt beam="2">  1       -1 0.52131036E-01 0.42663820E+03</pdfrwt>
<totfact> 0.14786286E+02</totfact>
</mgrwt>
</event>
<event>
 6    1  0.9022793E-004  0.4879647E+03  0.7818608E-02  0.1016969E+00
          2   -1    0    0  502    0  0.00000000000E+00  0.00000000000E+00  0.58044734906E+03  0.58044734906E+03  0.00000000000E+00 0.  1.
         -2   -1    0    0    0  501 -0.00000000000E+00 -0.00000000000E+00 -0.50107791021E+03  0.50107791021E+03  0.00000000000E+00 0. -1.
    9000007    2    1    2  502    0  0.11623199415E+03 -0.25339261651E+03 -0.19056047387E+03  0.52422834348E+03  0.40097926048E+03 0.  0.
    9000005    1    3    3    0    0 -0.97434033928E+02 -0.10814986930E+03 -0.22041999087E+03  0.26415101281E+03  0.99999687468E+00 0.  0.
          4    1    3    3  502    0  0.21366602808E+03 -0.14524274722E+03  0.29859517000E+02  0.26007733067E+03  0.00000000000E+00 0.  1.
   -9000007    1    1    2    0  501 -0.11623199415E+03  0.25339261651E+03  0.26992991272E+03  0.55729691579E+03  0.40000000000E+03 0.  1.
<mgrwt>
<rscale>  2 0.48796471E+03</rscale>
<asrwt>0</asrwt>
<pdfrwt beam="1">  1        2 0.89299592E-01 0.48796471E+03</pdfrwt>
<pdfrwt beam="2">  1       -2 0.77088909E-01 0.48796471E+03</pdfrwt>
<totfact> 0.79995700E+01</totfact>
</mgrwt>
</event>
<event>
 6    1  0.9022793E-004  0.4107987E+03  0.7818608E-02  0.1040103E+00
          2   -1    0    0  502    0  0.00000000000E+00  0.00000000000E+00  0.98677092908E+03  0.98677092908E+03  0.00000000000E+00 0. -1.
         -2   -1    0    0    0  501 -0.00000000000E+00 -0.00000000000E+00 -0.17120388015E+03  0.17120388015E+03  0.00000000000E+00 0.  1.
    9000007    2    1    2  502    0 -0.80169459609E+02 -0.49292633374E+02  0.42673776385E+03  0.59224950585E+03  0.39974673498E+03 0.  0.
    9000005    1    3    3    0    0  0.15049006710E+03 -0.84423326877E+02  0.22681393785E+03  0.28499143990E+03  0.99999687468E+00 0.  0.
          4    1    3    3  502    0 -0.23065952671E+03  0.35130693504E+02  0.19992382600E+03  0.30725806595E+03  0.00000000000E+00 0.  1.
   -9000007    1    1    2    0  501  0.80169459609E+02  0.49292633374E+02  0.38882928508E+03  0.56572530339E+03  0.40000000000E+03 0.  1.
<mgrwt>
<rscale>  2 0.41079874E+03</rscale>
<asrwt>0</asrwt>
<pdfrwt beam="1">  1        2 0.15181091E+00 0.41079874E+03</pdfrwt>
<pdfrwt beam="2">  1       -2 0.26339059E-01 0.41079874E+03</pdfrwt>
<totfact> 0.34435816E+02</totfact>
</mgrwt>
</event>
<event>
 6    1  0.9022793E-004  0.7022156E+03  0.7818608E-02  0.9713451E-01
          1   -1    0    0  502    0  0.00000000000E+00  0.00000000000E+00  0.47549648697E+04  0.47549648697E+04  0.00000000000E+00 0.  1.
         -1   -1    0    0    0  501 -0.00000000000E+00 -0.00000000000E+00 -0.10796431158E+03  0.10796431158E+03  0.00000000000E+00 0. -1.
    9000007    2    1    2  502    0  0.48399896269E+03 -0.31435918788E+03  0.28065955541E+04  0.28931151612E+04  0.40007503896E+03 0.  0.
    9000005    1    3    3    0    0  0.24471311398E+03 -0.46966364698E+02  0.49866567240E+03  0.55745744267E+03  0.99999687468E+00 0.  0.
          4    1    3    3  502    0  0.23928584871E+03 -0.26739282318E+03  0.23079298817E+04  0.23356577185E+04  0.00000000000E+00 0.  1.
   -9000007    1    1    2    0  501 -0.48399896269E+03  0.31435918788E+03  0.18404050040E+04  0.19698140201E+04  0.40000000000E+03 0. -1.
<mgrwt>
<rscale>  2 0.70221557E+03</rscale>
<asrwt>0</asrwt>
<pdfrwt beam="1">  1        1 0.73153290E+00 0.70221557E+03</pdfrwt>
<pdfrwt beam="2">  1       -1 0.16609898E-01 0.70221557E+03</pdfrwt>
<totfact> 0.54925976E-01</totfact>
</mgrwt>
</event>
<event>
 6    1  0.9022793E-004  0.4419819E+03  0.7818608E-02  0.1030140E+00
          2   -1    0    0  502    0  0.00000000000E+00  0.00000000000E+00  0.70003038213E+03  0.70003038213E+03  0.00000000000E+00 0. -1.
         -2   -1    0    0    0  501 -0.00000000000E+00 -0.00000000000E+00 -0.28901888415E+03  0.28901888415E+03  0.00000000000E+00 0.  1.
    9000007    2    1    2  502    0  0.32223015739E+02  0.18487636772E+03  0.11375832673E+03  0.45652974372E+03  0.40032593711E+03 0.  0.
    9000005    1    3    3    0    0  0.57854550398E+02  0.26980896676E+03  0.19367388958E+03  0.33712698356E+03  0.99999687468E+00 0.  0.
          4    1    3    3  502    0 -0.25631534659E+02 -0.84932599040E+02 -0.79915562851E+02  0.11940276016E+03  0.00000000000E+00 0.  1.
   -9000007    1    1    2    0  501 -0.32223015739E+02 -0.18487636772E+03  0.29725317125E+03  0.53251952256E+03  0.40000000000E+03 0. -1.
<mgrwt>
<rscale>  2 0.44198188E+03</rscale>
<asrwt>0</asrwt>
<pdfrwt beam="1">  1        2 0.10769698E+00 0.44198188E+03</pdfrwt>
<pdfrwt beam="2">  1       -2 0.44464444E-01 0.44198188E+03</pdfrwt>
<totfact> 0.20211796E+02</totfact>
</mgrwt>
</event>
<event>
 6    1  0.9022793E-004  0.6076680E+03  0.7818608E-02  0.9889624E-01
         -1   -1    0    0    0  501 -0.00000000000E+00  0.00000000000E+00  0.14745724423E+04  0.14745724423E+04  0.00000000000E+00 0. -1.
          1   -1    0    0  502    0  0.00000000000E+00 -0.00000000000E+00 -0.28070533725E+03  0.28070533725E+03  0.00000000000E+00 0.  1.
    9000007    2    1    2  502    0  0.70205050494E+02 -0.45191223201E+03  0.88529206276E+03  0.10738293433E+04  0.40026742007E+03 0.  0.
    9000005    1    3    3    0    0 -0.76070168199E+02 -0.44669230617E+03  0.73920054468E+03  0.86702891078E+03  0.99999687468E+00 0.  0.
          4    1    3    3  502    0  0.14627521869E+03 -0.52199258347E+01  0.14609151808E+03  0.20680043250E+03  0.00000000000E+00 0.  1.
   -9000007    1    1    2    0  501 -0.70205050494E+02  0.45191223201E+03  0.30857504227E+03  0.68144843625E+03  0.40000000000E+03 0.  1.
<mgrwt>
<rscale>  2 0.60766800E+03</rscale>
<asrwt>0</asrwt>
<pdfrwt beam="1">  1        1 0.43185437E-01 0.60766800E+03</pdfrwt>
<pdfrwt beam="2">  1       -1 0.22685729E+00 0.60766800E+03</pdfrwt>
<totfact> 0.99706804E+00</totfact>
</mgrwt>
</event>
<event>
 6    1  0.9022793E-004  0.5054796E+03  0.7818608E-02  0.1012358E+00
         -2   -1    0    0    0  501 -0.00000000000E+00  0.00000000000E+00  0.21217352658E+03  0.21217352658E+03  0.00000000000E+00 0. -1.
          2   -1    0    0  502    0  0.00000000000E+00 -0.00000000000E+00 -0.13179808609E+04  0.13179808609E+04  0.00000000000E+00 0.  1.
    9000007    2    1    2  502    0 -0.27829004710E+03  0.13211925036E+03 -0.77825089641E+03  0.92832877599E+03  0.40152087361E+03 0.  0.
    9000005    1    3    3    0    0 -0.39955421563E+02 -0.12449950170E+03 -0.98660903411E+02  0.16380334396E+03  0.99999687468E+00 0.  0.
          4    1    3    3  502    0 -0.23833462553E+03  0.25661875206E+03 -0.67958999300E+03  0.76452543203E+03  0.00000000000E+00 0.  1.
   -9000007    1    1    2    0  501  0.27829004710E+03 -0.13211925036E+03 -0.32755643790E+03  0.60182561148E+03  0.40000000000E+03 0. -1.
<mgrwt>
<rscale>  2 0.50547960E+03</rscale>
<asrwt>0</asrwt>
<pdfrwt beam="1">  1        2 0.20276629E+00 0.50547960E+03</pdfrwt>
<pdfrwt beam="2">  1       -2 0.32642081E-01 0.50547960E+03</pdfrwt>
<totfact> 0.14646277E+02</totfact>
</mgrwt>
</event>
<event>
 6    1  0.9022793E-004  0.5456123E+03  0.7818608E-02  0.1002515E+00
         -2   -1    0    0    0  501 -0.00000000000E+00  0.00000000000E+00  0.18048451390E+03  0.18048451390E+03  0.00000000000E+00 0. -1.
          2   -1    0    0  502    0  0.00000000000E+00 -0.00000000000E+00 -0.23467179177E+04  0.23467179177E+04  0.00000000000E+00 0.  1.
    9000007    2    1    2  502    0  0.64124489538E+02 -0.36564121150E+03 -0.39417410708E+03  0.67301808348E+03  0.39971823613E+03 0.  0.
    9000005    1    3    3    0    0 -0.13597528448E+03 -0.14006367133E+02 -0.13748006002E+03  0.19387424586E+03  0.99999687468E+00 0.  0.
          4    1    3    3  502    0  0.20009977402E+03 -0.35163484437E+03 -0.25669404706E+03  0.47914383762E+03  0.00000000000E+00 0.  1.
   -9000007    1    1    2    0  501 -0.64124489538E+02  0.36564121150E+03 -0.17720592968E+04  0.18541843482E+04  0.40000000000E+03 0.  1.
<mgrwt>
<rscale>  2 0.54561228E+03</rscale>
<asrwt>0</asrwt>
<pdfrwt beam="1">  1        2 0.36103353E+00 0.54561228E+03</pdfrwt>
<pdfrwt beam="2">  1       -2 0.27766848E-01 0.54561228E+03</pdfrwt>
<totfact> 0.53952303E+01</totfact>
</mgrwt>
</event>
<event>
 6    1  0.9022793E-004  0.4082040E+03  0.7818608E-02  0.1040975E+00
          2   -1    0    0  502    0  0.00000000000E+00  0.00000000000E+00  0.83882156995E+03  0.83882156995E+03  0.00000000000E+00 0.  1.
         -2   -1    0    0    0  501 -0.00000000000E+00 -0.00000000000E+00 -0.21261732019E+03  0.21261732019E+03  0.00000000000E+00 0. -1.
    9000007    2    1    2  502    0  0.68915573805E+02  0.38463633834E+02  0.17870385532E+03  0.44605850521E+03  0.40100413305E+03 0.  0.
    9000005    1    3    3    0    0  0.14915594346E+03 -0.14513460300E+03  0.98251315385E+02  0.23014314986E+03  0.99999687468E+00 0.  0.
          4    1    3    3  502    0 -0.80240369659E+02  0.18359823684E+03  0.80452539932E+02  0.21591535535E+03  0.00000000000E+00 0.  1.
   -9000007    1    1    2    0  501 -0.68915573805E+02 -0.38463633834E+02  0.44750039444E+03  0.60538038493E+03  0.40000000000E+03 0.  1.
<mgrwt>
<rscale>  2 0.40820397E+03</rscale>
<asrwt>0</asrwt>
<pdfrwt beam="1">  1        2 0.12904947E+00 0.40820397E+03</pdfrwt>
<pdfrwt beam="2">  1       -2 0.32710357E-01 0.40820397E+03</pdfrwt>
<totfact> 0.28955245E+02</totfact>
</mgrwt>
</event>
<event>
 6    1  0.9022793E-004  0.7088939E+03  0.7818608E-02  0.9702142E-01
         -1   -1    0    0    0  501 -0.00000000000E+00  0.00000000000E+00  0.55521648321E+03  0.55521648321E+03  0.00000000000E+00 0. -1.
          1   -1    0    0  502    0  0.00000000000E+00 -0.00000000000E+00 -0.96018029676E+03  0.96018029676E+03  0.00000000000E+00 0.  1.
    9000007    2    1    2  502    0  0.42135179507E+03  0.40626337378E+03 -0.21007880685E+02  0.70916516160E+03  0.39985826400E+03 0.  0.
    9000005    1    3    3    0    0  0.43758071811E+03  0.42303395477E+03  0.72363995004E+02  0.61292100593E+03  0.99999687468E+00 0.  0.
          4    1    3    3  502    0 -0.16228923046E+02 -0.16770580983E+02 -0.93371875689E+02  0.96244155664E+02  0.00000000000E+00 0.  1.
   -9000007    1    1    2    0  501 -0.42135179507E+03 -0.40626337378E+03 -0.38395593287E+03  0.80623161838E+03  0.40000000000E+03 0.  1.
<mgrwt>
<rscale>  2 0.70889391E+03</rscale>
<asrwt>0</asrwt>
<pdfrwt beam="1">  1        1 0.14772004E+00 0.70889391E+03</pdfrwt>
<pdfrwt beam="2">  1       -1 0.85417921E-01 0.70889391E+03</pdfrwt>
<totfact> 0.22767638E+01</totfact>
</mgrwt>
</event>
<event>
 6    1  0.9022793E-004  0.4637638E+03  0.7818608E-02  0.1023695E+00
          1   -1    0    0  502    0  0.00000000000E+00  0.00000000000E+00  0.11708655258E+04  0.11708655258E+04  0.00000000000E+00 0. -1.
         -1   -1    0    0    0  501 -0.00000000000E+00 -0.00000000000E+00 -0.28404312854E+03  0.28404312854E+03  0.00000000000E+00 0.  1.
    9000007    2    1    2  502    0 -0.18215514131E+03 -0.15106846201E+03  0.10405743124E+02  0.46288631217E+03  0.39768490389E+03 0.  0.
    9000005    1    3    3    0    0  0.50135084140E+02 -0.15927521320E+03  0.12027801892E+03  0.20579096683E+03  0.99999687468E+00 0.  0.
          4    1    3    3  502    0 -0.23229022545E+03  0.82067511904E+01 -0.10987227579E+03  0.25709534534E+03  0.00000000000E+00 0.  1.
   -9000007    1    1    2    0  501  0.18215514131E+03  0.15106846201E+03  0.87641665410E+03  0.99202234214E+03  0.40000000000E+03 0. -1.
<mgrwt>
<rscale>  2 0.46376377E+03</rscale>
<asrwt>0</asrwt>
<pdfrwt beam="1">  1        1 0.18013316E+00 0.46376377E+03</pdfrwt>
<pdfrwt beam="2">  1       -1 0.43698943E-01 0.46376377E+03</pdfrwt>
<totfact> 0.61607131E+01</totfact>
</mgrwt>
</event>
<event>
 6    1  0.9022793E-004  0.4532302E+03  0.7818608E-02  0.1026763E+00
         -2   -1    0    0    0  501 -0.00000000000E+00  0.00000000000E+00  0.12978724530E+03  0.12978724530E+03  0.00000000000E+00 0.  1.
          2   -1    0    0  502    0  0.00000000000E+00 -0.00000000000E+00 -0.17206564295E+04  0.17206564295E+04  0.00000000000E+00 0. -1.
    9000007    2    1    2  502    0  0.75319816624E+02 -0.20002802830E+03 -0.10569158611E+04  0.11498793036E+04  0.39933317996E+03 0.  0.
    9000005    1    3    3    0    0 -0.35261548638E+02 -0.15966916097E+03 -0.10100115627E+04  0.10231627312E+04  0.99999687468E+00 0.  0.
          4    1    3    3  502    0  0.11058136526E+03 -0.40358867333E+02 -0.46904298382E+02  0.12671657241E+03  0.00000000000E+00 0.  1.
   -9000007    1    1    2    0  501 -0.75319816624E+02  0.20002802830E+03 -0.53395332308E+03  0.70056437114E+03  0.40000000000E+03 0. -1.
<mgrwt>
<rscale>  2 0.45323019E+03</rscale>
<asrwt>0</asrwt>
<pdfrwt beam="1">  1        2 0.26471634E+00 0.45323019E+03</pdfrwt>
<pdfrwt beam="2">  1       -2 0.19967271E-01 0.45323019E+03</pdfrwt>
<totfact> 0.21451588E+02</totfact>
</mgrwt>
</event>
<event>
 6    1  0.9022793E-004  0.4065856E+03  0.7818608E-02  0.1041523E+00
         -1   -1    0    0    0  501 -0.00000000000E+00  0.00000000000E+00  0.33125742432E+03  0.33125742432E+03  0.00000000000E+00 0. -1.
          1   -1    0    0  502    0  0.00000000000E+00 -0.00000000000E+00 -0.53141723738E+03  0.53141723738E+03  0.00000000000E+00 0.  1.
    9000007    2    1    2  502    0 -0.25468485597E+02  0.67664418599E+02 -0.20656625170E+03  0.45614279363E+03  0.40021183708E+03 0.  0.
    9000005    1    3    3    0    0  0.63362415308E+02  0.14455850882E+02  0.10740279161E+03  0.12553934418E+03  0.99999687468E+00 0.  0.
          4    1    3    3  502    0 -0.88830900905E+02  0.53208567717E+02 -0.31396904331E+03  0.33060344945E+03  0.00000000000E+00 0.  1.
   -9000007    1    1    2    0  501  0.25468485597E+02 -0.67664418599E+02  0.64064386436E+01  0.40653186807E+03  0.40000000000E+03 0. -1.
<mgrwt>
<rscale>  2 0.40658560E+03</rscale>
<asrwt>0</asrwt>
<pdfrwt beam="1">  1        1 0.81756497E-01 0.40658560E+03</pdfrwt>
<pdfrwt beam="2">  1       -1 0.50962681E-01 0.40658560E+03</pdfrwt>
<totfact> 0.16401487E+02</totfact>
</mgrwt>
</event>
<event>
 6    1  0.9022793E-004  0.5217248E+03  0.7818608E-02  0.1008259E+00
         -2   -1    0    0    0  501 -0.00000000000E+00  0.00000000000E+00  0.23365875014E+03  0.23365875014E+03  0.00000000000E+00 0.  1.
          2   -1    0    0  502    0  0.00000000000E+00 -0.00000000000E+00 -0.12164310074E+04  0.12164310074E+04  0.00000000000E+00 0. -1.
    9000007    2    1    2  502    0 -0.30053094734E+03 -0.14845093103E+03 -0.64043030021E+03  0.82594670921E+03  0.39960038511E+03 0.  0.
    9000005    1    3    3    0    0 -0.34001658386E+03 -0.31444450198E+02 -0.60951172763E+03  0.69864553019E+03  0.99999687468E+00 0.  0.
          4    1    3    3  502    0  0.39485636517E+02 -0.11700648083E+03 -0.30918572587E+02  0.12730117902E+03  0.00000000000E+00 0.  1.
   -9000007    1    1    2    0  501  0.30053094734E+03  0.14845093103E+03 -0.34234195706E+03  0.62414304835E+03  0.40000000000E+03 0.  1.
<mgrwt>
<rscale>  2 0.52172475E+03</rscale>
<asrwt>0</asrwt>
<pdfrwt beam="1">  1        2 0.18714323E+00 0.52172475E+03</pdfrwt>
<pdfrwt beam="2">  1       -2 0.35947499E-01 0.52172475E+03</pdfrwt>
<totfact> 0.13938524E+02</totfact>
</mgrwt>
</event>
<event>
 6    1  0.9022793E-004  0.4992467E+03  0.7818608E-02  0.1013976E+00
          1   -1    0    0  502    0  0.00000000000E+00  0.00000000000E+00  0.77907289634E+03  0.77907289634E+03  0.00000000000E+00 0. -1.
         -1   -1    0    0    0  501 -0.00000000000E+00 -0.00000000000E+00 -0.44388193647E+03  0.44388193647E+03  0.00000000000E+00 0.  1.
    9000007    2    1    2  502    0 -0.26882934403E+03 -0.13060705493E+03  0.49070562826E+03  0.69997086451E+03  0.39979967303E+03 0.  0.
    9000005    1    3    3    0    0 -0.84877902890E+02 -0.11902067227E+03  0.49445868398E+03  0.51561668803E+03  0.99999687468E+00 0.  0.
          4    1    3    3  502    0 -0.18395144113E+03 -0.11586382661E+02 -0.37530557107E+01  0.18435417648E+03  0.00000000000E+00 0.  1.
   -9000007    1    1    2    0  501  0.26882934403E+03  0.13060705493E+03 -0.15551466839E+03  0.52298396829E+03  0.40000000000E+03 0.  1.
<mgrwt>
<rscale>  2 0.49924673E+03</rscale>
<asrwt>0</asrwt>
<pdfrwt beam="1">  1        1 0.11985737E+00 0.49924673E+03</pdfrwt>
<pdfrwt beam="2">  1       -1 0.68289529E-01 0.49924673E+03</pdfrwt>
<totfact> 0.52655249E+01</totfact>
</mgrwt>
</event>
<event>
 6    1  0.9022793E-004  0.4392882E+03  0.7818608E-02  0.1030965E+00
         -2   -1    0    0    0  501 -0.00000000000E+00  0.00000000000E+00  0.16212391073E+03  0.16212391073E+03  0.00000000000E+00 0. -1.
          2   -1    0    0  502    0  0.00000000000E+00 -0.00000000000E+00 -0.12084544988E+04  0.12084544988E+04  0.00000000000E+00 0.  1.
    9000007    2    1    2  502    0 -0.30584057264E+02  0.18037488861E+03 -0.43848507846E+03  0.62028070291E+03  0.39875870069E+03 0.  0.
    9000005    1    3    3    0    0  0.29320312712E+02 -0.67497881102E+02  0.35757253833E+02  0.81824359981E+02  0.99999687468E+00 0.  0.
          4    1    3    3  502    0 -0.59904369975E+02  0.24787276971E+03 -0.47424233229E+03  0.53845634293E+03  0.00000000000E+00 0.  1.
   -9000007    1    1    2    0  501  0.30584057264E+02 -0.18037488861E+03 -0.60784550960E+03  0.75029770661E+03  0.40000000000E+03 0.  1.
<mgrwt>
<rscale>  2 0.43928817E+03</rscale>
<asrwt>0</asrwt>
<pdfrwt beam="1">  1        2 0.18591608E+00 0.43928817E+03</pdfrwt>
<pdfrwt beam="2">  1       -2 0.24942140E-01 0.43928817E+03</pdfrwt>
<totfact> 0.27861487E+02</totfact>
</mgrwt>
</event>
<event>
 6    1  0.9022793E-004  0.4090587E+03  0.7818608E-02  0.1040687E+00
         -1   -1    0    0    0  501 -0.00000000000E+00  0.00000000000E+00  0.25348520527E+03  0.25348520527E+03  0.00000000000E+00 0.  1.
          1   -1    0    0  502    0  0.00000000000E+00 -0.00000000000E+00 -0.69905147728E+03  0.69905147728E+03  0.00000000000E+00 0. -1.
    9000007    2    1    2  502    0 -0.59870567360E+02 -0.60967878964E+02 -0.33520497316E+03  0.52888448630E+03  0.40006856752E+03 0.  0.
    9000005    1    3    3    0    0  0.14793303917E+03 -0.10605495103E+03 -0.22492078612E+03  0.28934788187E+03  0.99999687468E+00 0.  0.
          4    1    3    3  502    0 -0.20780360653E+03  0.45087072066E+02 -0.11028418704E+03  0.23953660444E+03  0.00000000000E+00 0.  1.
   -9000007    1    1    2    0  501  0.59870567360E+02  0.60967878964E+02 -0.11036129885E+03  0.42365219625E+03  0.40000000000E+03 0.  1.
<mgrwt>
<rscale>  2 0.40905867E+03</rscale>
<asrwt>0</asrwt>
<pdfrwt beam="1">  1        1 0.10754638E+00 0.40905867E+03</pdfrwt>
<pdfrwt beam="2">  1       -1 0.38997723E-01 0.40905867E+03</pdfrwt>
<totfact> 0.18131379E+02</totfact>
</mgrwt>
</event>
<event>
 6    1  0.9022793E-004  0.7429593E+03  0.7818608E-02  0.9646461E-01
         -1   -1    0    0    0  501 -0.00000000000E+00  0.00000000000E+00  0.48447522857E+03  0.48447522857E+03  0.00000000000E+00 0.  1.
          1   -1    0    0  502    0  0.00000000000E+00 -0.00000000000E+00 -0.11420800483E+04  0.11420800483E+04  0.00000000000E+00 0. -1.
    9000007    2    1    2  502    0 -0.58352616950E+03  0.22751857454E+03 -0.36845627834E+03  0.82913796377E+03  0.39930219341E+03 0.  0.
    9000005    1    3    3    0    0 -0.33303169146E+02  0.13940232005E+03 -0.20179163017E+03  0.24751357521E+03  0.99999687468E+00 0.  0.
          4    1    3    3  502    0 -0.55022300035E+03  0.88116254486E+02 -0.16666464817E+03  0.58162438856E+03  0.00000000000E+00 0.  1.
   -9000007    1    1    2    0  501  0.58352616950E+03 -0.22751857454E+03 -0.28914854138E+03  0.79741731310E+03  0.40000000000E+03 0. -1.
<mgrwt>
<rscale>  2 0.74295931E+03</rscale>
<asrwt>0</asrwt>
<pdfrwt beam="1">  1        1 0.17570462E+00 0.74295931E+03</pdfrwt>
<pdfrwt beam="2">  1       -1 0.74534651E-01 0.74295931E+03</pdfrwt>
<totfact> 0.22017891E+01</totfact>
</mgrwt>
</event>
<event>
 6    1  0.9022793E-004  0.4013359E+03  0.7818608E-02  0.1043318E+00
          2   -1    0    0  502    0  0.00000000000E+00  0.00000000000E+00  0.69315305375E+03  0.69315305375E+03  0.00000000000E+00 0.  1.
         -2   -1    0    0    0  501 -0.00000000000E+00 -0.00000000000E+00 -0.29600057240E+03  0.29600057240E+03  0.00000000000E+00 0. -1.
    9000007    2    1    2  502    0 -0.35134034278E+02  0.59034162014E+01 -0.30821682100E+02  0.40227106952E+03  0.39950317471E+03 0.  0.
    9000005    1    3    3    0    0  0.15918006956E+03 -0.81341329589E+02 -0.57088678212E+02  0.18765613131E+03  0.99999687468E+00 0.  0.
          4    1    3    3  502    0 -0.19431410384E+03  0.87244745791E+02  0.26266996112E+02  0.21461493821E+03  0.00000000000E+00 0.  1.
   -9000007    1    1    2    0  501  0.35134034278E+02 -0.59034162014E+01  0.42797416345E+03  0.58688255662E+03  0.40000000000E+03 0.  1.
<mgrwt>
<rscale>  2 0.40133592E+03</rscale>
<asrwt>0</asrwt>
<pdfrwt beam="1">  1        2 0.10663893E+00 0.40133592E+03</pdfrwt>
<pdfrwt beam="2">  1       -2 0.45538550E-01 0.40133592E+03</pdfrwt>
<totfact> 0.19582064E+02</totfact>
</mgrwt>
</event>
<event>
 6    1  0.9022793E-004  0.4018998E+03  0.7818608E-02  0.1043124E+00
          2   -1    0    0  502    0  0.00000000000E+00  0.00000000000E+00  0.77670448638E+03  0.77670448638E+03  0.00000000000E+00 0. -1.
         -2   -1    0    0    0  501 -0.00000000000E+00 -0.00000000000E+00 -0.23808354312E+03  0.23808354312E+03  0.00000000000E+00 0.  1.
    9000007    2    1    2  502    0 -0.11118278462E+01  0.34173840977E+02  0.89087814806E+02  0.41208651039E+03  0.40088597597E+03 0.  0.
    9000005    1    3    3    0    0 -0.10512906135E+03 -0.10525480264E+03  0.16511081517E+03  0.22224597701E+03  0.99999687468E+00 0.  0.
          4    1    3    3  502    0  0.10401723350E+03  0.13942864362E+03 -0.76023000365E+02  0.18984053337E+03  0.00000000000E+00 0.  1.
   -9000007    1    1    2    0  501  0.11118278462E+01 -0.34173840977E+02  0.44953312845E+03  0.60270151911E+03  0.40000000000E+03 0. -1.
<mgrwt>
<rscale>  2 0.40189984E+03</rscale>
<asrwt>0</asrwt>
<pdfrwt beam="1">  1        2 0.11949300E+00 0.40189984E+03</pdfrwt>
<pdfrwt beam="2">  1       -2 0.36628238E-01 0.40189984E+03</pdfrwt>
<totfact> 0.25883843E+02</totfact>
</mgrwt>
</event>
<event>
 6    1  0.9022793E-004  0.4860287E+03  0.7818608E-02  0.1017491E+00
         -2   -1    0    0    0  501 -0.00000000000E+00  0.00000000000E+00  0.40111001626E+03  0.40111001626E+03  0.00000000000E+00 0.  1.
          2   -1    0    0  502    0  0.00000000000E+00 -0.00000000000E+00 -0.58897598171E+03  0.58897598171E+03  0.00000000000E+00 0. -1.
    9000007    2    1    2  502    0  0.47809084782E+02  0.27231330372E+03 -0.98465291954E+02  0.49568461812E+03  0.39945911299E+03 0.  0.
    9000005    1    3    3    0    0 -0.78846103016E+02  0.18277657838E+03 -0.22142751154E+03  0.29775011070E+03  0.99999687468E+00 0.  0.
          4    1    3    3  502    0  0.12665518780E+03  0.89536725339E+02  0.12296221959E+03  0.19793450742E+03  0.00000000000E+00 0.  1.
   -9000007    1    1    2    0  501 -0.47809084782E+02 -0.27231330372E+03 -0.89400673496E+02  0.49440137984E+03  0.40000000000E+03 0. -1.
<mgrwt>
<rscale>  2 0.48602874E+03</rscale>
<asrwt>0</asrwt>
<pdfrwt beam="1">  1        2 0.90611690E-01 0.48602874E+03</pdfrwt>
<pdfrwt beam="2">  1       -2 0.61709233E-01 0.48602874E+03</pdfrwt>
<totfact> 0.12724284E+02</totfact>
</mgrwt>
</event>
<event>
 6    1  0.9022793E-004  0.4928703E+03  0.7818608E-02  0.1015657E+00
         -2   -1    0    0    0  501 -0.00000000000E+00  0.00000000000E+00  0.38760232417E+03  0.38760232417E+03  0.00000000000E+00 0.  1.
          2   -1    0    0  502    0  0.00000000000E+00 -0.00000000000E+00 -0.62943897640E+03  0.62943897640E+03  0.00000000000E+00 0. -1.
    9000007    2    1    2  502    0 -0.66351540624E+02 -0.28029575517E+03 -0.15428149545E+03  0.51640755940E+03  0.39988217047E+03 0.  0.
    9000005    1    3    3    0    0 -0.21094756321E+03 -0.58252420636E+02 -0.11896556283E+03  0.24909039337E+03  0.99999687468E+00 0.  0.
          4    1    3    3  502    0  0.14459602259E+03 -0.22204333453E+03 -0.35315932626E+02  0.26731716604E+03  0.00000000000E+00 0.  1.
   -9000007    1    1    2    0  501  0.66351540624E+02  0.28029575517E+03 -0.87555156777E+02  0.50063374116E+03  0.40000000000E+03 0. -1.
<mgrwt>
<rscale>  2 0.49287027E+03</rscale>
<asrwt>0</asrwt>
<pdfrwt beam="1">  1        2 0.96836765E-01 0.49287027E+03</pdfrwt>
<pdfrwt beam="2">  1       -2 0.59631127E-01 0.49287027E+03</pdfrwt>
<totfact> 0.12623323E+02</totfact>
</mgrwt>
</event>
<event>
 6    1  0.9022793E-004  0.4841839E+03  0.7818608E-02  0.1017992E+00
         -2   -1    0    0    0  501 -0.00000000000E+00  0.00000000000E+00  0.52419494600E+03  0.52419494600E+03  0.00000000000E+00 0. -1.
          2   -1    0    0  502    0  0.00000000000E+00 -0.00000000000E+00 -0.68413268513E+03  0.68413268513E+03  0.00000000000E+00 0.  1.
    9000007    2    1    2  502    0 -0.26166392148E+03  0.78257169886E+02  0.27557551544E+03  0.55697213115E+03  0.39960467681E+03 0.  0.
    9000005    1    3    3    0    0 -0.62301859289E+02  0.12727554750E+03  0.31727171214E+03  0.34748082822E+03  0.99999687468E+00 0.  0.
          4    1    3    3  502    0 -0.19936206219E+03 -0.49018377615E+02 -0.41696196700E+02  0.20949130294E+03  0.00000000000E+00 0.  1.
   -9000007    1    1    2    0  501  0.26166392148E+03 -0.78257169886E+02 -0.43551325457E+03  0.65135549998E+03  0.40000000000E+03 0.  1.
<mgrwt>
<rscale>  2 0.48418394E+03</rscale>
<asrwt>0</asrwt>
<pdfrwt beam="1">  1        2 0.10525118E+00 0.48418394E+03</pdfrwt>
<pdfrwt beam="2">  1       -2 0.80645377E-01 0.48418394E+03</pdfrwt>
<totfact> 0.59350254E+01</totfact>
</mgrwt>
</event>
<event>
 6    1  0.9022793E-004  0.4705662E+03  0.7818608E-02  0.1021761E+00
         -2   -1    0    0    0  501 -0.00000000000E+00  0.00000000000E+00  0.23430983978E+03  0.23430983978E+03  0.00000000000E+00 0.  1.
          2   -1    0    0  502    0  0.00000000000E+00 -0.00000000000E+00 -0.94589486696E+03  0.94589486696E+03  0.00000000000E+00 0. -1.
    9000007    2    1    2  502    0  0.21253231661E+03 -0.13028469371E+03 -0.33752586285E+03  0.57848687798E+03  0.39822013119E+03 0.  0.
    9000005    1    3    3    0    0  0.16361541846E+03  0.12041899379E+03 -0.21289520455E+03  0.29427216541E+03  0.99999687468E+00 0.  0.
          4    1    3    3  502    0  0.48916898151E+02 -0.25070368750E+03 -0.12463065830E+03  0.28421471257E+03  0.00000000000E+00 0.  1.
   -9000007    1    1    2    0  501 -0.21253231661E+03  0.13028469371E+03 -0.37405916434E+03  0.60171782876E+03  0.40000000000E+03 0. -1.
<mgrwt>
<rscale>  2 0.47056624E+03</rscale>
<asrwt>0</asrwt>
<pdfrwt beam="1">  1        2 0.14552229E+00 0.47056624E+03</pdfrwt>
<pdfrwt beam="2">  1       -2 0.36047667E-01 0.47056624E+03</pdfrwt>
<totfact> 0.20368591E+02</totfact>
</mgrwt>
</event>
<event>
 6    1  0.9022793E-004  0.5451537E+03  0.7818608E-02  0.1002622E+00
         -2   -1    0    0    0  501 -0.00000000000E+00  0.00000000000E+00  0.10483031631E+04  0.10483031631E+04  0.00000000000E+00 0.  1.
          2   -1    0    0  502    0  0.00000000000E+00 -0.00000000000E+00 -0.86716927607E+03  0.86716927607E+03  0.00000000000E+00 0. -1.
    9000007    2    1    2  502    0  0.27002606874E+03  0.24892010513E+03 -0.69505051283E+03  0.88465994454E+03  0.40577420514E+03 0.  0.
    9000005    1    3    3    0    0  0.32280054546E+03  0.23407538345E+03 -0.33594502634E+03  0.52139384154E+03  0.99999687468E+00 0.  0.
          4    1    3    3  502    0 -0.52774476726E+02  0.14844721679E+02 -0.35910548650E+03  0.36326610300E+03  0.00000000000E+00 0.  1.
   -9000007    1    1    2    0  501 -0.27002606874E+03 -0.24892010513E+03  0.87618439989E+03  0.10308124947E+04  0.40000000000E+03 0.  1.
<mgrwt>
<rscale>  2 0.54515369E+03</rscale>
<asrwt>0</asrwt>
<pdfrwt beam="1">  1        2 0.13341066E+00 0.54515369E+03</pdfrwt>
<pdfrwt beam="2">  1       -2 0.16127741E+00 0.54515369E+03</pdfrwt>
<totfact> 0.79764079E+00</totfact>
</mgrwt>
</event>
<event>
 6    1  0.9022793E-004  0.9390012E+03  0.7818608E-02  0.9378100E-01
         -2   -1    0    0    0  501 -0.00000000000E+00  0.00000000000E+00  0.27184657306E+03  0.27184657306E+03  0.00000000000E+00 0.  1.
          2   -1    0    0  502    0  0.00000000000E+00 -0.00000000000E+00 -0.32660804341E+04  0.32660804341E+04  0.00000000000E+00 0. -1.
    9000007    2    1    2  502    0 -0.81805167256E+03 -0.22871840576E+03 -0.13500684211E+04  0.16445700302E+04  0.40050617302E+03 0.  0.
    9000005    1    3    3    0    0 -0.30721822375E+03  0.47326739860E+02 -0.24331494382E+03  0.39474804520E+03  0.99999687468E+00 0.  0.
          4    1    3    3  502    0 -0.51083344881E+03 -0.27604514562E+03 -0.11067534772E+04  0.12498219850E+04  0.00000000000E+00 0.  1.
   -9000007    1    1    2    0  501  0.81805167256E+03  0.22871840576E+03 -0.16441654400E+04  0.18933569769E+04  0.40000000000E+03 0.  1.
<mgrwt>
<rscale>  2 0.93900118E+03</rscale>
<asrwt>0</asrwt>
<pdfrwt beam="1">  1        2 0.50247394E+00 0.93900118E+03</pdfrwt>
<pdfrwt beam="2">  1       -2 0.41822548E-01 0.93900118E+03</pdfrwt>
<totfact> 0.66074542E+00</totfact>
</mgrwt>
</event>
<event>
 6    1  0.9022793E-004  0.4081837E+03  0.7818608E-02  0.1040982E+00
          2   -1    0    0  502    0  0.00000000000E+00  0.00000000000E+00  0.74265798541E+03  0.74265798541E+03  0.00000000000E+00 0.  1.
         -2   -1    0    0    0  501 -0.00000000000E+00 -0.00000000000E+00 -0.22514193241E+03  0.22514193241E+03  0.00000000000E+00 0. -1.
    9000007    2    1    2  502    0 -0.26077946003E+02  0.78257693125E+02  0.28734253110E+03  0.49898846746E+03  0.39952401014E+03 0.  0.
    9000005    1    3    3    0    0  0.69998283197E+02  0.40134238863E+02 -0.82244139769E+02  0.11521985636E+03  0.99999687468E+00 0.  0.
          4    1    3    3  502    0 -0.96076229200E+02  0.38123454262E+02  0.36958667087E+03  0.38376861110E+03  0.00000000000E+00 0.  1.
   -9000007    1    1    2    0  501  0.26077946003E+02 -0.78257693125E+02  0.23017352190E+03  0.46881145036E+03  0.40000000000E+03 0. -1.
<mgrwt>
<rscale>  2 0.40818370E+03</rscale>
<asrwt>0</asrwt>
<pdfrwt beam="1">  1        2 0.11425507E+00 0.40818370E+03</pdfrwt>
<pdfrwt beam="2">  1       -2 0.34637221E-01 0.40818370E+03</pdfrwt>
<totfact> 0.30443699E+02</totfact>
</mgrwt>
</event>
<event>
 6    1  0.9022793E-004  0.5422765E+03  0.7818608E-02  0.1003298E+00
         -2   -1    0    0    0  501 -0.00000000000E+00  0.00000000000E+00  0.21809642023E+03  0.21809642023E+03  0.00000000000E+00 0. -1.
          2   -1    0    0  502    0  0.00000000000E+00 -0.00000000000E+00 -0.15558507800E+04  0.15558507800E+04  0.00000000000E+00 0.  1.
    9000007    2    1    2  502    0 -0.35708969854E+03  0.79961515136E+02 -0.99297423068E+03  0.11314674464E+04  0.40039213620E+03 0.  0.
    9000005    1    3    3    0    0 -0.36337715656E+03  0.31482289465E+02 -0.41940935816E+03  0.55582308531E+03  0.99999687468E+00 0.  0.
          4    1    3    3  502    0  0.62874580176E+01  0.48479225671E+02 -0.57356487251E+03  0.57564436107E+03  0.00000000000E+00 0.  1.
   -9000007    1    1    2    0  501  0.35708969854E+03 -0.79961515136E+02 -0.34478012911E+03  0.64247975387E+03  0.40000000000E+03 0. -1.
<mgrwt>
<rscale>  2 0.54227649E+03</rscale>
<asrwt>0</asrwt>
<pdfrwt beam="1">  1        2 0.23936166E+00 0.54227649E+03</pdfrwt>
<pdfrwt beam="2">  1       -2 0.33553296E-01 0.54227649E+03</pdfrwt>
<totfact> 0.10215080E+02</totfact>
</mgrwt>
</event>
<event>
 6    1  0.9022793E-004  0.9104817E+03  0.7818608E-02  0.9412573E-01
         -2   -1    0    0    0  501 -0.00000000000E+00  0.00000000000E+00  0.14807203946E+04  0.14807203946E+04  0.00000000000E+00 0. -1.
          2   -1    0    0  502    0  0.00000000000E+00 -0.00000000000E+00 -0.60624922049E+03  0.60624922049E+03  0.00000000000E+00 0.  1.
    9000007    2    1    2  502    0  0.10060812317E+03 -0.81162145095E+03  0.72595475174E+03  0.11645225967E+04  0.40031387998E+03 0.  0.
    9000005    1    3    3    0    0  0.11377309762E+03 -0.84301429894E+03  0.74020588533E+03  0.11276183657E+04  0.99999687468E+00 0.  0.
          4    1    3    3  502    0 -0.13164974443E+02  0.31392847985E+02 -0.14251133590E+02  0.36904230994E+02  0.00000000000E+00 0.  1.
   -9000007    1    1    2    0  501 -0.10060812317E+03  0.81162145095E+03  0.14851642239E+03  0.92244701843E+03  0.40000000000E+03 0.  1.
<mgrwt>
<rscale>  2 0.91048172E+03</rscale>
<asrwt>0</asrwt>
<pdfrwt beam="1">  1        2 0.93269111E-01 0.91048172E+03</pdfrwt>
<pdfrwt beam="2">  1       -2 0.22780314E+00 0.91048172E+03</pdfrwt>
<totfact> 0.43470634E+00</totfact>
</mgrwt>
</event>
<event>
 6    1  0.9022793E-004  0.4207904E+03  0.7818608E-02  0.1036809E+00
         -1   -1    0    0    0  501 -0.00000000000E+00  0.00000000000E+00  0.16796460363E+03  0.16796460363E+03  0.00000000000E+00 0. -1.
          1   -1    0    0  502    0  0.00000000000E+00 -0.00000000000E+00 -0.11773750500E+04  0.11773750500E+04  0.00000000000E+00 0.  1.
    9000007    2    1    2  502    0 -0.48532747257E+02 -0.12212222832E+03 -0.28685164068E+03  0.50906189243E+03  0.39948827312E+03 0.  0.
    9000005    1    3    3    0    0 -0.86469601914E+02 -0.10282183649E+02  0.83310263934E+02  0.12051686781E+03  0.99999687468E+00 0.  0.
          4    1    3    3  502    0  0.37936854658E+02 -0.11184004467E+03 -0.37016190461E+03  0.38854502462E+03  0.00000000000E+00 0.  1.
   -9000007    1    1    2    0  501  0.48532747257E+02  0.12212222832E+03 -0.72255880571E+03  0.83627776122E+03  0.40000000000E+03 0.  1.
<mgrwt>
<rscale>  2 0.42079043E+03</rscale>
<asrwt>0</asrwt>
<pdfrwt beam="1">  1        1 0.18113462E+00 0.42079043E+03</pdfrwt>
<pdfrwt beam="2">  1       -1 0.25840708E-01 0.42079043E+03</pdfrwt>
<totfact> 0.15423967E+02</totfact>
</mgrwt>
</event>
<event>
 6    1  0.9022793E-004  0.4085500E+03  0.7818608E-02  0.1040859E+00
          2   -1    0    0  502    0  0.00000000000E+00  0.00000000000E+00  0.76377107926E+03  0.76377107926E+03  0.00000000000E+00 0.  1.
         -2   -1    0    0    0  501 -0.00000000000E+00 -0.00000000000E+00 -0.41101706391E+03  0.41101706391E+03  0.00000000000E+00 0. -1.
    9000007    2    1    2  502    0  0.57067136975E+02  0.60462595519E+02  0.57834495212E+03  0.70809375245E+03  0.40000186879E+03 0.  0.
    9000005    1    3    3    0    0 -0.64777645171E+02  0.11015208829E+03  0.13936506612E+02  0.12854902597E+03  0.99999687468E+00 0.  0.
          4    1    3    3  502    0  0.12184478215E+03 -0.49689492769E+02  0.56440844551E+03  0.57954472648E+03  0.00000000000E+00 0.  1.
   -9000007    1    1    2    0  501 -0.57067136975E+02 -0.60462595519E+02 -0.22559093677E+03  0.46669439072E+03  0.40000000000E+03 0. -1.
<mgrwt>
<rscale>  2 0.40855003E+03</rscale>
<asrwt>0</asrwt>
<pdfrwt beam="1">  1        2 0.11750324E+00 0.40855003E+03</pdfrwt>
<pdfrwt beam="2">  1       -2 0.63233394E-01 0.40855003E+03</pdfrwt>
<totfact> 0.88522069E+01</totfact>
</mgrwt>
</event>
<event>
 6    1  0.9022793E-004  0.4069885E+03  0.7818608E-02  0.1041386E+00
         -2   -1    0    0    0  501 -0.00000000000E+00  0.00000000000E+00  0.11688348957E+03  0.11688348957E+03  0.00000000000E+00 0.  1.
          2   -1    0    0  502    0  0.00000000000E+00 -0.00000000000E+00 -0.14962317784E+04  0.14962317784E+04  0.00000000000E+00 0. -1.
    9000007    2    1    2  502    0  0.40724769161E+02 -0.62005632529E+02 -0.50449755915E+03  0.64830077570E+03  0.40034098377E+03 0.  0.
    9000005    1    3    3    0    0 -0.14582697566E+03  0.85615355920E+02 -0.21852604189E+03  0.27631526736E+03  0.99999687468E+00 0.  0.
          4    1    3    3  502    0  0.18655174482E+03 -0.14762098845E+03 -0.28597151726E+03  0.37198550834E+03  0.00000000000E+00 0.  1.
   -9000007    1    1    2    0  501 -0.40724769161E+02  0.62005632529E+02 -0.87485072971E+03  0.96481449231E+03  0.40000000000E+03 0. -1.
<mgrwt>
<rscale>  2 0.40698845E+03</rscale>
<asrwt>0</asrwt>
<pdfrwt beam="1">  1        2 0.23018949E+00 0.40698845E+03</pdfrwt>
<pdfrwt beam="2">  1       -2 0.17982076E-01 0.40698845E+03</pdfrwt>
<totfact> 0.34155897E+02</totfact>
</mgrwt>
</event>
<event>
 6    1  0.9022793E-004  0.4124113E+03  0.7818608E-02  0.1039565E+00
         -1   -1    0    0    0  501 -0.00000000000E+00  0.00000000000E+00  0.20386253344E+03  0.20386253344E+03  0.00000000000E+00 0.  1.
          1   -1    0    0  502    0  0.00000000000E+00 -0.00000000000E+00 -0.84370168026E+03  0.84370168026E+03  0.00000000000E+00 0. -1.
    9000007    2    1    2  502    0 -0.97617606810E+02  0.75158612787E+01 -0.37566068292E+03  0.55830360204E+03  0.40124341493E+03 0.  0.
    9000005    1    3    3    0    0  0.11224088248E+03 -0.11673714740E+03 -0.10040108330E+03  0.19054383959E+03  0.99999687468E+00 0.  0.
          4    1    3    3  502    0 -0.20985848929E+03  0.12425300868E+03 -0.27525959962E+03  0.36775976245E+03  0.00000000000E+00 0.  1.
   -9000007    1    1    2    0  501  0.97617606810E+02 -0.75158612787E+01 -0.26417846390E+03  0.48926061165E+03  0.40000000000E+03 0.  1.
<mgrwt>
<rscale>  2 0.41241132E+03</rscale>
<asrwt>0</asrwt>
<pdfrwt beam="1">  1        1 0.12980026E+00 0.41241132E+03</pdfrwt>
<pdfrwt beam="2">  1       -1 0.31363466E-01 0.41241132E+03</pdfrwt>
<totfact> 0.19905166E+02</totfact>
</mgrwt>
</event>
<event>
 6    1  0.9022793E-004  0.4448961E+03  0.7818608E-02  0.1029255E+00
         -1   -1    0    0    0  501 -0.00000000000E+00  0.00000000000E+00  0.18017061346E+03  0.18017061346E+03  0.00000000000E+00 0. -1.
          1   -1    0    0  502    0  0.00000000000E+00 -0.00000000000E+00 -0.11154306419E+04  0.11154306419E+04  0.00000000000E+00 0.  1.
    9000007    2    1    2  502    0 -0.15530160282E+03  0.11630812189E+03 -0.54757342131E+03  0.70573086926E+03  0.40071591064E+03 0.  0.
    9000005    1    3    3    0    0 -0.14908414870E+02 -0.13798271041E+03 -0.27187497661E+03  0.30525152269E+03  0.99999687468E+00 0.  0.
          4    1    3    3  502    0 -0.14039318795E+03  0.25429083230E+03 -0.27569844470E+03  0.40047934657E+03  0.00000000000E+00 0.  1.
   -9000007    1    1    2    0  501  0.15530160282E+03 -0.11630812189E+03 -0.38768660716E+03  0.58987038613E+03  0.40000000000E+03 0.  1.
<mgrwt>
<rscale>  2 0.44489615E+03</rscale>
<asrwt>0</asrwt>
<pdfrwt beam="1">  1        1 0.17160472E+00 0.44489615E+03</pdfrwt>
<pdfrwt beam="2">  1       -1 0.27718555E-01 0.44489615E+03</pdfrwt>
<totfact> 0.15130864E+02</totfact>
</mgrwt>
</event>
<event>
 6    1  0.9022793E-004  0.5589153E+03  0.7818608E-02  0.9994512E-01
          2   -1    0    0  502    0  0.00000000000E+00  0.00000000000E+00  0.67765316836E+03  0.67765316836E+03  0.00000000000E+00 0.  1.
         -2   -1    0    0    0  501 -0.00000000000E+00 -0.00000000000E+00 -0.56325268403E+03  0.56325268403E+03  0.00000000000E+00 0. -1.
    9000007    2    1    2  502    0 -0.25301605631E+03  0.29726223937E+03 -0.20718111325E+03  0.59608286303E+03  0.40001100261E+03 0.  0.
    9000005    1    3    3    0    0 -0.25124740408E+03 -0.91388092824E+01 -0.74840056428E+02  0.26231814640E+03  0.99999687468E+00 0.  0.
          4    1    3    3  502    0 -0.17686522293E+01  0.30640104865E+03 -0.13234105682E+03  0.33376471663E+03  0.00000000000E+00 0.  1.
   -9000007    1    1    2    0  501  0.25301605631E+03 -0.29726223937E+03  0.32158159758E+03  0.64482298936E+03  0.40000000000E+03 0.  1.
<mgrwt>
<rscale>  2 0.55891535E+03</rscale>
<asrwt>0</asrwt>
<pdfrwt beam="1">  1        2 0.10425433E+00 0.55891535E+03</pdfrwt>
<pdfrwt beam="2">  1       -2 0.86654259E-01 0.55891535E+03</pdfrwt>
<totfact> 0.50665200E+01</totfact>
</mgrwt>
</event>
<event>
 6    1  0.9022793E-004  0.4950597E+03  0.7818608E-02  0.1015077E+00
         -1   -1    0    0    0  501 -0.00000000000E+00  0.00000000000E+00  0.31862064277E+03  0.31862064277E+03  0.00000000000E+00 0. -1.
          1   -1    0    0  502    0  0.00000000000E+00 -0.00000000000E+00 -0.76937229297E+03  0.76937229297E+03  0.00000000000E+00 0.  1.
    9000007    2    1    2  502    0 -0.27417684264E+03 -0.99615128565E+02 -0.21731079513E+03  0.54064410027E+03  0.39996993212E+03 0.  0.
    9000005    1    3    3    0    0 -0.12506151030E+03  0.13703355735E+03  0.14752376115E+01  0.18553100419E+03  0.99999687468E+00 0.  0.
          4    1    3    3  502    0 -0.14911533234E+03 -0.23664868591E+03 -0.21878603274E+03  0.35511309608E+03  0.00000000000E+00 0.  1.
   -9000007    1    1    2    0  501  0.27417684264E+03  0.99615128565E+02 -0.23344085508E+03  0.54734883547E+03  0.40000000000E+03 0.  1.
<mgrwt>
<rscale>  2 0.49505968E+03</rscale>
<asrwt>0</asrwt>
<pdfrwt beam="1">  1        1 0.11836497E+00 0.49505968E+03</pdfrwt>
<pdfrwt beam="2">  1       -1 0.49018561E-01 0.49505968E+03</pdfrwt>
<totfact> 0.10222684E+02</totfact>
</mgrwt>
</event>
<event>
 6    1  0.9022793E-004  0.4305309E+03  0.7818608E-02  0.1033692E+00
         -2   -1    0    0    0  501 -0.00000000000E+00  0.00000000000E+00  0.79540860058E+02  0.79540860058E+02  0.00000000000E+00 0. -1.
          2   -1    0    0  502    0  0.00000000000E+00 -0.00000000000E+00 -0.24584480459E+04  0.24584480459E+04  0.00000000000E+00 0.  1.
    9000007    2    1    2  502    0  0.19935238443E+02  0.15860966829E+03 -0.89916918515E+03  0.99682733387E+03  0.39950603175E+03 0.  0.
    9000005    1    3    3    0    0 -0.51834675754E+02  0.11237979312E+03 -0.35227576087E+02  0.12867802308E+03  0.99999687468E+00 0.  0.
          4    1    3    3  502    0  0.71769914196E+02  0.46229875169E+02 -0.86394160907E+03  0.86814931079E+03  0.00000000000E+00 0.  1.
   -9000007    1    1    2    0  501 -0.19935238443E+02 -0.15860966829E+03 -0.14797380006E+04  0.15411615720E+04  0.40000000000E+03 0. -1.
<mgrwt>
<rscale>  2 0.43053092E+03</rscale>
<asrwt>0</asrwt>
<pdfrwt beam="1">  1        2 0.37822271E+00 0.43053092E+03</pdfrwt>
<pdfrwt beam="2">  1       -2 0.12237058E-01 0.43053092E+03</pdfrwt>
<totfact> 0.19602008E+02</totfact>
</mgrwt>
</event>
<event>
 6    1  0.9022793E-004  0.4106389E+03  0.7818608E-02  0.1040157E+00
         -2   -1    0    0    0  501 -0.00000000000E+00  0.00000000000E+00  0.34050950470E+03  0.34050950470E+03  0.00000000000E+00 0.  1.
          2   -1    0    0  502    0  0.00000000000E+00 -0.00000000000E+00 -0.55185591362E+03  0.55185591362E+03  0.00000000000E+00 0. -1.
    9000007    2    1    2  502    0 -0.66655587161E+02  0.64530888077E+02 -0.24862575086E+03  0.48005855183E+03  0.40004280568E+03 0.  0.
    9000005    1    3    3    0    0 -0.17252829210E+03  0.95051525585E+01 -0.30309956901E+03  0.34889354856E+03  0.99999687468E+00 0.  0.
          4    1    3    3  502    0  0.10587270494E+03  0.55025735519E+02  0.54473818146E+02  0.13116500327E+03  0.00000000000E+00 0.  1.
   -9000007    1    1    2    0  501  0.66655587161E+02 -0.64530888077E+02  0.37279341944E+02  0.41230686649E+03  0.40000000000E+03 0.  1.
<mgrwt>
<rscale>  2 0.41063892E+03</rscale>
<asrwt>0</asrwt>
<pdfrwt beam="1">  1        2 0.84900910E-01 0.41063892E+03</pdfrwt>
<pdfrwt beam="2">  1       -2 0.52386077E-01 0.41063892E+03</pdfrwt>
<totfact> 0.19397665E+02</totfact>
</mgrwt>
</event>
<event>
 6    1  0.9022793E-004  0.4391114E+03  0.7818608E-02  0.1031020E+00
         -1   -1    0    0    0  501 -0.00000000000E+00  0.00000000000E+00  0.18392764265E+03  0.18392764265E+03  0.00000000000E+00 0. -1.
          1   -1    0    0  502    0  0.00000000000E+00 -0.00000000000E+00 -0.10562753519E+04  0.10562753519E+04  0.00000000000E+00 0.  1.
    9000007    2    1    2  502    0 -0.12829233583E+03 -0.12664814154E+03 -0.38279067811E+03  0.58281059884E+03  0.40080021917E+03 0.  0.
    9000005    1    3    3    0    0 -0.73769595235E+02  0.13833338596E+03 -0.77453294334E+02  0.17486592478E+03  0.99999687468E+00 0.  0.
          4    1    3    3  502    0 -0.54522740596E+02 -0.26498152751E+03 -0.30533738377E+03  0.40794467406E+03  0.00000000000E+00 0.  1.
   -9000007    1    1    2    0  501  0.12829233583E+03  0.12664814154E+03 -0.48955703115E+03  0.65739239571E+03  0.40000000000E+03 0. -1.
<mgrwt>
<rscale>  2 0.43911139E+03</rscale>
<asrwt>0</asrwt>
<pdfrwt beam="1">  1        1 0.16250390E+00 0.43911139E+03</pdfrwt>
<pdfrwt beam="2">  1       -1 0.28296560E-01 0.43911139E+03</pdfrwt>
<totfact> 0.16161799E+02</totfact>
</mgrwt>
</event>
<event>
 6    1  0.9022793E-004  0.4629934E+03  0.7818608E-02  0.1023917E+00
          3   -1    0    0  502    0  0.00000000000E+00  0.00000000000E+00  0.43151421075E+03  0.43151421075E+03  0.00000000000E+00 0.  1.
         -3   -1    0    0    0  501 -0.00000000000E+00 -0.00000000000E+00 -0.62560951346E+03  0.62560951346E+03  0.00000000000E+00 0. -1.
    9000007    2    1    2  502    0 -0.22977434797E+03  0.38192740018E+02  0.14279982217E+03  0.48462633422E+03  0.40026985677E+03 0.  0.
    9000005    1    3    3    0    0  0.73507889926E+02 -0.85398793114E+02  0.10663089209E+03  0.15513707129E+03  0.99999687468E+00 0.  0.
          4    1    3    3  502    0 -0.30328223789E+03  0.12359153313E+03  0.36168930080E+02  0.32948926293E+03  0.00000000000E+00 0.  1.
   -9000007    1    1    2    0  501  0.22977434797E+03 -0.38192740018E+02 -0.33689512488E+03  0.57249738999E+03  0.40000000000E+03 0. -1.
<mgrwt>
<rscale>  2 0.46299340E+03</rscale>
<asrwt>0</asrwt>
<pdfrwt beam="1">  1        3 0.66386802E-01 0.46299340E+03</pdfrwt>
<pdfrwt beam="2">  1       -3 0.96247617E-01 0.46299340E+03</pdfrwt>
<totfact> 0.54585827E+00</totfact>
</mgrwt>
</event>
<event>
 6    1  0.9022793E-004  0.5115346E+03  0.7818608E-02  0.1010811E+00
          1   -1    0    0  502    0  0.00000000000E+00  0.00000000000E+00  0.55397322173E+03  0.55397322173E+03  0.00000000000E+00 0.  1.
         -1   -1    0    0    0  501 -0.00000000000E+00 -0.00000000000E+00 -0.47248381460E+03  0.47248381460E+03  0.00000000000E+00 0. -1.
    9000007    2    1    2  502    0 -0.31401667598E+03  0.54047881161E+02  0.32026901224E+02  0.51267285427E+03  0.40034995548E+03 0.  0.
    9000005    1    3    3    0    0 -0.17925433620E+03  0.20047489020E+03 -0.84712929187E+02  0.28195669705E+03  0.99999687468E+00 0.  0.
          4    1    3    3  502    0 -0.13476233978E+03 -0.14642700904E+03  0.11673983041E+03  0.23071615722E+03  0.00000000000E+00 0.  1.
   -9000007    1    1    2    0  501  0.31401667598E+03 -0.54047881161E+02  0.49462505908E+02  0.51378418207E+03  0.40000000000E+03 0.  1.
<mgrwt>
<rscale>  2 0.51153461E+03</rscale>
<asrwt>0</asrwt>
<pdfrwt beam="1">  1        1 0.85226650E-01 0.51153461E+03</pdfrwt>
<pdfrwt beam="2">  1       -1 0.72689817E-01 0.51153461E+03</pdfrwt>
<totfact> 0.76348288E+01</totfact>
</mgrwt>
</event>
<event>
 6    1  0.9022793E-004  0.5977136E+03  0.7818608E-02  0.9910161E-01
         -2   -1    0    0    0  501 -0.00000000000E+00  0.00000000000E+00  0.19804737766E+03  0.19804737766E+03  0.00000000000E+00 0.  1.
          2   -1    0    0  502    0  0.00000000000E+00 -0.00000000000E+00 -0.24695980905E+04  0.24695980905E+04  0.00000000000E+00 0. -1.
    9000007    2    1    2  502    0 -0.40325197258E+03 -0.18668211869E+03 -0.18280381297E+04  0.19232223504E+04  0.39949773309E+03 0.  0.
    9000005    1    3    3    0    0 -0.15043095778E+03 -0.10857032757E+03 -0.14497444242E+04  0.14615665858E+04  0.99999687468E+00 0.  0.
          4    1    3    3  502    0 -0.25282101480E+03 -0.78111791125E+02 -0.37829370542E+03  0.46165576461E+03  0.00000000000E+00 0.  1.
   -9000007    1    1    2    0  501  0.40325197258E+03  0.18668211869E+03 -0.44351258319E+03  0.74442311777E+03  0.40000000000E+03 0.  1.
<mgrwt>
<rscale>  2 0.59771359E+03</rscale>
<asrwt>0</asrwt>
<pdfrwt beam="1">  1        2 0.37993815E+00 0.59771359E+03</pdfrwt>
<pdfrwt beam="2">  1       -2 0.30468829E-01 0.59771359E+03</pdfrwt>
<totfact> 0.38498344E+01</totfact>
</mgrwt>
</event>
<event>
 6    1  0.9022793E-004  0.8271489E+03  0.7818608E-02  0.9521531E-01
         -2   -1    0    0    0  501 -0.00000000000E+00  0.00000000000E+00  0.77480652963E+03  0.77480652963E+03  0.00000000000E+00 0. -1.
          2   -1    0    0  502    0  0.00000000000E+00 -0.00000000000E+00 -0.10274739675E+04  0.10274739675E+04  0.00000000000E+00 0.  1.
    9000007    2    1    2  502    0  0.55726090852E+03 -0.46235722830E+03 -0.46420126447E+03  0.94843010823E+03  0.39965351187E+03 0.  0.
    9000005    1    3    3    0    0  0.20524248713E+03  0.40306338322E+01 -0.25595269945E+03  0.32810594155E+03  0.99999687468E+00 0.  0.
          4    1    3    3  502    0  0.35201842139E+03 -0.46638786213E+03 -0.20824856502E+03  0.62032416668E+03  0.00000000000E+00 0.  1.
   -9000007    1    1    2    0  501 -0.55726090852E+03  0.46235722830E+03  0.21153382665E+03  0.85385038885E+03  0.40000000000E+03 0. -1.
<mgrwt>
<rscale>  2 0.82714895E+03</rscale>
<asrwt>0</asrwt>
<pdfrwt beam="1">  1        2 0.15807292E+00 0.82714895E+03</pdfrwt>
<pdfrwt beam="2">  1       -2 0.11920101E+00 0.82714895E+03</pdfrwt>
<totfact> 0.13174585E+01</totfact>
</mgrwt>
</event>
<event>
 6    1  0.9022793E-004  0.4434171E+03  0.7818608E-02  0.1029704E+00
          2   -1    0    0  502    0  0.00000000000E+00  0.00000000000E+00  0.14182971327E+04  0.14182971327E+04  0.00000000000E+00 0. -1.
         -2   -1    0    0    0  501 -0.00000000000E+00 -0.00000000000E+00 -0.14565998570E+03  0.14565998570E+03  0.00000000000E+00 0.  1.
    9000007    2    1    2  502    0  0.17114495174E+03 -0.84487364037E+02  0.80840095515E+03  0.92212851898E+03  0.40047495807E+03 0.  0.
    9000005    1    3    3    0    0  0.25757011759E+03  0.34445010080E+02  0.32080555840E+03  0.41285109966E+03  0.99999687468E+00 0.  0.
          4    1    3    3  502    0 -0.86425165846E+02 -0.11893237412E+03  0.48759539674E+03  0.50927741932E+03  0.00000000000E+00 0.  1.
   -9000007    1    1    2    0  501 -0.17114495174E+03  0.84487364037E+02  0.46423619181E+03  0.64182859937E+03  0.40000000000E+03 0. -1.
<mgrwt>
<rscale>  2 0.44341709E+03</rscale>
<asrwt>0</asrwt>
<pdfrwt beam="1">  1        2 0.21819955E+00 0.44341709E+03</pdfrwt>
<pdfrwt beam="2">  1       -2 0.22409230E-01 0.44341709E+03</pdfrwt>
<totfact> 0.25631152E+02</totfact>
</mgrwt>
</event>
<event>
 6    1  0.9022793E-004  0.4376539E+03  0.7818608E-02  0.1031469E+00
          2   -1    0    0  502    0  0.00000000000E+00  0.00000000000E+00  0.31585889313E+03  0.31585889313E+03  0.00000000000E+00 0.  1.
         -2   -1    0    0    0  501 -0.00000000000E+00 -0.00000000000E+00 -0.72485986500E+03  0.72485986500E+03  0.00000000000E+00 0. -1.
    9000007    2    1    2  502    0 -0.55318900128E+02 -0.16584133602E+03 -0.41528197647E+03  0.60413774564E+03  0.40244225212E+03 0.  0.
    9000005    1    3    3    0    0  0.10646289281E+03 -0.23071017855E+03 -0.30873505615E+03  0.39984980795E+03  0.99999687468E+00 0.  0.
          4    1    3    3  502    0 -0.16178179294E+03  0.64868842531E+02 -0.10654692032E+03  0.20428793769E+03  0.00000000000E+00 0.  1.
   -9000007    1    1    2    0  501  0.55318900128E+02  0.16584133602E+03  0.62810046015E+01  0.43658101248E+03  0.40000000000E+03 0.  1.
<mgrwt>
<rscale>  2 0.43765387E+03</rscale>
<asrwt>0</asrwt>
<pdfrwt beam="1">  1        2 0.48593676E-01 0.43765387E+03</pdfrwt>
<pdfrwt beam="2">  1       -2 0.11151690E+00 0.43765387E+03</pdfrwt>
<totfact> 0.67960912E+01</totfact>
</mgrwt>
</event>
<event>
 6    1  0.9022793E-004  0.4572764E+03  0.7818608E-02  0.1025574E+00
         -1   -1    0    0    0  501 -0.00000000000E+00  0.00000000000E+00  0.30319045923E+03  0.30319045923E+03  0.00000000000E+00 0. -1.
          1   -1    0    0  502    0  0.00000000000E+00 -0.00000000000E+00 -0.76753224863E+03  0.76753224863E+03  0.00000000000E+00 0.  1.
    9000007    2    1    2  502    0 -0.63961879578E+02 -0.21301961424E+03 -0.61475053893E+02  0.46099319024E+03  0.39908277475E+03 0.  0.
    9000005    1    3    3    0    0 -0.15089418353E+03  0.63051191706E+02  0.65523356993E+01  0.16367174617E+03  0.99999687468E+00 0.  0.
          4    1    3    3  502    0  0.86932303947E+02 -0.27607080595E+03 -0.68027389592E+02  0.29732144407E+03  0.00000000000E+00 0.  1.
   -9000007    1    1    2    0  501  0.63961879578E+02  0.21301961424E+03 -0.40286673551E+03  0.60972951763E+03  0.40000000000E+03 0.  1.
<mgrwt>
<rscale>  2 0.45727638E+03</rscale>
<asrwt>0</asrwt>
<pdfrwt beam="1">  1        1 0.11808188E+00 0.45727638E+03</pdfrwt>
<pdfrwt beam="2">  1       -1 0.46644686E-01 0.45727638E+03</pdfrwt>
<totfact> 0.11302700E+02</totfact>
</mgrwt>
</event>
<event>
 6    1  0.9022793E-004  0.5351312E+03  0.7818608E-02  0.1004995E+00
         -1   -1    0    0    0  501 -0.00000000000E+00  0.00000000000E+00  0.24602845456E+03  0.24602845456E+03  0.00000000000E+00 0. -1.
          1   -1    0    0  502    0  0.00000000000E+00 -0.00000000000E+00 -0.19765580856E+04  0.19765580856E+04  0.00000000000E+00 0.  1.
    9000007    2    1    2  502    0 -0.20095934327E+03  0.29516999487E+03 -0.15170376500E+03  0.55519303568E+03  0.39713384524E+03 0.  0.
    9000005    1    3    3    0    0  0.95515230011E+02 -0.14503254382E+02  0.97060192448E+01  0.97101546615E+02  0.99999687468E+00 0.  0.
          4    1    3    3  502    0 -0.29647457328E+03  0.30967324925E+03 -0.16140978425E+03  0.45809148907E+03  0.00000000000E+00 0.  1.
   -9000007    1    1    2    0  501  0.20095934327E+03 -0.29516999487E+03 -0.15788258660E+04  0.16673935045E+04  0.40000000000E+03 0.  1.
<mgrwt>
<rscale>  2 0.53513115E+03</rscale>
<asrwt>0</asrwt>
<pdfrwt beam="1">  1        1 0.30408586E+00 0.53513115E+03</pdfrwt>
<pdfrwt beam="2">  1       -1 0.37850532E-01 0.53513115E+03</pdfrwt>
<totfact> 0.22431439E+01</totfact>
</mgrwt>
</event>
<event>
 6    1  0.9022793E-004  0.4561373E+03  0.7818608E-02  0.1025907E+00
         -2   -1    0    0    0  501 -0.00000000000E+00  0.00000000000E+00  0.31416891198E+03  0.31416891198E+03  0.00000000000E+00 0.  1.
          2   -1    0    0  502    0  0.00000000000E+00 -0.00000000000E+00 -0.67368690865E+03  0.67368690865E+03  0.00000000000E+00 0. -1.
    9000007    2    1    2  502    0 -0.89376881363E+02  0.20014339269E+03 -0.11543559185E+03  0.47053403982E+03  0.40003912584E+03 0.  0.
    9000005    1    3    3    0    0 -0.18719066753E+03  0.19397268442E+03 -0.20429890340E+03  0.33823777175E+03  0.99999687468E+00 0.  0.
          4    1    3    3  502    0  0.97813786165E+02  0.61707082669E+01  0.88863311557E+02  0.13229626807E+03  0.00000000000E+00 0.  1.
   -9000007    1    1    2    0  501  0.89376881363E+02 -0.20014339269E+03 -0.24408240483E+03  0.51732178081E+03  0.40000000000E+03 0.  1.
<mgrwt>
<rscale>  2 0.45613732E+03</rscale>
<asrwt>0</asrwt>
<pdfrwt beam="1">  1        2 0.10364414E+00 0.45613732E+03</pdfrwt>
<pdfrwt beam="2">  1       -2 0.48333679E-01 0.45613732E+03</pdfrwt>
<totfact> 0.17930736E+02</totfact>
</mgrwt>
</event>
<event>
 6    1  0.9022793E-004  0.4346032E+03  0.7818608E-02  0.1032416E+00
         -2   -1    0    0    0  501 -0.00000000000E+00  0.00000000000E+00  0.72632458904E+02  0.72632458904E+02  0.00000000000E+00 0. -1.
          2   -1    0    0  502    0  0.00000000000E+00 -0.00000000000E+00 -0.26479434759E+04  0.26479434759E+04  0.00000000000E+00 0.  1.
    9000007    2    1    2  502    0 -0.13453172407E+03 -0.10443534020E+03 -0.14693360272E+04  0.15322215251E+04  0.39968602180E+03 0.  0.
    9000005    1    3    3    0    0 -0.12884143484E+03 -0.86523090661E+02 -0.16055416875E+03  0.22330472822E+03  0.99999687468E+00 0.  0.
          4    1    3    3  502    0 -0.56902892229E+01 -0.17912249538E+02 -0.13087818585E+04  0.13089167969E+04  0.00000000000E+00 0.  1.
   -9000007    1    1    2    0  501  0.13453172407E+03  0.10443534020E+03 -0.11059749898E+04  0.11883544097E+04  0.40000000000E+03 0. -1.
<mgrwt>
<rscale>  2 0.43460320E+03</rscale>
<asrwt>0</asrwt>
<pdfrwt beam="1">  1        2 0.40737583E+00 0.43460320E+03</pdfrwt>
<pdfrwt beam="2">  1       -2 0.11174227E-01 0.43460320E+03</pdfrwt>
<totfact> 0.17788914E+02</totfact>
</mgrwt>
</event>
<event>
 6    1  0.9022793E-004  0.5649014E+03  0.7818608E-02  0.9981025E-01
          2   -1    0    0  502    0  0.00000000000E+00  0.00000000000E+00  0.55781843715E+03  0.55781843715E+03  0.00000000000E+00 0. -1.
         -2   -1    0    0    0  501 -0.00000000000E+00 -0.00000000000E+00 -0.71544048568E+03  0.71544048568E+03  0.00000000000E+00 0.  1.
    9000007    2    1    2  502    0 -0.19683162747E+03 -0.34734232337E+03  0.20620199240E+03  0.60112998287E+03  0.39931017451E+03 0.  0.
    9000005    1    3    3    0    0 -0.55088860395E+02 -0.28299186662E+03  0.30266169524E+03  0.41800033597E+03  0.99999687468E+00 0.  0.
          4    1    3    3  502    0 -0.14174276708E+03 -0.64350456748E+02 -0.96459702842E+02  0.18312964690E+03  0.00000000000E+00 0.  1.
   -9000007    1    1    2    0  501  0.19683162747E+03  0.34734232337E+03 -0.36382404092E+03  0.67212893996E+03  0.40000000000E+03 0.  1.
<mgrwt>
<rscale>  2 0.56490138E+03</rscale>
<asrwt>0</asrwt>
<pdfrwt beam="1">  1        2 0.85818221E-01 0.56490138E+03</pdfrwt>
<pdfrwt beam="2">  1       -2 0.11006777E+00 0.56490138E+03</pdfrwt>
<totfact> 0.36536743E+01</totfact>
</mgrwt>
</event>
<event>
 6    1  0.9022793E-004  0.4042295E+03  0.7818608E-02  0.1042325E+00
         -2   -1    0    0    0  501 -0.00000000000E+00  0.00000000000E+00  0.32616204421E+03  0.32616204421E+03  0.00000000000E+00 0.  1.
          2   -1    0    0  502    0  0.00000000000E+00 -0.00000000000E+00 -0.51985942515E+03  0.51985942515E+03  0.00000000000E+00 0. -1.
    9000007    2    1    2  502    0 -0.58448360071E+02  0.10126302843E+02 -0.16208266867E+02  0.40440949214E+03  0.39970686336E+03 0.  0.
    9000005    1    3    3    0    0  0.16261748792E+03 -0.33460852822E+02 -0.56771970312E+02  0.17546547426E+03  0.99999687468E+00 0.  0.
          4    1    3    3  502    0 -0.22106584799E+03  0.43587155665E+02  0.40563703445E+02  0.22894401788E+03  0.00000000000E+00 0.  1.
   -9000007    1    1    2    0  501  0.58448360071E+02 -0.10126302843E+02 -0.17748911407E+03  0.44161197721E+03  0.40000000000E+03 0. -1.
<mgrwt>
<rscale>  2 0.40422951E+03</rscale>
<asrwt>0</asrwt>
<pdfrwt beam="1">  1        2 0.79978373E-01 0.40422951E+03</pdfrwt>
<pdfrwt beam="2">  1       -2 0.50178776E-01 0.40422951E+03</pdfrwt>
<totfact> 0.22687423E+02</totfact>
</mgrwt>
</event>
<event>
 6    1  0.9022793E-004  0.4981409E+03  0.7818608E-02  0.1014265E+00
          2   -1    0    0  502    0  0.00000000000E+00  0.00000000000E+00  0.39845213012E+04  0.39845213012E+04  0.00000000000E+00 0.  1.
         -2   -1    0    0    0  501 -0.00000000000E+00 -0.00000000000E+00 -0.62447987235E+02  0.62447987235E+02  0.00000000000E+00 0. -1.
    9000007    2    1    2  502    0  0.29523077293E+03  0.42166986295E+02  0.18520990526E+04  0.19177129144E+04  0.39801087558E+03 0.  0.
    9000005    1    3    3    0    0 -0.31842630937E+02  0.22314184073E+01 -0.43656483705E+01  0.32233387233E+02  0.99999687468E+00 0.  0.
          4    1    3    3  502    0  0.32707340387E+03  0.39935567887E+02  0.18564647010E+04  0.18854795271E+04  0.00000000000E+00 0.  1.
   -9000007    1    1    2    0  501 -0.29523077293E+03 -0.42166986295E+02  0.20699742614E+04  0.21292563741E+04  0.40000000000E+03 0.  1.
<mgrwt>
<rscale>  2 0.49814087E+03</rscale>
<asrwt>0</asrwt>
<pdfrwt beam="1">  1        2 0.61300308E+00 0.49814087E+03</pdfrwt>
<pdfrwt beam="2">  1       -2 0.96073858E-02 0.49814087E+03</pdfrwt>
<totfact> 0.29981589E+01</totfact>
</mgrwt>
</event>
<event>
 6    1  0.9022793E-004  0.4666938E+03  0.7818608E-02  0.1022858E+00
         -1   -1    0    0    0  501 -0.00000000000E+00  0.00000000000E+00  0.40168964980E+03  0.40168964980E+03  0.00000000000E+00 0. -1.
          1   -1    0    0  502    0  0.00000000000E+00 -0.00000000000E+00 -0.54233387050E+03  0.54233387050E+03  0.00000000000E+00 0.  1.
    9000007    2    1    2  502    0  0.48279708942E+02 -0.23604255636E+03 -0.77192735397E+02  0.47277718377E+03  0.39939019566E+03 0.  0.
    9000005    1    3    3    0    0 -0.23557991187E+02 -0.27809982228E+03  0.83910401352E+02  0.29143857937E+03  0.99999687468E+00 0.  0.
          4    1    3    3  502    0  0.71837700130E+02  0.42057265913E+02 -0.16110313675E+03  0.18133860440E+03  0.00000000000E+00 0.  1.
   -9000007    1    1    2    0  501 -0.48279708942E+02  0.23604255636E+03 -0.63451485302E+02  0.47124633653E+03  0.40000000000E+03 0.  1.
<mgrwt>
<rscale>  2 0.46669385E+03</rscale>
<asrwt>0</asrwt>
<pdfrwt beam="1">  1        1 0.83435980E-01 0.46669385E+03</pdfrwt>
<pdfrwt beam="2">  1       -1 0.61798407E-01 0.46669385E+03</pdfrwt>
<totfact> 0.10945654E+02</totfact>
</mgrwt>
</event>
<event>
 6    1  0.9022793E-004  0.6132236E+03  0.7818608E-02  0.9878345E-01
          1   -1    0    0  502    0  0.00000000000E+00  0.00000000000E+00  0.10291433309E+04  0.10291433309E+04  0.00000000000E+00 0.  1.
         -1   -1    0    0    0  501 -0.00000000000E+00 -0.00000000000E+00 -0.45991503648E+03  0.45991503648E+03  0.00000000000E+00 0. -1.
    9000007    2    1    2  502    0  0.40966864958E+03  0.21897206629E+03 -0.52830899348E+02  0.61571146677E+03  0.40066487009E+03 0.  0.
    9000005    1    3    3    0    0  0.48359351657E+03  0.21625674702E+03 -0.82266253715E+02  0.53609551984E+03  0.99999687468E+00 0.  0.
          4    1    3    3  502    0 -0.73924866991E+02  0.27153192672E+01  0.29435354367E+02  0.79615946927E+02  0.00000000000E+00 0.  1.
   -9000007    1    1    2    0  501 -0.40966864958E+03 -0.21897206629E+03  0.62205919376E+03  0.87334690061E+03  0.40000000000E+03 0.  1.
<mgrwt>
<rscale>  2 0.61322365E+03</rscale>
<asrwt>0</asrwt>
<pdfrwt beam="1">  1        1 0.15832974E+00 0.61322365E+03</pdfrwt>
<pdfrwt beam="2">  1       -1 0.70756160E-01 0.61322365E+03</pdfrwt>
<totfact> 0.30281172E+01</totfact>
</mgrwt>
</event>
<event>
 6    1  0.9022793E-004  0.4598921E+03  0.7818608E-02  0.1024813E+00
          1   -1    0    0  502    0  0.00000000000E+00  0.00000000000E+00  0.51493393709E+03  0.51493393709E+03  0.00000000000E+00 0. -1.
         -1   -1    0    0    0  501 -0.00000000000E+00 -0.00000000000E+00 -0.48921630000E+03  0.48921630000E+03  0.00000000000E+00 0.  1.
    9000007    2    1    2  502    0  0.17237589292E+03  0.14720110747E+03  0.21395855353E+03  0.50734418125E+03  0.40029769062E+03 0.  0.
    9000005    1    3    3    0    0 -0.24930003878E+02 -0.12177568098E+03  0.80262713696E+02  0.14796595816E+03  0.99999687468E+00 0.  0.
          4    1    3    3  502    0  0.19730589680E+03  0.26897678845E+03  0.13369583984E+03  0.35937822308E+03  0.00000000000E+00 0.  1.
   -9000007    1    1    2    0  501 -0.17237589292E+03 -0.14720110747E+03 -0.18824091645E+03  0.49680605585E+03  0.40000000000E+03 0.  1.
<mgrwt>
<rscale>  2 0.45989205E+03</rscale>
<asrwt>0</asrwt>
<pdfrwt beam="1">  1        1 0.79220606E-01 0.45989205E+03</pdfrwt>
<pdfrwt beam="2">  1       -1 0.75264046E-01 0.45989205E+03</pdfrwt>
<totfact> 0.79066723E+01</totfact>
</mgrwt>
</event>
<event>
 6    1  0.9022793E-004  0.4527029E+03  0.7818608E-02  0.1026919E+00
          1   -1    0    0  502    0  0.00000000000E+00  0.00000000000E+00  0.20223223249E+03  0.20223223249E+03  0.00000000000E+00 0. -1.
         -1   -1    0    0    0  501 -0.00000000000E+00 -0.00000000000E+00 -0.12497608535E+04  0.12497608535E+04  0.00000000000E+00 0.  1.
    9000007    2    1    2  502    0 -0.16324881311E+03  0.13493169380E+03 -0.20811826567E+03  0.49833356519E+03  0.40020793685E+03 0.  0.
    9000005    1    3    3    0    0 -0.83562101194E+02  0.10756160168E+03  0.10632661728E+03  0.17279604291E+03  0.99999687468E+00 0.  0.
          4    1    3    3  502    0 -0.79686711918E+02  0.27370092125E+02 -0.31444488295E+03  0.32553752228E+03  0.00000000000E+00 0.  1.
   -9000007    1    1    2    0  501  0.16324881311E+03 -0.13493169380E+03 -0.83941035538E+03  0.95365952084E+03  0.40000000000E+03 0.  1.
<mgrwt>
<rscale>  2 0.45270290E+03</rscale>
<asrwt>0</asrwt>
<pdfrwt beam="1">  1        1 0.31112651E-01 0.45270290E+03</pdfrwt>
<pdfrwt beam="2">  1       -1 0.19227090E+00 0.45270290E+03</pdfrwt>
<totfact> 0.26505945E+01</totfact>
</mgrwt>
</event>
<event>
 6    1  0.9022793E-004  0.4397083E+03  0.7818608E-02  0.1030836E+00
          1   -1    0    0  502    0  0.00000000000E+00  0.00000000000E+00  0.22855221991E+04  0.22855221991E+04  0.00000000000E+00 0. -1.
         -1   -1    0    0    0  501 -0.00000000000E+00 -0.00000000000E+00 -0.84599728469E+02  0.84599728469E+02  0.00000000000E+00 0.  1.
    9000007    2    1    2  502    0 -0.61284329061E+02 -0.17174160062E+03  0.10917232887E+04  0.11769858198E+04  0.40023110155E+03 0.  0.
    9000005    1    3    3    0    0 -0.19006516228E+03 -0.19401092802E+03  0.93113577393E+03  0.96993805761E+03  0.99999687468E+00 0.  0.
          4    1    3    3  502    0  0.12878083322E+03  0.22269327408E+02  0.16058751477E+03  0.20704776223E+03  0.00000000000E+00 0.  1.
   -9000007    1    1    2    0  501  0.61284329061E+02  0.17174160062E+03  0.11091991819E+04  0.11931361077E+04  0.40000000000E+03 0. -1.
<mgrwt>
<rscale>  2 0.43970830E+03</rscale>
<asrwt>0</asrwt>
<pdfrwt beam="1">  1        1 0.35161875E+00 0.43970830E+03</pdfrwt>
<pdfrwt beam="2">  1       -1 0.13015345E-01 0.43970830E+03</pdfrwt>
<totfact> 0.85416897E+01</totfact>
</mgrwt>
</event>
<event>
 6    1  0.9022793E-004  0.6029392E+03  0.7818608E-02  0.9899327E-01
          1   -1    0    0  502    0  0.00000000000E+00  0.00000000000E+00  0.79184835662E+03  0.79184835662E+03  0.00000000000E+00 0.  1.
         -1   -1    0    0    0  501 -0.00000000000E+00 -0.00000000000E+00 -0.98737077633E+03  0.98737077633E+03  0.00000000000E+00 0. -1.
    9000007    2    1    2  502    0 -0.33949848712E+03 -0.29726542370E+03 -0.74846719819E+03  0.96106640704E+03  0.39977435771E+03 0.  0.
    9000005    1    3    3    0    0 -0.31786418865E+03 -0.22551848306E+03 -0.78595029736E+03  0.87727709337E+03  0.99999687468E+00 0.  0.
          4    1    3    3  502    0 -0.21634298462E+02 -0.71746940638E+02  0.37483099175E+02  0.83789313666E+02  0.00000000000E+00 0.  1.
   -9000007    1    1    2    0  501  0.33949848712E+03  0.29726542370E+03  0.55294477847E+03  0.81815272592E+03  0.40000000000E+03 0.  1.
<mgrwt>
<rscale>  2 0.60293923E+03</rscale>
<asrwt>0</asrwt>
<pdfrwt beam="1">  1        1 0.12182282E+00 0.60293923E+03</pdfrwt>
<pdfrwt beam="2">  1       -1 0.15190320E+00 0.60293923E+03</pdfrwt>
<totfact> 0.80065600E+00</totfact>
</mgrwt>
</event>
<event>
 6    1  0.9022793E-004  0.6626005E+03  0.7818608E-02  0.9783418E-01
          1   -1    0    0  502    0  0.00000000000E+00  0.00000000000E+00  0.75882438575E+03  0.75882438575E+03  0.00000000000E+00 0. -1.
         -1   -1    0    0    0  501 -0.00000000000E+00 -0.00000000000E+00 -0.61588697153E+03  0.61588697153E+03  0.00000000000E+00 0.  1.
    9000007    2    1    2  502    0 -0.50883298482E+02  0.52576380130E+03 -0.97704346569E+02  0.66978218221E+03  0.40005668028E+03 0.  0.
    9000005    1    3    3    0    0 -0.13282189162E+03  0.39091709065E+03  0.92040547867E+02  0.42300152376E+03  0.99999687468E+00 0.  0.
          4    1    3    3  502    0  0.81938593139E+02  0.13484671066E+03 -0.18974489444E+03  0.24678065845E+03  0.00000000000E+00 0.  1.
   -9000007    1    1    2    0  501  0.50883298482E+02 -0.52576380130E+03  0.24064176079E+03  0.70492917507E+03  0.40000000000E+03 0.  1.
<mgrwt>
<rscale>  2 0.66260045E+03</rscale>
<asrwt>0</asrwt>
<pdfrwt beam="1">  1        1 0.11674221E+00 0.66260045E+03</pdfrwt>
<pdfrwt beam="2">  1       -1 0.94751841E-01 0.66260045E+03</pdfrwt>
<totfact> 0.26837544E+01</totfact>
</mgrwt>
</event>
<event>
 6    1  0.9022793E-004  0.5371661E+03  0.7818608E-02  0.1004509E+00
          1   -1    0    0  502    0  0.00000000000E+00  0.00000000000E+00  0.36656856674E+03  0.36656856674E+03  0.00000000000E+00 0. -1.
         -1   -1    0    0    0  501 -0.00000000000E+00 -0.00000000000E+00 -0.10557219870E+04  0.10557219870E+04  0.00000000000E+00 0.  1.
    9000007    2    1    2  502    0 -0.20765637887E+03 -0.29118315941E+03  0.13817954132E+02  0.53793906409E+03  0.40159519023E+03 0.  0.
    9000005    1    3    3    0    0  0.72247672645E+02 -0.18079747158E+02  0.11221595188E+03  0.13468490380E+03  0.99999687468E+00 0.  0.
          4    1    3    3  502    0 -0.27990405151E+03 -0.27310341225E+03 -0.98397997753E+02  0.40325416030E+03  0.00000000000E+00 0.  1.
   -9000007    1    1    2    0  501  0.20765637887E+03  0.29118315941E+03 -0.70297137439E+03  0.88435148963E+03  0.40000000000E+03 0.  1.
<mgrwt>
<rscale>  2 0.53716612E+03</rscale>
<asrwt>0</asrwt>
<pdfrwt beam="1">  1        1 0.56395164E-01 0.53716612E+03</pdfrwt>
<pdfrwt beam="2">  1       -1 0.16241877E+00 0.53716612E+03</pdfrwt>
<totfact> 0.19882350E+01</totfact>
</mgrwt>
</event>
<event>
 6    1  0.9022793E-004  0.5068577E+03  0.7818608E-02  0.1012004E+00
         -1   -1    0    0    0  501 -0.00000000000E+00  0.00000000000E+00  0.59607959495E+03  0.59607959495E+03  0.00000000000E+00 0.  1.
          1   -1    0    0  502    0  0.00000000000E+00 -0.00000000000E+00 -0.43726393247E+03  0.43726393247E+03  0.00000000000E+00 0. -1.
    9000007    2    1    2  502    0  0.10313336920E+03 -0.29386082353E+03  0.14128001775E+03  0.52609785293E+03  0.39978523233E+03 0.  0.
    9000005    1    3    3    0    0 -0.83482896459E+02 -0.23127787608E+03 -0.50797116163E+02  0.25107806947E+03  0.99999687468E+00 0.  0.
          4    1    3    3  502    0  0.18661626566E+03 -0.62582947453E+02  0.19207713392E+03  0.27501978346E+03  0.00000000000E+00 0.  1.
   -9000007    1    1    2    0  501 -0.10313336920E+03  0.29386082353E+03  0.17535644725E+02  0.50724567449E+03  0.40000000000E+03 0.  1.
<mgrwt>
<rscale>  2 0.50685775E+03</rscale>
<asrwt>0</asrwt>
<pdfrwt beam="1">  1        1 0.67271374E-01 0.50685775E+03</pdfrwt>
<pdfrwt beam="2">  1       -1 0.91704553E-01 0.50685775E+03</pdfrwt>
<totfact> 0.64335411E+01</totfact>
</mgrwt>
</event>
<event>
 6    1  0.9022793E-004  0.4417794E+03  0.7818608E-02  0.1030202E+00
          1   -1    0    0  502    0  0.00000000000E+00  0.00000000000E+00  0.13206095945E+04  0.13206095945E+04  0.00000000000E+00 0. -1.
         -1   -1    0    0    0  501 -0.00000000000E+00 -0.00000000000E+00 -0.14987949333E+03  0.14987949333E+03  0.00000000000E+00 0.  1.
    9000007    2    1    2  502    0  0.14784477660E+03  0.11348187638E+03  0.49913697539E+03  0.66688872643E+03  0.40108183579E+03 0.  0.
    9000005    1    3    3    0    0  0.14777209376E+03  0.33464193975E+02  0.55105346046E+03  0.57150447090E+03  0.99999687468E+00 0.  0.
          4    1    3    3  502    0  0.72682845995E-01  0.80017682409E+02 -0.51916485076E+02  0.95384255533E+02  0.00000000000E+00 0.  1.
   -9000007    1    1    2    0  501 -0.14784477660E+03 -0.11348187638E+03  0.67159312579E+03  0.80360036140E+03  0.40000000000E+03 0. -1.
<mgrwt>
<rscale>  2 0.44177942E+03</rscale>
<asrwt>0</asrwt>
<pdfrwt beam="1">  1        1 0.20317070E+00 0.44177942E+03</pdfrwt>
<pdfrwt beam="2">  1       -1 0.23058384E-01 0.44177942E+03</pdfrwt>
<totfact> 0.14771514E+02</totfact>
</mgrwt>
</event>
<event>
 6    1  0.9022793E-004  0.4252890E+03  0.7818608E-02  0.1035359E+00
         -2   -1    0    0    0  501 -0.00000000000E+00  0.00000000000E+00  0.82307705978E+02  0.82307705978E+02  0.00000000000E+00 0. -1.
          2   -1    0    0  502    0  0.00000000000E+00 -0.00000000000E+00 -0.22304308476E+04  0.22304308476E+04  0.00000000000E+00 0.  1.
    9000007    2    1    2  502    0  0.34531096099E+02 -0.14041258848E+03 -0.93343248998E+03  0.10257337087E+04  0.39990665933E+03 0.  0.
    9000005    1    3    3    0    0  0.68181996717E+02  0.13310598684E+03 -0.31738029199E+03  0.35085215996E+03  0.99999687468E+00 0.  0.
          4    1    3    3  502    0 -0.33650900618E+02 -0.27351857532E+03 -0.61605219799E+03  0.67488154872E+03  0.00000000000E+00 0.  1.
   -9000007    1    1    2    0  501 -0.34531096099E+02  0.14041258848E+03 -0.12146906516E+04  0.12870048449E+04  0.40000000000E+03 0. -1.
<mgrwt>
<rscale>  2 0.42528903E+03</rscale>
<asrwt>0</asrwt>
<pdfrwt beam="1">  1        2 0.34314323E+00 0.42528903E+03</pdfrwt>
<pdfrwt beam="2">  1       -2 0.12662723E-01 0.42528903E+03</pdfrwt>
<totfact> 0.24728447E+02</totfact>
</mgrwt>
</event>
<event>
 6    1  0.9022793E-004  0.4459227E+03  0.7818608E-02  0.1028945E+00
         -2   -1    0    0    0  501 -0.00000000000E+00  0.00000000000E+00  0.22200606478E+03  0.22200606478E+03  0.00000000000E+00 0.  1.
          2   -1    0    0  502    0  0.00000000000E+00 -0.00000000000E+00 -0.90471475450E+03  0.90471475450E+03  0.00000000000E+00 0. -1.
    9000007    2    1    2  502    0  0.16580801020E+03 -0.10662951450E+03 -0.39763019095E+03  0.59744593789E+03  0.39996216113E+03 0.  0.
    9000005    1    3    3    0    0  0.24558945287E+03 -0.19391314457E+03 -0.35126244454E+03  0.47042830690E+03  0.99999687468E+00 0.  0.
          4    1    3    3  502    0 -0.79781442670E+02  0.87283630076E+02 -0.46367746418E+02  0.12701763099E+03  0.00000000000E+00 0.  1.
   -9000007    1    1    2    0  501 -0.16580801020E+03  0.10662951450E+03 -0.28507849877E+03  0.52927488139E+03  0.40000000000E+03 0.  1.
<mgrwt>
<rscale>  2 0.44592265E+03</rscale>
<asrwt>0</asrwt>
<pdfrwt beam="1">  1        2 0.13918689E+00 0.44592265E+03</pdfrwt>
<pdfrwt beam="2">  1       -2 0.34154779E-01 0.44592265E+03</pdfrwt>
<totfact> 0.24043807E+02</totfact>
</mgrwt>
</event>
<event>
 6    1  0.9022793E-004  0.6469426E+03  0.7818608E-02  0.9812533E-01
         -1   -1    0    0    0  501 -0.00000000000E+00  0.00000000000E+00  0.92354453709E+03  0.92354453709E+03  0.00000000000E+00 0. -1.
          1   -1    0    0  502    0  0.00000000000E+00 -0.00000000000E+00 -0.45397092766E+03  0.45397092766E+03  0.00000000000E+00 0.  1.
    9000007    2    1    2  502    0 -0.27231701676E+03 -0.42910300537E+03  0.26355031985E+03  0.69874338026E+03  0.40062150906E+03 0.  0.
    9000005    1    3    3    0    0 -0.19508586520E+03 -0.49735368157E+03  0.26345801691E+03  0.59567634336E+03  0.99999687468E+00 0.  0.
          4    1    3    3  502    0 -0.77231151561E+02  0.68250676205E+02  0.92302939465E-01  0.10306703689E+03  0.00000000000E+00 0.  1.
   -9000007    1    1    2    0  501  0.27231701676E+03  0.42910300537E+03  0.20602328958E+03  0.67877208449E+03  0.40000000000E+03 0.  1.
<mgrwt>
<rscale>  2 0.64694256E+03</rscale>
<asrwt>0</asrwt>
<pdfrwt beam="1">  1        1 0.69841681E-01 0.64694256E+03</pdfrwt>
<pdfrwt beam="2">  1       -1 0.14208377E+00 0.64694256E+03</pdfrwt>
<totfact> 0.21168223E+01</totfact>
</mgrwt>
</event>
<event>
 6    1  0.9022793E-004  0.4288014E+03  0.7818608E-02  0.1034239E+00
         -2   -1    0    0    0  501 -0.00000000000E+00  0.00000000000E+00  0.56270756367E+03  0.56270756367E+03  0.00000000000E+00 0.  1.
          2   -1    0    0  502    0  0.00000000000E+00 -0.00000000000E+00 -0.33691983884E+03  0.33691983884E+03  0.00000000000E+00 0. -1.
    9000007    2    1    2  502    0  0.12895186291E+03 -0.86288904809E+02  0.34724489151E+02  0.42996846447E+03  0.39949059095E+03 0.  0.
    9000005    1    3    3    0    0  0.14373163939E+03 -0.20194219391E+03  0.12954741816E+03  0.27968369167E+03  0.99999687468E+00 0.  0.
          4    1    3    3  502    0 -0.14779776476E+02  0.11565328910E+03 -0.94822929005E+02  0.15028477281E+03  0.00000000000E+00 0.  1.
   -9000007    1    1    2    0  501 -0.12895186291E+03  0.86288904809E+02  0.19106323568E+03  0.46965893803E+03  0.40000000000E+03 0.  1.
<mgrwt>
<rscale>  2 0.42880137E+03</rscale>
<asrwt>0</asrwt>
<pdfrwt beam="1">  1        2 0.51833821E-01 0.42880137E+03</pdfrwt>
<pdfrwt beam="2">  1       -2 0.86570395E-01 0.42880137E+03</pdfrwt>
<totfact> 0.11454564E+02</totfact>
</mgrwt>
</event>
<event>
 6    1  0.9022793E-004  0.5157558E+03  0.7818608E-02  0.1009746E+00
          1   -1    0    0  502    0  0.00000000000E+00  0.00000000000E+00  0.12198214037E+04  0.12198214037E+04  0.00000000000E+00 0. -1.
         -1   -1    0    0    0  501 -0.00000000000E+00 -0.00000000000E+00 -0.27744193135E+03  0.27744193135E+03  0.00000000000E+00 0.  1.
    9000007    2    1    2  502    0 -0.29905632763E+03  0.12542661839E+03  0.12545367203E+03  0.53158518633E+03  0.40209160996E+03 0.  0.
    9000005    1    3    3    0    0 -0.63709688376E+02  0.18899085131E+03  0.19412314094E+03  0.27831863055E+03  0.99999687468E+00 0.  0.
          4    1    3    3  502    0 -0.23534663925E+03 -0.63564232919E+02 -0.68669468909E+02  0.25326655578E+03  0.00000000000E+00 0.  1.
   -9000007    1    1    2    0  501  0.29905632763E+03 -0.12542661839E+03  0.81692580035E+03  0.96567814875E+03  0.40000000000E+03 0. -1.
<mgrwt>
<rscale>  2 0.51575579E+03</rscale>
<asrwt>0</asrwt>
<pdfrwt beam="1">  1        1 0.18766483E+00 0.51575579E+03</pdfrwt>
<pdfrwt beam="2">  1       -1 0.42683375E-01 0.51575579E+03</pdfrwt>
<totfact> 0.58859153E+01</totfact>
</mgrwt>
</event>
<event>
 6    1  0.9022793E-004  0.4329367E+03  0.7818608E-02  0.1032936E+00
          2   -1    0    0  502    0  0.00000000000E+00  0.00000000000E+00  0.39153924072E+03  0.39153924072E+03  0.00000000000E+00 0. -1.
         -2   -1    0    0    0  501 -0.00000000000E+00 -0.00000000000E+00 -0.49057983740E+03  0.49057983740E+03  0.00000000000E+00 0.  1.
    9000007    2    1    2  502    0 -0.14211565395E+03 -0.85255210163E+02  0.19086710052E+02  0.43332138366E+03  0.39992225379E+03 0.  0.
    9000005    1    3    3    0    0 -0.15774096630E+03 -0.84615576267E+02  0.19037816842E+03  0.26131753711E+03  0.99999687468E+00 0.  0.
          4    1    3    3  502    0  0.15625312356E+02 -0.63963389604E+00 -0.17129145837E+03  0.17200384655E+03  0.00000000000E+00 0.  1.
   -9000007    1    1    2    0  501  0.14211565395E+03  0.85255210163E+02 -0.11812730674E+03  0.44879769446E+03  0.40000000000E+03 0.  1.
<mgrwt>
<rscale>  2 0.43293673E+03</rscale>
<asrwt>0</asrwt>
<pdfrwt beam="1">  1        2 0.60236807E-01 0.43293673E+03</pdfrwt>
<pdfrwt beam="2">  1       -2 0.75473821E-01 0.43293673E+03</pdfrwt>
<totfact> 0.13183085E+02</totfact>
</mgrwt>
</event>
<event>
 6    1  0.9022793E-004  0.4942602E+03  0.7818608E-02  0.1015288E+00
          1   -1    0    0  502    0  0.00000000000E+00  0.00000000000E+00  0.98111048010E+03  0.98111048010E+03  0.00000000000E+00 0.  1.
         -1   -1    0    0    0  501 -0.00000000000E+00 -0.00000000000E+00 -0.28588881203E+03  0.28588881203E+03  0.00000000000E+00 0. -1.
    9000007    2    1    2  502    0 -0.21990397235E+03  0.18906141404E+03  0.57529940004E+03  0.75858673751E+03  0.40047779378E+03 0.  0.
    9000005    1    3    3    0    0 -0.19961876214E+03 -0.84144315717E+02  0.30157323758E+03  0.37131567929E+03  0.99999687468E+00 0.  0.
          4    1    3    3  502    0 -0.20285210207E+02  0.27320572976E+03  0.27372616246E+03  0.38727105822E+03  0.00000000000E+00 0.  1.
   -9000007    1    1    2    0  501  0.21990397235E+03 -0.18906141404E+03  0.11992226803E+03  0.50841255463E+03  0.40000000000E+03 0.  1.
<mgrwt>
<rscale>  2 0.49426019E+03</rscale>
<asrwt>0</asrwt>
<pdfrwt beam="1">  1        1 0.15094007E+00 0.49426019E+03</pdfrwt>
<pdfrwt beam="2">  1       -1 0.43982895E-01 0.49426019E+03</pdfrwt>
<totfact> 0.83877405E+01</totfact>
</mgrwt>
</event>
<event>
 6    1  0.9022793E-004  0.5947635E+03  0.7818608E-02  0.9916330E-01
         -1   -1    0    0    0  501 -0.00000000000E+00  0.00000000000E+00  0.52710580487E+03  0.52710580487E+03  0.00000000000E+00 0. -1.
          1   -1    0    0  502    0  0.00000000000E+00 -0.00000000000E+00 -0.97684204633E+03  0.97684204633E+03  0.00000000000E+00 0.  1.
    9000007    2    1    2  502    0  0.19862441396E+03  0.39292026166E+03 -0.64553954793E+03  0.87770754216E+03  0.39976397010E+03 0.  0.
    9000005    1    3    3    0    0  0.19087761331E+03  0.12760882598E+03 -0.63844641976E+02  0.23831788442E+03  0.99999687468E+00 0.  0.
          4    1    3    3  502    0  0.77468006542E+01  0.26531143568E+03 -0.58169490595E+03  0.63938965774E+03  0.00000000000E+00 0.  1.
   -9000007    1    1    2    0  501 -0.19862441396E+03 -0.39292026166E+03  0.19580330647E+03  0.62624030904E+03  0.40000000000E+03 0.  1.
<mgrwt>
<rscale>  2 0.59476348E+03</rscale>
<asrwt>0</asrwt>
<pdfrwt beam="1">  1        1 0.15028339E+00 0.59476348E+03</pdfrwt>
<pdfrwt beam="2">  1       -1 0.81093201E-01 0.59476348E+03</pdfrwt>
<totfact> 0.25075734E+01</totfact>
</mgrwt>
</event>
<event>
 6    1  0.9022793E-004  0.4009604E+03  0.7818608E-02  0.1043448E+00
         -1   -1    0    0    0  501 -0.00000000000E+00  0.00000000000E+00  0.63252605854E+03  0.63252605854E+03  0.00000000000E+00 0.  1.
          1   -1    0    0  502    0  0.00000000000E+00 -0.00000000000E+00 -0.32618783588E+03  0.32618783588E+03  0.00000000000E+00 0. -1.
    9000007    2    1    2  502    0 -0.23556665670E+02 -0.65446445776E+01  0.37847230505E+03  0.55152711331E+03  0.40042867299E+03 0.  0.
    9000005    1    3    3    0    0  0.14081014901E+03 -0.11252730071E+03  0.86065599100E+02  0.19974528483E+03  0.99999687468E+00 0.  0.
          4    1    3    3  502    0 -0.16436681468E+03  0.10598265613E+03  0.29240670595E+03  0.35178182848E+03  0.00000000000E+00 0.  1.
   -9000007    1    1    2    0  501  0.23556665670E+02  0.65446445776E+01 -0.72134082382E+02  0.40718678111E+03  0.40000000000E+03 0. -1.
<mgrwt>
<rscale>  2 0.40096037E+03</rscale>
<asrwt>0</asrwt>
<pdfrwt beam="1">  1        1 0.50182744E-01 0.40096037E+03</pdfrwt>
<pdfrwt beam="2">  1       -1 0.97311702E-01 0.40096037E+03</pdfrwt>
<totfact> 0.83665626E+01</totfact>
</mgrwt>
</event>
<event>
 6    1  0.9022793E-004  0.4700600E+03  0.7818608E-02  0.1021903E+00
         -2   -1    0    0    0  501 -0.00000000000E+00  0.00000000000E+00  0.39611143648E+03  0.39611143648E+03  0.00000000000E+00 0.  1.
          2   -1    0    0  502    0  0.00000000000E+00 -0.00000000000E+00 -0.70626357164E+03  0.70626357164E+03  0.00000000000E+00 0. -1.
    9000007    2    1    2  502    0  0.24214772702E+03  0.45771940235E+02  0.97561585502E+02  0.48031305765E+03  0.40056432463E+03 0.  0.
    9000005    1    3    3    0    0  0.63584198202E+02  0.26803013437E+02 -0.15543621872E+03  0.17006695703E+03  0.99999687468E+00 0.  0.
          4    1    3    3  502    0  0.17856352882E+03  0.18968926798E+02  0.25299780422E+03  0.31024610062E+03  0.00000000000E+00 0.  1.
   -9000007    1    1    2    0  501 -0.24214772702E+03 -0.45771940235E+02 -0.40771372067E+03  0.62206195048E+03  0.40000000000E+03 0. -1.
<mgrwt>
<rscale>  2 0.47005996E+03</rscale>
<asrwt>0</asrwt>
<pdfrwt beam="1">  1        2 0.10865593E+00 0.47005996E+03</pdfrwt>
<pdfrwt beam="2">  1       -2 0.60940222E-01 0.47005996E+03</pdfrwt>
<totfact> 0.10493058E+02</totfact>
</mgrwt>
</event>
<event>
 6    1  0.9022793E-004  0.4025735E+03  0.7818608E-02  0.1042892E+00
         -2   -1    0    0    0  501 -0.00000000000E+00  0.00000000000E+00  0.23530468030E+03  0.23530468030E+03  0.00000000000E+00 0. -1.
          2   -1    0    0  502    0  0.00000000000E+00 -0.00000000000E+00 -0.83136627016E+03  0.83136627016E+03  0.00000000000E+00 0.  1.
    9000007    2    1    2  502    0  0.20507184601E+02  0.37683011868E+02 -0.51910063884E+03  0.65708147063E+03  0.40056214475E+03 0.  0.
    9000005    1    3    3    0    0 -0.15295583685E+03 -0.96659475896E+02 -0.19847332571E+03  0.26857252897E+03  0.99999687468E+00 0.  0.
          4    1    3    3  502    0  0.17346302145E+03  0.13434248776E+03 -0.32062731313E+03  0.38850894167E+03  0.00000000000E+00 0.  1.
   -9000007    1    1    2    0  501 -0.20507184601E+02 -0.37683011868E+02 -0.76960951030E+02  0.40958947983E+03  0.40000000000E+03 0. -1.
<mgrwt>
<rscale>  2 0.40257349E+03</rscale>
<asrwt>0</asrwt>
<pdfrwt beam="1">  1        2 0.12790251E+00 0.40257349E+03</pdfrwt>
<pdfrwt beam="2">  1       -2 0.36200719E-01 0.40257349E+03</pdfrwt>
<totfact> 0.24226001E+02</totfact>
</mgrwt>
</event>
<event>
 6    1  0.9022793E-004  0.5242351E+03  0.7818608E-02  0.1007640E+00
          1   -1    0    0  502    0  0.00000000000E+00  0.00000000000E+00  0.85152850541E+03  0.85152850541E+03  0.00000000000E+00 0.  1.
         -1   -1    0    0    0  501 -0.00000000000E+00 -0.00000000000E+00 -0.36337619637E+03  0.36337619637E+03  0.00000000000E+00 0. -1.
    9000007    2    1    2  502    0 -0.45886476798E+02  0.33552292356E+03  0.40994490622E+02  0.52596978790E+03  0.40035292997E+03 0.  0.
    9000005    1    3    3    0    0 -0.33161722324E+02  0.42072879858E+03 -0.16564749503E+02  0.42235981426E+03  0.99999687468E+00 0.  0.
          4    1    3    3  502    0 -0.12724754474E+02 -0.85205875018E+02  0.57559240125E+02  0.10360997364E+03  0.00000000000E+00 0.  1.
   -9000007    1    1    2    0  501  0.45886476798E+02 -0.33552292356E+03  0.44715781842E+03  0.68893491388E+03  0.40000000000E+03 0.  1.
<mgrwt>
<rscale>  2 0.52423506E+03</rscale>
<asrwt>0</asrwt>
<pdfrwt beam="1">  1        1 0.13100438E+00 0.52423506E+03</pdfrwt>
<pdfrwt beam="2">  1       -1 0.55904031E-01 0.52423506E+03</pdfrwt>
<totfact> 0.67584738E+01</totfact>
</mgrwt>
</event>
<event>
 6    1  0.9022793E-004  0.4479935E+03  0.7818608E-02  0.1028322E+00
          2   -1    0    0  502    0  0.00000000000E+00  0.00000000000E+00  0.81379654213E+03  0.81379654213E+03  0.00000000000E+00 0. -1.
         -2   -1    0    0    0  501 -0.00000000000E+00 -0.00000000000E+00 -0.36397654116E+03  0.36397654116E+03  0.00000000000E+00 0.  1.
    9000007    2    1    2  502    0 -0.20012746129E+03 -0.23418212069E+02 -0.10943939558E+03  0.46127431424E+03  0.40024692161E+03 0.  0.
    9000005    1    3    3    0    0 -0.13176313181E+03  0.16760270277E+03 -0.14148481305E+03  0.25587329129E+03  0.99999687468E+00 0.  0.
          4    1    3    3  502    0 -0.68364329480E+02 -0.19102091483E+03  0.32045417466E+02  0.20540102295E+03  0.00000000000E+00 0.  1.
   -9000007    1    1    2    0  501  0.20012746129E+03  0.23418212069E+02  0.55925939655E+03  0.71649876905E+03  0.40000000000E+03 0. -1.
<mgrwt>
<rscale>  2 0.44799351E+03</rscale>
<asrwt>0</asrwt>
<pdfrwt beam="1">  1        2 0.12519947E+00 0.44799351E+03</pdfrwt>
<pdfrwt beam="2">  1       -2 0.55996391E-01 0.44799351E+03</pdfrwt>
<totfact> 0.10467209E+02</totfact>
</mgrwt>
</event>
<event>
 6    1  0.9022793E-004  0.5208653E+03  0.7818608E-02  0.1008472E+00
         -2   -1    0    0    0  501 -0.00000000000E+00  0.00000000000E+00  0.66258067095E+03  0.66258067095E+03  0.00000000000E+00 0.  1.
          2   -1    0    0  502    0  0.00000000000E+00 -0.00000000000E+00 -0.41009213835E+03  0.41009213835E+03  0.00000000000E+00 0. -1.
    9000007    2    1    2  502    0  0.27267570532E+03  0.19188698241E+03  0.10522696989E+03  0.53150867326E+03  0.40031999733E+03 0.  0.
    9000005    1    3    3    0    0  0.20451904231E+03  0.21534067256E+03 -0.10049242660E+03  0.31352730619E+03  0.99999687468E+00 0.  0.
          4    1    3    3  502    0  0.68156663013E+02 -0.23453690155E+02  0.20571939649E+03  0.21798136707E+03  0.00000000000E+00 0.  1.
   -9000007    1    1    2    0  501 -0.27267570532E+03 -0.19188698241E+03  0.14726156271E+03  0.54116413605E+03  0.40000000000E+03 0.  1.
<mgrwt>
<rscale>  2 0.52086531E+03</rscale>
<asrwt>0</asrwt>
<pdfrwt beam="1">  1        2 0.63091098E-01 0.52086531E+03</pdfrwt>
<pdfrwt beam="2">  1       -2 0.10193549E+00 0.52086531E+03</pdfrwt>
<totfact> 0.62666268E+01</totfact>
</mgrwt>
</event>
<event>
 6    1  0.9022793E-004  0.7185704E+03  0.7818608E-02  0.9685991E-01
         -1   -1    0    0    0  501 -0.00000000000E+00  0.00000000000E+00  0.44556381293E+03  0.44556381293E+03  0.00000000000E+00 0. -1.
          1   -1    0    0  502    0  0.00000000000E+00 -0.00000000000E+00 -0.13223923786E+04  0.13223923786E+04  0.00000000000E+00 0.  1.
    9000007    2    1    2  502    0 -0.39871980607E+02 -0.59584837154E+03 -0.74917388205E+03  0.10379419622E+04  0.39929557310E+03 0.  0.
    9000005    1    3    3    0    0 -0.35946696082E+02 -0.60747989190E+03 -0.49764638461E+03  0.78611507309E+03  0.99999687468E+00 0.  0.
          4    1    3    3  502    0 -0.39252845250E+01  0.11631520365E+02 -0.25152749744E+03  0.25182688914E+03  0.00000000000E+00 0.  1.
   -9000007    1    1    2    0  501  0.39871980607E+02  0.59584837154E+03 -0.12765468360E+03  0.73001422928E+03  0.40000000000E+03 0.  1.
<mgrwt>
<rscale>  2 0.71857043E+03</rscale>
<asrwt>0</asrwt>
<pdfrwt beam="1">  1        1 0.20344498E+00 0.71857043E+03</pdfrwt>
<pdfrwt beam="2">  1       -1 0.68548279E-01 0.71857043E+03</pdfrwt>
<totfact> 0.19472286E+01</totfact>
</mgrwt>
</event>
<event>
 6    1  0.9022793E-004  0.4512692E+03  0.7818608E-02  0.1027344E+00
         -2   -1    0    0    0  501 -0.00000000000E+00  0.00000000000E+00  0.13633531567E+04  0.13633531567E+04  0.00000000000E+00 0.  1.
          2   -1    0    0  502    0  0.00000000000E+00 -0.00000000000E+00 -0.15266979270E+03  0.15266979270E+03  0.00000000000E+00 0. -1.
    9000007    2    1    2  502    0  0.20902166999E+03 -0.29532855342E+00  0.71671694690E+03  0.84692432666E+03  0.39988434250E+03 0.  0.
    9000005    1    3    3    0    0  0.59513201299E+01 -0.17121366100E+03  0.39006681677E+03  0.42603128695E+03  0.99999687468E+00 0.  0.
          4    1    3    3  502    0  0.20307034986E+03  0.17091833245E+03  0.32665013013E+03  0.42089303971E+03  0.00000000000E+00 0.  1.
   -9000007    1    1    2    0  501 -0.20902166999E+03  0.29532855342E+00  0.49396641714E+03  0.66909862278E+03  0.40000000000E+03 0. -1.
<mgrwt>
<rscale>  2 0.45126919E+03</rscale>
<asrwt>0</asrwt>
<pdfrwt beam="1">  1        2 0.23487661E-01 0.45126919E+03</pdfrwt>
<pdfrwt beam="2">  1       -2 0.20974663E+00 0.45126919E+03</pdfrwt>
<totfact> 0.28314426E+01</totfact>
</mgrwt>
</event>
<event>
 6    1  0.9022793E-004  0.4705601E+03  0.7818608E-02  0.1021762E+00
          2   -1    0    0  502    0  0.00000000000E+00  0.00000000000E+00  0.63993218592E+03  0.63993218592E+03  0.00000000000E+00 0. -1.
         -2   -1    0    0    0  501 -0.00000000000E+00 -0.00000000000E+00 -0.34605687729E+03  0.34605687729E+03  0.00000000000E+00 0.  1.
    9000007    2    1    2  502    0  0.83674911212E+02  0.23329626375E+03  0.15229582439E+03  0.49458964542E+03  0.39999532720E+03 0.  0.
    9000005    1    3    3    0    0 -0.13427288658E+03 -0.95770611400E+01  0.33928088648E+00  0.13461813874E+03  0.99999687468E+00 0.  0.
          4    1    3    3  502    0  0.21794779780E+03  0.24287332489E+03  0.15195654350E+03  0.35997150668E+03  0.00000000000E+00 0.  1.
   -9000007    1    1    2    0  501 -0.83674911212E+02 -0.23329626375E+03  0.14157948425E+03  0.49139941779E+03  0.40000000000E+03 0. -1.
<mgrwt>
<rscale>  2 0.47056006E+03</rscale>
<asrwt>0</asrwt>
<pdfrwt beam="1">  1        2 0.98451105E-01 0.47056006E+03</pdfrwt>
<pdfrwt beam="2">  1       -2 0.53239520E-01 0.47056006E+03</pdfrwt>
<totfact> 0.15676467E+02</totfact>
</mgrwt>
</event>
<event>
 6    1  0.9022793E-004  0.5778987E+03  0.7818608E-02  0.9952351E-01
          2   -1    0    0  502    0  0.00000000000E+00  0.00000000000E+00  0.10943286181E+04  0.10943286181E+04  0.00000000000E+00 0. -1.
         -2   -1    0    0    0  501 -0.00000000000E+00 -0.00000000000E+00 -0.34770910887E+03  0.34770910887E+03  0.00000000000E+00 0.  1.
    9000007    2    1    2  502    0  0.40124589794E+03  0.11372634751E+03  0.62549095075E+03  0.85161069476E+03  0.40008735699E+03 0.  0.
    9000005    1    3    3    0    0  0.21259960209E+01 -0.10932725623E+03  0.61118717187E+02  0.12527356624E+03  0.99999687468E+00 0.  0.
          4    1    3    3  502    0  0.39911990192E+03  0.22305360374E+03  0.56437223357E+03  0.72633712852E+03  0.00000000000E+00 0.  1.
   -9000007    1    1    2    0  501 -0.40124589794E+03 -0.11372634751E+03  0.12112855852E+03  0.59042703226E+03  0.40000000000E+03 0.  1.
<mgrwt>
<rscale>  2 0.57789869E+03</rscale>
<asrwt>0</asrwt>
<pdfrwt beam="1">  1        2 0.16835825E+00 0.57789869E+03</pdfrwt>
<pdfrwt beam="2">  1       -2 0.53493710E-01 0.57789869E+03</pdfrwt>
<totfact> 0.74649404E+01</totfact>
</mgrwt>
</event>
<event>
 6    1  0.9022793E-004  0.5031491E+03  0.7818608E-02  0.1012960E+00
         -2   -1    0    0    0  501 -0.00000000000E+00  0.00000000000E+00  0.17083818546E+03  0.17083818546E+03  0.00000000000E+00 0. -1.
          2   -1    0    0  502    0  0.00000000000E+00 -0.00000000000E+00 -0.15834608063E+04  0.15834608063E+04  0.00000000000E+00 0.  1.
    9000007    2    1    2  502    0 -0.23175947027E+03 -0.19840500407E+03 -0.92860061388E+03  0.10561913347E+04  0.40020499450E+03 0.  0.
    9000005    1    3    3    0    0  0.63858307792E+02 -0.19377973913E+03 -0.31884733438E+03  0.37854074207E+03  0.99999687468E+00 0.  0.
          4    1    3    3  502    0 -0.29561777806E+03 -0.46252649416E+01 -0.60975327950E+03  0.67765059259E+03  0.00000000000E+00 0.  1.
   -9000007    1    1    2    0  501  0.23175947027E+03  0.19840500407E+03 -0.48402200700E+03  0.69810765715E+03  0.40000000000E+03 0. -1.
<mgrwt>
<rscale>  2 0.50314909E+03</rscale>
<asrwt>0</asrwt>
<pdfrwt beam="1">  1        2 0.24360935E+00 0.50314909E+03</pdfrwt>
<pdfrwt beam="2">  1       -2 0.26282798E-01 0.50314909E+03</pdfrwt>
<totfact> 0.15549687E+02</totfact>
</mgrwt>
</event>
<event>
 6    1  0.9022793E-004  0.4814193E+03  0.7818608E-02  0.1018746E+00
          2   -1    0    0  502    0  0.00000000000E+00  0.00000000000E+00  0.58646464929E+03  0.58646464929E+03  0.00000000000E+00 0.  1.
         -2   -1    0    0    0  501 -0.00000000000E+00 -0.00000000000E+00 -0.42467134096E+03  0.42467134096E+03  0.00000000000E+00 0. -1.
    9000007    2    1    2  502    0 -0.26157966818E+03  0.58479351938E+02 -0.52324760295E+02  0.48417270431E+03  0.39980191302E+03 0.  0.
    9000005    1    3    3    0    0 -0.35422454195E+03 -0.15018111743E+02  0.76378213074E+00  0.35454499455E+03  0.99999687468E+00 0.  0.
          4    1    3    3  502    0  0.92644873769E+02  0.73497463681E+02 -0.53088542425E+02  0.12962770977E+03  0.00000000000E+00 0.  1.
   -9000007    1    1    2    0  501  0.26157966818E+03 -0.58479351938E+02  0.21411806862E+03  0.52696328593E+03  0.40000000000E+03 0. -1.
<mgrwt>
<rscale>  2 0.48141929E+03</rscale>
<asrwt>0</asrwt>
<pdfrwt beam="1">  1        2 0.90225330E-01 0.48141929E+03</pdfrwt>
<pdfrwt beam="2">  1       -2 0.65334053E-01 0.48141929E+03</pdfrwt>
<totfact> 0.11333204E+02</totfact>
</mgrwt>
</event>
<event>
 6    1  0.9022793E-004  0.5617614E+03  0.7818608E-02  0.9988077E-01
         -2   -1    0    0    0  501 -0.00000000000E+00  0.00000000000E+00  0.68843827352E+03  0.68843827352E+03  0.00000000000E+00 0. -1.
          2   -1    0    0  502    0  0.00000000000E+00 -0.00000000000E+00 -0.76288435180E+03  0.76288435180E+03  0.00000000000E+00 0.  1.
    9000007    2    1    2  502    0 -0.37025445772E+03  0.13506182333E+03  0.42121763686E+03  0.70231489633E+03  0.40061434875E+03 0.  0.
    9000005    1    3    3    0    0 -0.39119875434E+03 -0.24426425920E+02  0.35336585102E+03  0.52773245147E+03  0.99999687468E+00 0.  0.
          4    1    3    3  502    0  0.20944296620E+02  0.15948824925E+03  0.67851785844E+02  0.17458244486E+03  0.00000000000E+00 0.  1.
   -9000007    1    1    2    0  501  0.37025445772E+03 -0.13506182333E+03 -0.49566371514E+03  0.74900772899E+03  0.40000000000E+03 0.  1.
<mgrwt>
<rscale>  2 0.56176142E+03</rscale>
<asrwt>0</asrwt>
<pdfrwt beam="1">  1        2 0.11736682E+00 0.56176142E+03</pdfrwt>
<pdfrwt beam="2">  1       -2 0.10591358E+00 0.56176142E+03</pdfrwt>
<totfact> 0.27300653E+01</totfact>
</mgrwt>
</event>
<event>
 6    1  0.9022793E-004  0.4067656E+03  0.7818608E-02  0.1041462E+00
         -1   -1    0    0    0  501 -0.00000000000E+00  0.00000000000E+00  0.18522642812E+03  0.18522642812E+03  0.00000000000E+00 0. -1.
          1   -1    0    0  502    0  0.00000000000E+00 -0.00000000000E+00 -0.90908936510E+03  0.90908936510E+03  0.00000000000E+00 0.  1.
    9000007    2    1    2  502    0 -0.63450231517E+02  0.41078577240E+02 -0.43382093299E+03  0.59447807408E+03  0.39936223817E+03 0.  0.
    9000005    1    3    3    0    0 -0.18634638225E+03  0.15192620778E+03 -0.24208596225E+03  0.34119372781E+03  0.99999687468E+00 0.  0.
          4    1    3    3  502    0  0.12289615073E+03 -0.11084763054E+03 -0.19173497074E+03  0.25328434627E+03  0.00000000000E+00 0.  1.
   -9000007    1    1    2    0  501  0.63450231517E+02 -0.41078577240E+02 -0.29004200399E+03  0.49983771913E+03  0.40000000000E+03 0. -1.
<mgrwt>
<rscale>  2 0.40676564E+03</rscale>
<asrwt>0</asrwt>
<pdfrwt beam="1">  1        1 0.13985990E+00 0.40676564E+03</pdfrwt>
<pdfrwt beam="2">  1       -1 0.28496374E-01 0.40676564E+03</pdfrwt>
<totfact> 0.20795683E+02</totfact>
</mgrwt>
</event>
<event>
 6    1  0.9022793E-004  0.5520278E+03  0.7818608E-02  0.1001026E+00
          2   -1    0    0  502    0  0.00000000000E+00  0.00000000000E+00  0.18715067988E+04  0.18715067988E+04  0.00000000000E+00 0. -1.
         -2   -1    0    0    0  501 -0.00000000000E+00 -0.00000000000E+00 -0.21908723554E+03  0.21908723554E+03  0.00000000000E+00 0.  1.
    9000007    2    1    2  502    0 -0.23642141717E+03  0.29754642331E+03  0.13562129236E+04  0.14643613827E+04  0.40076402616E+03 0.  0.
    9000005    1    3    3    0    0 -0.49687732165E+02 -0.49595800358E+02  0.66465306019E+03  0.66835118355E+03  0.99999687468E+00 0.  0.
          4    1    3    3  502    0 -0.18673368501E+03  0.34714222366E+03  0.69155986339E+03  0.79601019920E+03  0.00000000000E+00 0.  1.
   -9000007    1    1    2    0  501  0.23642141717E+03 -0.29754642331E+03  0.29620663966E+03  0.62623265157E+03  0.40000000000E+03 0.  1.
<mgrwt>
<rscale>  2 0.55202782E+03</rscale>
<asrwt>0</asrwt>
<pdfrwt beam="1">  1        2 0.28792411E+00 0.55202782E+03</pdfrwt>
<pdfrwt beam="2">  1       -2 0.33705730E-01 0.55202782E+03</pdfrwt>
<totfact> 0.68222644E+01</totfact>
</mgrwt>
</event>
<event>
 6    1  0.9022793E-004  0.4336049E+03  0.7818608E-02  0.1032727E+00
          2   -1    0    0  502    0  0.00000000000E+00  0.00000000000E+00  0.25154206579E+04  0.25154206579E+04  0.00000000000E+00 0.  1.
         -2   -1    0    0    0  501 -0.00000000000E+00 -0.00000000000E+00 -0.87106843155E+02  0.87106843155E+02  0.00000000000E+00 0. -1.
    9000007    2    1    2  502    0  0.15079258197E+01 -0.16714086580E+03  0.17045880014E+04  0.17588940524E+04  0.40018706882E+03 0.  0.
    9000005    1    3    3    0    0  0.15315020008E+03 -0.22428394642E+03  0.10808322919E+04  0.11144315662E+04  0.99999687468E+00 0.  0.
          4    1    3    3  502    0 -0.15164227426E+03  0.57143080622E+02  0.62375570949E+03  0.64446248621E+03  0.00000000000E+00 0.  1.
   -9000007    1    1    2    0  501 -0.15079258197E+01  0.16714086580E+03  0.72372581337E+03  0.84363344872E+03  0.40000000000E+03 0. -1.
<mgrwt>
<rscale>  2 0.43360486E+03</rscale>
<asrwt>0</asrwt>
<pdfrwt beam="1">  1        2 0.38698774E+00 0.43360486E+03</pdfrwt>
<pdfrwt beam="2">  1       -2 0.13401055E-01 0.43360486E+03</pdfrwt>
<totfact> 0.15680208E+02</totfact>
</mgrwt>
</event>
<event>
 6    1  0.9022793E-004  0.4595914E+03  0.7818608E-02  0.1024900E+00
          1   -1    0    0  502    0  0.00000000000E+00  0.00000000000E+00  0.67752906528E+03  0.67752906528E+03  0.00000000000E+00 0.  1.
         -1   -1    0    0    0  501 -0.00000000000E+00 -0.00000000000E+00 -0.46625473254E+03  0.46625473254E+03  0.00000000000E+00 0. -1.
    9000007    2    1    2  502    0 -0.18104256978E+03  0.13511448553E+03 -0.22353364507E+03  0.51125687046E+03  0.40047966345E+03 0.  0.
    9000005    1    3    3    0    0  0.16419482792E+01  0.16346541245E+03 -0.27449754010E+03  0.31948949369E+03  0.99999687468E+00 0.  0.
          4    1    3    3  502    0 -0.18268451806E+03 -0.28350926919E+02  0.50963895031E+02  0.19176737677E+03  0.00000000000E+00 0.  1.
   -9000007    1    1    2    0  501  0.18104256978E+03 -0.13511448553E+03  0.43480797781E+03  0.63252692737E+03  0.40000000000E+03 0.  1.
<mgrwt>
<rscale>  2 0.45959137E+03</rscale>
<asrwt>0</asrwt>
<pdfrwt beam="1">  1        1 0.10423524E+00 0.45959137E+03</pdfrwt>
<pdfrwt beam="2">  1       -1 0.71731498E-01 0.45959137E+03</pdfrwt>
<totfact> 0.59199859E+01</totfact>
</mgrwt>
</event>
<event>
 6    1  0.9022793E-004  0.5161568E+03  0.7818608E-02  0.1009646E+00
         -2   -1    0    0    0  501 -0.00000000000E+00  0.00000000000E+00  0.12814498686E+03  0.12814498686E+03  0.00000000000E+00 0.  1.
          2   -1    0    0  502    0  0.00000000000E+00 -0.00000000000E+00 -0.22215796517E+04  0.22215796517E+04  0.00000000000E+00 0. -1.
    9000007    2    1    2  502    0 -0.31374939166E+03 -0.89347201195E+02 -0.13443102445E+04  0.14399944586E+04  0.39999050527E+03 0.  0.
    9000005    1    3    3    0    0 -0.22520534783E+02  0.12670617614E+03 -0.18549282312E+03  0.22576584547E+03  0.99999687468E+00 0.  0.
          4    1    3    3  502    0 -0.29122885687E+03 -0.21605337733E+03 -0.11588174213E+04  0.12142286131E+04  0.00000000000E+00 0.  1.
   -9000007    1    1    2    0  501  0.31374939166E+03  0.89347201195E+02 -0.74912442040E+03  0.90973017998E+03  0.40000000000E+03 0.  1.
<mgrwt>
<rscale>  2 0.51615676E+03</rscale>
<asrwt>0</asrwt>
<pdfrwt beam="1">  1        2 0.34178145E+00 0.51615676E+03</pdfrwt>
<pdfrwt beam="2">  1       -2 0.19714615E-01 0.51615676E+03</pdfrwt>
<totfact> 0.11673961E+02</totfact>
</mgrwt>
</event>
<event>
 6    1  0.9022793E-004  0.4080885E+03  0.7818608E-02  0.1041014E+00
          1   -1    0    0  502    0  0.00000000000E+00  0.00000000000E+00  0.37499706816E+04  0.37499706816E+04  0.00000000000E+00 0.  1.
         -1   -1    0    0    0  501 -0.00000000000E+00 -0.00000000000E+00 -0.44412880363E+02  0.44412880363E+02  0.00000000000E+00 0. -1.
    9000007    2    1    2  502    0  0.16187753294E+02  0.74405712586E+02  0.18422485601E+04  0.18871028848E+04  0.40184485459E+03 0.  0.
    9000005    1    3    3    0    0  0.13943011157E+03 -0.68787001864E+02  0.35047623159E+03  0.38341491435E+03  0.99999687468E+00 0.  0.
          4    1    3    3  502    0 -0.12324235828E+03  0.14319271445E+03  0.14917723285E+04  0.15036879704E+04  0.00000000000E+00 0.  1.
   -9000007    1    1    2    0  501 -0.16187753294E+02 -0.74405712586E+02  0.18633092412E+04  0.19072806772E+04  0.40000000000E+03 0.  1.
<mgrwt>
<rscale>  2 0.40808854E+03</rscale>
<asrwt>0</asrwt>
<pdfrwt beam="1">  1        1 0.57691832E+00 0.40808854E+03</pdfrwt>
<pdfrwt beam="2">  1       -1 0.68327538E-02 0.40808854E+03</pdfrwt>
<totfact> 0.20974436E+01</totfact>
</mgrwt>
</event>
<event>
 6    1  0.9022793E-004  0.5913342E+03  0.7818608E-02  0.9923550E-01
         -1   -1    0    0    0  501 -0.00000000000E+00  0.00000000000E+00  0.82745417446E+03  0.82745417446E+03  0.00000000000E+00 0. -1.
          1   -1    0    0  502    0  0.00000000000E+00 -0.00000000000E+00 -0.52682174441E+03  0.52682174441E+03  0.00000000000E+00 0.  1.
    9000007    2    1    2  502    0 -0.41690835731E+03 -0.12530936091E+03  0.45153335360E+03  0.74412339445E+03  0.40040260044E+03 0.  0.
    9000005    1    3    3    0    0 -0.16590340287E+03 -0.64980274042E+02  0.45212716124E+03  0.48596948981E+03  0.99999687468E+00 0.  0.
          4    1    3    3  502    0 -0.25100495444E+03 -0.60329086873E+02 -0.59380764910E+00  0.25815390464E+03  0.00000000000E+00 0.  1.
   -9000007    1    1    2    0  501  0.41690835731E+03  0.12530936091E+03 -0.15090092355E+03  0.61015252442E+03  0.40000000000E+03 0.  1.
<mgrwt>
<rscale>  2 0.59133417E+03</rscale>
<asrwt>0</asrwt>
<pdfrwt beam="1">  1        1 0.81049499E-01 0.59133417E+03</pdfrwt>
<pdfrwt beam="2">  1       -1 0.12730064E+00 0.59133417E+03</pdfrwt>
<totfact> 0.23023175E+01</totfact>
</mgrwt>
</event>
<event>
 6    1  0.9022793E-004  0.4087846E+03  0.7818608E-02  0.1040780E+00
          1   -1    0    0  502    0  0.00000000000E+00  0.00000000000E+00  0.24329811575E+04  0.24329811575E+04  0.00000000000E+00 0.  1.
         -1   -1    0    0    0  501 -0.00000000000E+00 -0.00000000000E+00 -0.68857639437E+02  0.68857639437E+02  0.00000000000E+00 0. -1.
    9000007    2    1    2  502    0  0.70176510931E+02  0.46434459423E+02  0.11191789687E+04  0.11915076050E+04  0.40005987922E+03 0.  0.
    9000005    1    3    3    0    0  0.21962970436E+03 -0.47640687245E+02  0.51164690440E+03  0.55882948821E+03  0.99999687468E+00 0.  0.
          4    1    3    3  502    0 -0.14945319343E+03  0.94075146669E+02  0.60753206431E+03  0.63267811675E+03  0.00000000000E+00 0.  1.
   -9000007    1    1    2    0  501 -0.70176510931E+02 -0.46434459423E+02  0.12449445494E+04  0.13103311920E+04  0.40000000000E+03 0.  1.
<mgrwt>
<rscale>  2 0.40878461E+03</rscale>
<asrwt>0</asrwt>
<pdfrwt beam="1">  1        1 0.37430473E+00 0.40878461E+03</pdfrwt>
<pdfrwt beam="2">  1       -1 0.10593485E-01 0.40878461E+03</pdfrwt>
<totfact> 0.94883980E+01</totfact>
</mgrwt>
</event>
<event>
 6    1  0.9022793E-004  0.4002285E+03  0.7818608E-02  0.1043701E+00
         -2   -1    0    0    0  501 -0.00000000000E+00  0.00000000000E+00  0.83200779277E+02  0.83200779277E+02  0.00000000000E+00 0. -1.
          2   -1    0    0  502    0  0.00000000000E+00 -0.00000000000E+00 -0.19257922166E+04  0.19257922166E+04  0.00000000000E+00 0.  1.
    9000007    2    1    2  502    0 -0.23304152171E+02  0.16399295267E+02 -0.93613258260E+03  0.10177918681E+04  0.39842697471E+03 0.  0.
    9000005    1    3    3    0    0 -0.20844064446E+03 -0.17618600213E+02 -0.54356728587E+03  0.58242966236E+03  0.99999687468E+00 0.  0.
          4    1    3    3  502    0  0.18513649229E+03  0.34017895480E+02 -0.39256529673E+03  0.43536220574E+03  0.00000000000E+00 0.  1.
   -9000007    1    1    2    0  501  0.23304152171E+02 -0.16399295267E+02 -0.90645885470E+03  0.99120112775E+03  0.40000000000E+03 0. -1.
<mgrwt>
<rscale>  2 0.40022846E+03</rscale>
<asrwt>0</asrwt>
<pdfrwt beam="1">  1        2 0.29627570E+00 0.40022846E+03</pdfrwt>
<pdfrwt beam="2">  1       -2 0.12800121E-01 0.40022846E+03</pdfrwt>
<totfact> 0.35533866E+02</totfact>
</mgrwt>
</event>
<event>
 6    1  0.9022793E-004  0.4556710E+03  0.7818608E-02  0.1026044E+00
         -2   -1    0    0    0  501 -0.00000000000E+00  0.00000000000E+00  0.24159946676E+03  0.24159946676E+03  0.00000000000E+00 0.  1.
          2   -1    0    0  502    0  0.00000000000E+00 -0.00000000000E+00 -0.88021199716E+03  0.88021199716E+03  0.00000000000E+00 0. -1.
    9000007    2    1    2  502    0 -0.31824082250E+02 -0.21551815022E+03 -0.23323669066E+03  0.51206527350E+03  0.40043806658E+03 0.  0.
    9000005    1    3    3    0    0  0.10846555574E+03  0.53731554283E+02  0.12197867373E+02  0.12166200997E+03  0.99999687468E+00 0.  0.
          4    1    3    3  502    0 -0.14028963799E+03 -0.26924970450E+03 -0.24543455803E+03  0.39040326353E+03  0.00000000000E+00 0.  1.
   -9000007    1    1    2    0  501  0.31824082250E+02  0.21551815022E+03 -0.40537583974E+03  0.60974619042E+03  0.40000000000E+03 0. -1.
<mgrwt>
<rscale>  2 0.45567104E+03</rscale>
<asrwt>0</asrwt>
<pdfrwt beam="1">  1        2 0.13541723E+00 0.45567104E+03</pdfrwt>
<pdfrwt beam="2">  1       -2 0.37169148E-01 0.45567104E+03</pdfrwt>
<totfact> 0.21248802E+02</totfact>
</mgrwt>
</event>
<event>
 6    1  0.9022793E-004  0.5489426E+03  0.7818608E-02  0.1001739E+00
          1   -1    0    0  502    0  0.00000000000E+00  0.00000000000E+00  0.78505836889E+03  0.78505836889E+03  0.00000000000E+00 0.  1.
         -1   -1    0    0    0  501 -0.00000000000E+00 -0.00000000000E+00 -0.71557392045E+03  0.71557392045E+03  0.00000000000E+00 0. -1.
    9000007    2    1    2  502    0  0.14323498363E+03  0.35029308878E+03  0.54555066147E+03  0.77271708289E+03  0.39527794953E+03 0.  0.
    9000005    1    3    3    0    0  0.11422993777E+03 -0.27464638088E+02  0.11675217306E+02  0.11806818251E+03  0.99999687468E+00 0.  0.
          4    1    3    3  502    0  0.29005045863E+02  0.37775772687E+03  0.53387544416E+03  0.65464890038E+03  0.00000000000E+00 0.  1.
   -9000007    1    1    2    0  501 -0.14323498363E+03 -0.35029308878E+03 -0.47606621303E+03  0.72791520644E+03  0.40000000000E+03 0. -1.
<mgrwt>
<rscale>  2 0.54894261E+03</rscale>
<asrwt>0</asrwt>
<pdfrwt beam="1">  1        1 0.12077821E+00 0.54894261E+03</pdfrwt>
<pdfrwt beam="2">  1       -1 0.11008830E+00 0.54894261E+03</pdfrwt>
<totfact> 0.18346743E+01</totfact>
</mgrwt>
</event>
<event>
 6    1  0.9022793E-004  0.4261106E+03  0.7818608E-02  0.1035096E+00
          1   -1    0    0  502    0  0.00000000000E+00  0.00000000000E+00  0.29007324072E+03  0.29007324072E+03  0.00000000000E+00 0.  1.
         -1   -1    0    0    0  501 -0.00000000000E+00 -0.00000000000E+00 -0.64050314816E+03  0.64050314816E+03  0.00000000000E+00 0. -1.
    9000007    2    1    2  502    0 -0.10757361700E+03  0.98827114570E+02 -0.24546830448E+03  0.49199250894E+03  0.40057840518E+03 0.  0.
    9000005    1    3    3    0    0  0.12124393226E+03  0.10700545019E+03 -0.20230596493E+03  0.25899606352E+03  0.99999687468E+00 0.  0.
          4    1    3    3  502    0 -0.22881754926E+03 -0.81783356208E+01 -0.43162339555E+02  0.23299644542E+03  0.00000000000E+00 0.  1.
   -9000007    1    1    2    0  501  0.10757361700E+03 -0.98827114570E+02 -0.10496160296E+03  0.43858387994E+03  0.40000000000E+03 0. -1.
<mgrwt>
<rscale>  2 0.42611062E+03</rscale>
<asrwt>0</asrwt>
<pdfrwt beam="1">  1        1 0.44626653E-01 0.42611062E+03</pdfrwt>
<pdfrwt beam="2">  1       -1 0.98538945E-01 0.42611062E+03</pdfrwt>
<totfact> 0.94267601E+01</totfact>
</mgrwt>
</event>
<event>
 6    1  0.9022793E-004  0.4421673E+03  0.7818608E-02  0.1030084E+00
          1   -1    0    0  502    0  0.00000000000E+00  0.00000000000E+00  0.15842544603E+04  0.15842544603E+04  0.00000000000E+00 0. -1.
         -1   -1    0    0    0  501 -0.00000000000E+00 -0.00000000000E+00 -0.38697754814E+03  0.38697754814E+03  0.00000000000E+00 0.  1.
    9000007    2    1    2  502    0 -0.10447704528E+03  0.15851854206E+03 -0.21503357299E+03  0.49114265720E+03  0.39867040402E+03 0.  0.
    9000005    1    3    3    0    0  0.45150695579E+02 -0.11564210351E+03 -0.28604477955E+02  0.12740053991E+03  0.99999687468E+00 0.  0.
          4    1    3    3  502    0 -0.14962774086E+03  0.27416064558E+03 -0.18642909503E+03  0.36374211729E+03  0.00000000000E+00 0.  1.
   -9000007    1    1    2    0  501  0.10447704528E+03 -0.15851854206E+03  0.14123104852E+04  0.14800893513E+04  0.40000000000E+03 0. -1.
<mgrwt>
<rscale>  2 0.44216728E+03</rscale>
<asrwt>0</asrwt>
<pdfrwt beam="1">  1        1 0.24373145E+00 0.44216728E+03</pdfrwt>
<pdfrwt beam="2">  1       -1 0.59535008E-01 0.44216728E+03</pdfrwt>
<totfact> 0.17927409E+01</totfact>
</mgrwt>
</event>
<event>
 6    1  0.9022793E-004  0.4337272E+03  0.7818608E-02  0.1032689E+00
         -2   -1    0    0    0  501 -0.00000000000E+00  0.00000000000E+00  0.96402732038E+03  0.96402732038E+03  0.00000000000E+00 0.  1.
          2   -1    0    0  502    0  0.00000000000E+00 -0.00000000000E+00 -0.20030956074E+03  0.20030956074E+03  0.00000000000E+00 0. -1.
    9000007    2    1    2  502    0 -0.74841254495E+02 -0.14943859190E+03  0.28851003833E+03  0.52109860139E+03  0.40046548419E+03 0.  0.
    9000005    1    3    3    0    0 -0.21532532810E+03 -0.10425431125E+03  0.55990247797E+02  0.24570280051E+03  0.99999687468E+00 0.  0.
          4    1    3    3  502    0  0.14048407360E+03 -0.45184280649E+02  0.23251979053E+03  0.27539580088E+03  0.00000000000E+00 0.  1.
   -9000007    1    1    2    0  501  0.74841254495E+02  0.14943859190E+03  0.47520772131E+03  0.64323827974E+03  0.40000000000E+03 0. -1.
<mgrwt>
<rscale>  2 0.43372724E+03</rscale>
<asrwt>0</asrwt>
<pdfrwt beam="1">  1        2 0.30816856E-01 0.43372724E+03</pdfrwt>
<pdfrwt beam="2">  1       -2 0.14831189E+00 0.43372724E+03</pdfrwt>
<totfact> 0.55028302E+01</totfact>
</mgrwt>
</event>
<event>
 6    1  0.9022793E-004  0.4426284E+03  0.7818608E-02  0.1029943E+00
         -1   -1    0    0    0  501 -0.00000000000E+00  0.00000000000E+00  0.11581909402E+03  0.11581909402E+03  0.00000000000E+00 0. -1.
          1   -1    0    0  502    0  0.00000000000E+00 -0.00000000000E+00 -0.19329216548E+04  0.19329216548E+04  0.00000000000E+00 0.  1.
    9000007    2    1    2  502    0  0.13519009966E+03 -0.13129692581E+03 -0.54742748621E+03  0.70427429675E+03  0.40101145449E+03 0.  0.
    9000005    1    3    3    0    0  0.20914367925E+03 -0.71788944907E+02 -0.56590274266E+03  0.60757028015E+03  0.99999687468E+00 0.  0.
          4    1    3    3  502    0 -0.73953579597E+02 -0.59507980901E+02  0.18475256445E+02  0.96704016601E+02  0.00000000000E+00 0.  1.
   -9000007    1    1    2    0  501 -0.13519009966E+03  0.13129692581E+03 -0.12696750746E+04  0.13444664521E+04  0.40000000000E+03 0.  1.
<mgrwt>
<rscale>  2 0.44262842E+03</rscale>
<asrwt>0</asrwt>
<pdfrwt beam="1">  1        1 0.29737256E+00 0.44262842E+03</pdfrwt>
<pdfrwt beam="2">  1       -1 0.17818322E-01 0.44262842E+03</pdfrwt>
<totfact> 0.87983528E+01</totfact>
</mgrwt>
</event>
<event>
 6    1  0.9022793E-004  0.4275838E+03  0.7818608E-02  0.1034626E+00
          2   -1    0    0  502    0  0.00000000000E+00  0.00000000000E+00  0.10282303498E+04  0.10282303498E+04  0.00000000000E+00 0.  1.
         -2   -1    0    0    0  501 -0.00000000000E+00 -0.00000000000E+00 -0.18277124750E+03  0.18277124750E+03  0.00000000000E+00 0. -1.
    9000007    2    1    2  502    0  0.55617581052E+02 -0.13997671207E+03  0.52266497175E+03  0.67538714083E+03  0.40035274704E+03 0.  0.
    9000005    1    3    3    0    0  0.12396654273E+03 -0.48852921422E+02 -0.71740277633E+01  0.13344204104E+03  0.99999687468E+00 0.  0.
          4    1    3    3  502    0 -0.68348961678E+02 -0.91123790649E+02  0.52983899952E+03  0.54194509980E+03  0.00000000000E+00 0.  1.
   -9000007    1    1    2    0  501 -0.55617581052E+02  0.13997671207E+03  0.32279413051E+03  0.53561445643E+03  0.40000000000E+03 0. -1.
<mgrwt>
<rscale>  2 0.42758380E+03</rscale>
<asrwt>0</asrwt>
<pdfrwt beam="1">  1        2 0.15818928E+00 0.42758380E+03</pdfrwt>
<pdfrwt beam="2">  1       -2 0.28118654E-01 0.42758380E+03</pdfrwt>
<totfact> 0.28786079E+02</totfact>
</mgrwt>
</event>
<event>
 6    1  0.9022793E-004  0.4042183E+03  0.7818608E-02  0.1042329E+00
          2   -1    0    0  502    0  0.00000000000E+00  0.00000000000E+00  0.11229175419E+04  0.11229175419E+04  0.00000000000E+00 0. -1.
         -2   -1    0    0    0  501 -0.00000000000E+00 -0.00000000000E+00 -0.15706781315E+03  0.15706781315E+03  0.00000000000E+00 0.  1.
    9000007    2    1    2  502    0  0.38669892244E+02 -0.43941797452E+02  0.65650849539E+03  0.77094877407E+03  0.39991544804E+03 0.  0.
    9000005    1    3    3    0    0 -0.54463929410E+02  0.13722901213E+03  0.47736224925E+03  0.49967373192E+03  0.99999687468E+00 0.  0.
          4    1    3    3  502    0  0.93133821653E+02 -0.18117080958E+03  0.17914624615E+03  0.27127504214E+03  0.00000000000E+00 0.  1.
   -9000007    1    1    2    0  501 -0.38669892244E+02  0.43941797452E+02  0.30934123339E+03  0.50903658101E+03  0.40000000000E+03 0.  1.
<mgrwt>
<rscale>  2 0.40421828E+03</rscale>
<asrwt>0</asrwt>
<pdfrwt beam="1">  1        2 0.17275654E+00 0.40421828E+03</pdfrwt>
<pdfrwt beam="2">  1       -2 0.24164280E-01 0.40421828E+03</pdfrwt>
<totfact> 0.33197128E+02</totfact>
</mgrwt>
</event>
<event>
 6    1  0.9022793E-004  0.4837640E+03  0.7818608E-02  0.1018106E+00
         -1   -1    0    0    0  501 -0.00000000000E+00  0.00000000000E+00  0.52884920147E+03  0.52884920147E+03  0.00000000000E+00 0.  1.
          1   -1    0    0  502    0  0.00000000000E+00 -0.00000000000E+00 -0.50858263192E+03  0.50858263192E+03  0.00000000000E+00 0. -1.
    9000007    2    1    2  502    0  0.13828883038E+03  0.23420558252E+03 -0.17681281167E+03  0.51511359899E+03  0.40012897170E+03 0.  0.
    9000005    1    3    3    0    0 -0.66229101953E+02 -0.83102652006E+02 -0.36123730473E+02  0.11224200913E+03  0.99999687468E+00 0.  0.
          4    1    3    3  502    0  0.20451793234E+03  0.31730823453E+03 -0.14068908120E+03  0.40287158986E+03  0.00000000000E+00 0.  1.
   -9000007    1    1    2    0  501 -0.13828883038E+03 -0.23420558252E+03  0.19707938122E+03  0.52231823441E+03  0.40000000000E+03 0.  1.
<mgrwt>
<rscale>  2 0.48376404E+03</rscale>
<asrwt>0</asrwt>
<pdfrwt beam="1">  1        1 0.78243482E-01 0.48376404E+03</pdfrwt>
<pdfrwt beam="2">  1       -1 0.81361415E-01 0.48376404E+03</pdfrwt>
<totfact> 0.68137507E+01</totfact>
</mgrwt>
</event>
<event>
 6    1  0.9022793E-004  0.4228175E+03  0.7818608E-02  0.1036153E+00
         -1   -1    0    0    0  501 -0.00000000000E+00  0.00000000000E+00  0.10426423319E+04  0.10426423319E+04  0.00000000000E+00 0. -1.
          1   -1    0    0  502    0  0.00000000000E+00 -0.00000000000E+00 -0.17731922971E+03  0.17731922971E+03  0.00000000000E+00 0.  1.
    9000007    2    1    2  502    0 -0.22689152026E+02 -0.13511911159E+03  0.32181262970E+03  0.53135746227E+03  0.40000676511E+03 0.  0.
    9000005    1    3    3    0    0 -0.20074837127E+03 -0.71044708198E+02  0.87639972753E+02  0.23028031602E+03  0.99999687468E+00 0.  0.
          4    1    3    3  502    0  0.17805921924E+03 -0.64074403395E+02  0.23417265695E+03  0.30107714624E+03  0.00000000000E+00 0.  1.
   -9000007    1    1    2    0  501  0.22689152026E+02  0.13511911159E+03  0.54351047250E+03  0.68860409936E+03  0.40000000000E+03 0.  1.
<mgrwt>
<rscale>  2 0.42281755E+03</rscale>
<asrwt>0</asrwt>
<pdfrwt beam="1">  1        1 0.27279882E-01 0.42281755E+03</pdfrwt>
<pdfrwt beam="2">  1       -1 0.16040651E+00 0.42281755E+03</pdfrwt>
<totfact> 0.53168396E+01</totfact>
</mgrwt>
</event>
<event>
 6    1  0.9022793E-004  0.4834872E+03  0.7818608E-02  0.1018181E+00
          1   -1    0    0  502    0  0.00000000000E+00  0.00000000000E+00  0.18572783344E+04  0.18572783344E+04  0.00000000000E+00 0.  1.
         -1   -1    0    0    0  501 -0.00000000000E+00 -0.00000000000E+00 -0.12667622078E+03  0.12667622078E+03  0.00000000000E+00 0. -1.
    9000007    2    1    2  502    0 -0.20683424265E+03 -0.17807519757E+03  0.78442220136E+03  0.92105869655E+03  0.39817050693E+03 0.  0.
    9000005    1    3    3    0    0  0.11870496892E+03 -0.33452338817E+02  0.15800402768E+03  0.20044001939E+03  0.99999687468E+00 0.  0.
          4    1    3    3  502    0 -0.32553921158E+03 -0.14462285875E+03  0.62641817368E+03  0.72061867715E+03  0.00000000000E+00 0.  1.
   -9000007    1    1    2    0  501  0.20683424265E+03  0.17807519757E+03  0.94617991223E+03  0.10628958586E+04  0.40000000000E+03 0.  1.
<mgrwt>
<rscale>  2 0.48348724E+03</rscale>
<asrwt>0</asrwt>
<pdfrwt beam="1">  1        1 0.28573511E+00 0.48348724E+03</pdfrwt>
<pdfrwt beam="2">  1       -1 0.19488651E-01 0.48348724E+03</pdfrwt>
<totfact> 0.84624365E+01</totfact>
</mgrwt>
</event>
<event>
 6    1  0.9022793E-004  0.4333168E+03  0.7818608E-02  0.1032817E+00
         -1   -1    0    0    0  501 -0.00000000000E+00  0.00000000000E+00  0.15350420053E+04  0.15350420053E+04  0.00000000000E+00 0. -1.
          1   -1    0    0  502    0  0.00000000000E+00 -0.00000000000E+00 -0.20280873048E+03  0.20280873048E+03  0.00000000000E+00 0.  1.
    9000007    2    1    2  502    0 -0.92311852691E+02 -0.13797243748E+03  0.11892801762E+03  0.44956989730E+03  0.40051385436E+03 0.  0.
    9000005    1    3    3    0    0  0.62652683702E+02 -0.21549725855E+03  0.15478513280E+03  0.27262403516E+03  0.99999687468E+00 0.  0.
          4    1    3    3  502    0 -0.15496453639E+03  0.77524821063E+02 -0.35857115177E+02  0.17694586214E+03  0.00000000000E+00 0.  1.
   -9000007    1    1    2    0  501  0.92311852691E+02  0.13797243748E+03  0.12133052572E+04  0.12882808385E+04  0.40000000000E+03 0. -1.
<mgrwt>
<rscale>  2 0.43331678E+03</rscale>
<asrwt>0</asrwt>
<pdfrwt beam="1">  1        1 0.31201344E-01 0.43331678E+03</pdfrwt>
<pdfrwt beam="2">  1       -1 0.23616030E+00 0.43331678E+03</pdfrwt>
<totfact> 0.13563976E+01</totfact>
</mgrwt>
</event>
<event>
 6    1  0.9022793E-004  0.4148042E+03  0.7818608E-02  0.1038771E+00
          1   -1    0    0  502    0  0.00000000000E+00  0.00000000000E+00  0.20513734815E+04  0.20513734815E+04  0.00000000000E+00 0. -1.
         -1   -1    0    0    0  501 -0.00000000000E+00 -0.00000000000E+00 -0.84011291553E+02  0.84011291553E+02  0.00000000000E+00 0.  1.
    9000007    2    1    2  502    0 -0.25261157088E+02  0.10402601051E+03  0.10280947157E+04  0.11088941861E+04  0.40150720367E+03 0.  0.
    9000005    1    3    3    0    0 -0.20370660904E+03  0.10120187297E+03  0.69093693616E+03  0.72741532250E+03  0.99999687468E+00 0.  0.
          4    1    3    3  502    0  0.17844545195E+03  0.28241375365E+01  0.33715777957E+03  0.38147886363E+03  0.00000000000E+00 0.  1.
   -9000007    1    1    2    0  501  0.25261157088E+02 -0.10402601051E+03  0.93926747418E+03  0.10264905869E+04  0.40000000000E+03 0. -1.
<mgrwt>
<rscale>  2 0.41480416E+03</rscale>
<asrwt>0</asrwt>
<pdfrwt beam="1">  1        1 0.31559588E+00 0.41480416E+03</pdfrwt>
<pdfrwt beam="2">  1       -1 0.12924816E-01 0.41480416E+03</pdfrwt>
<totfact> 0.12391328E+02</totfact>
</mgrwt>
</event>
<event>
 6    1  0.9022793E-004  0.4024588E+03  0.7818608E-02  0.1042932E+00
          1   -1    0    0  502    0  0.00000000000E+00  0.00000000000E+00  0.11451264880E+04  0.11451264880E+04  0.00000000000E+00 0. -1.
         -1   -1    0    0    0  501 -0.00000000000E+00 -0.00000000000E+00 -0.14514354452E+03  0.14514354452E+03  0.00000000000E+00 0.  1.
    9000007    2    1    2  502    0  0.97507876659E+01  0.41428922848E+02  0.39726014670E+03  0.56564171174E+03  0.40040415632E+03 0.  0.
    9000005    1    3    3    0    0  0.96924893710E+02 -0.11782436388E+02  0.44307398687E+03  0.45370565201E+03  0.99999687468E+00 0.  0.
          4    1    3    3  502    0 -0.87174106044E+02  0.53211359236E+02 -0.45813840175E+02  0.11193605973E+03  0.00000000000E+00 0.  1.
   -9000007    1    1    2    0  501 -0.97507876659E+01 -0.41428922848E+02  0.60272279676E+03  0.72462832076E+03  0.40000000000E+03 0.  1.
<mgrwt>
<rscale>  2 0.40245881E+03</rscale>
<asrwt>0</asrwt>
<pdfrwt beam="1">  1        1 0.17617330E+00 0.40245881E+03</pdfrwt>
<pdfrwt beam="2">  1       -1 0.22329777E-01 0.40245881E+03</pdfrwt>
<totfact> 0.20834649E+02</totfact>
</mgrwt>
</event>
<event>
 6    1  0.9022793E-004  0.5718020E+03  0.7818608E-02  0.9965699E-01
          2   -1    0    0  502    0  0.00000000000E+00  0.00000000000E+00  0.38835295223E+03  0.38835295223E+03  0.00000000000E+00 0. -1.
         -2   -1    0    0    0  501 -0.00000000000E+00 -0.00000000000E+00 -0.84323933512E+03  0.84323933512E+03  0.00000000000E+00 0.  1.
    9000007    2    1    2  502    0 -0.40812212857E+03 -0.24490714537E+02 -0.25183691382E+03  0.62463878516E+03  0.39948506085E+03 0.  0.
    9000005    1    3    3    0    0 -0.22311845737E+03 -0.17874833348E+03 -0.14158887380E+02  0.28624165809E+03  0.99999687468E+00 0.  0.
          4    1    3    3  502    0 -0.18500367120E+03  0.15425761894E+03 -0.23767802644E+03  0.33839712707E+03  0.00000000000E+00 0.  1.
   -9000007    1    1    2    0  501  0.40812212857E+03  0.24490714537E+02 -0.20304946907E+03  0.60695350218E+03  0.40000000000E+03 0.  1.
<mgrwt>
<rscale>  2 0.57180203E+03</rscale>
<asrwt>0</asrwt>
<pdfrwt beam="1">  1        2 0.59746608E-01 0.57180203E+03</pdfrwt>
<pdfrwt beam="2">  1       -2 0.12972913E+00 0.57180203E+03</pdfrwt>
<totfact> 0.36823957E+01</totfact>
</mgrwt>
</event>
<event>
 6    1  0.9022793E-004  0.5254855E+03  0.7818608E-02  0.1007333E+00
          1   -1    0    0  502    0  0.00000000000E+00  0.00000000000E+00  0.75183180965E+03  0.75183180965E+03  0.00000000000E+00 0. -1.
         -1   -1    0    0    0  501 -0.00000000000E+00 -0.00000000000E+00 -0.48161890479E+03  0.48161890479E+03  0.00000000000E+00 0.  1.
    9000007    2    1    2  502    0 -0.11000416979E+03  0.32301117006E+03 -0.16544077341E+03  0.55063942225E+03  0.39924427418E+03 0.  0.
    9000005    1    3    3    0    0 -0.11356254448E+03  0.83478530243E+02  0.11492801915E+03  0.18186414187E+03  0.99999687468E+00 0.  0.
          4    1    3    3  502    0  0.35583746858E+01  0.23953263981E+03 -0.28036879257E+03  0.36877528037E+03  0.00000000000E+00 0.  1.
   -9000007    1    1    2    0  501  0.11000416979E+03 -0.32301117006E+03  0.43565367827E+03  0.68281129219E+03  0.40000000000E+03 0. -1.
<mgrwt>
<rscale>  2 0.52548546E+03</rscale>
<asrwt>0</asrwt>
<pdfrwt beam="1">  1        1 0.11566643E+00 0.52548546E+03</pdfrwt>
<pdfrwt beam="2">  1       -1 0.74095216E-01 0.52548546E+03</pdfrwt>
<totfact> 0.46937329E+01</totfact>
</mgrwt>
</event>
<event>
 6    1  0.9022793E-004  0.4943071E+03  0.7818608E-02  0.1015276E+00
          1   -1    0    0  502    0  0.00000000000E+00  0.00000000000E+00  0.30001183758E+03  0.30001183758E+03  0.00000000000E+00 0.  1.
         -1   -1    0    0    0  501 -0.00000000000E+00 -0.00000000000E+00 -0.86045619733E+03  0.86045619733E+03  0.00000000000E+00 0. -1.
    9000007    2    1    2  502    0  0.26934261577E+03  0.10861827039E+03 -0.14602782323E+03  0.51542195976E+03  0.39999037253E+03 0.  0.
    9000005    1    3    3    0    0 -0.50954487219E+02  0.15926738810E+03 -0.23958953907E+02  0.16893043582E+03  0.99999687468E+00 0.  0.
          4    1    3    3  502    0  0.32029710299E+03 -0.50649117709E+02 -0.12206886932E+03  0.34649152394E+03  0.00000000000E+00 0.  1.
   -9000007    1    1    2    0  501 -0.26934261577E+03 -0.10861827039E+03 -0.41441653652E+03  0.64504607515E+03  0.40000000000E+03 0. -1.
<mgrwt>
<rscale>  2 0.49430711E+03</rscale>
<asrwt>0</asrwt>
<pdfrwt beam="1">  1        1 0.46155669E-01 0.49430711E+03</pdfrwt>
<pdfrwt beam="2">  1       -1 0.13237787E+00 0.49430711E+03</pdfrwt>
<totfact> 0.44464145E+01</totfact>
</mgrwt>
</event>
<event>
 6    1  0.9022793E-004  0.6630265E+03  0.7818608E-02  0.9782638E-01
         -1   -1    0    0    0  501 -0.00000000000E+00  0.00000000000E+00  0.58133537378E+03  0.58133537378E+03  0.00000000000E+00 0. -1.
          1   -1    0    0  502    0  0.00000000000E+00 -0.00000000000E+00 -0.87533105950E+03  0.87533105950E+03  0.00000000000E+00 0.  1.
    9000007    2    1    2  502    0 -0.18610193142E+03 -0.49471343156E+03 -0.41572704708E+03  0.78272739109E+03  0.40057194465E+03 0.  0.
    9000005    1    3    3    0    0  0.50814769868E+02 -0.30780243508E+03 -0.35910521509E+03  0.47569111341E+03  0.99999687468E+00 0.  0.
          4    1    3    3  502    0 -0.23691670129E+03 -0.18691099648E+03 -0.56621831990E+02  0.30703627768E+03  0.00000000000E+00 0.  1.
   -9000007    1    1    2    0  501  0.18610193142E+03  0.49471343156E+03  0.12173136137E+03  0.67393904219E+03  0.40000000000E+03 0. -1.
<mgrwt>
<rscale>  2 0.66302654E+03</rscale>
<asrwt>0</asrwt>
<pdfrwt beam="1">  1        1 0.13466632E+00 0.66302654E+03</pdfrwt>
<pdfrwt beam="2">  1       -1 0.89436212E-01 0.66302654E+03</pdfrwt>
<totfact> 0.24247022E+01</totfact>
</mgrwt>
</event>
<event>
 6    1  0.9022793E-004  0.5678702E+03  0.7818608E-02  0.9974403E-01
         -2   -1    0    0    0  501 -0.00000000000E+00  0.00000000000E+00  0.12841878634E+03  0.12841878634E+03  0.00000000000E+00 0. -1.
          2   -1    0    0  502    0  0.00000000000E+00 -0.00000000000E+00 -0.25248450773E+04  0.25248450773E+04  0.00000000000E+00 0.  1.
    9000007    2    1    2  502    0  0.18678244764E+03 -0.35748849381E+03 -0.11000594104E+04  0.12379007318E+04  0.39947691975E+03 0.  0.
    9000005    1    3    3    0    0  0.16644485419E+03  0.27165354176E+02 -0.21975084792E+03  0.27700772752E+03  0.99999687468E+00 0.  0.
          4    1    3    3  502    0  0.20337593451E+02 -0.38465384798E+03 -0.88030856247E+03  0.96089300426E+03  0.00000000000E+00 0.  1.
   -9000007    1    1    2    0  501 -0.18678244764E+03  0.35748849381E+03 -0.12963668806E+04  0.14153631318E+04  0.40000000000E+03 0. -1.
<mgrwt>
<rscale>  2 0.56787018E+03</rscale>
<asrwt>0</asrwt>
<pdfrwt beam="1">  1        2 0.38843769E+00 0.56787018E+03</pdfrwt>
<pdfrwt beam="2">  1       -2 0.19756737E-01 0.56787018E+03</pdfrwt>
<totfact> 0.78346677E+01</totfact>
</mgrwt>
</event>
<event>
 6    1  0.9022793E-004  0.4022379E+03  0.7818608E-02  0.1043008E+00
         -1   -1    0    0    0  501 -0.00000000000E+00  0.00000000000E+00  0.61492691312E+02  0.61492691312E+02  0.00000000000E+00 0. -1.
          1   -1    0    0  502    0  0.00000000000E+00 -0.00000000000E+00 -0.26711813847E+04  0.26711813847E+04  0.00000000000E+00 0.  1.
    9000007    2    1    2  502    0 -0.21312313492E+01  0.37628766031E+02 -0.11390380105E+04  0.12081302435E+04  0.40093718923E+03 0.  0.
    9000005    1    3    3    0    0  0.52023320074E+02  0.68730335906E+02 -0.21495891438E+02  0.88844573541E+02  0.99999687468E+00 0.  0.
          4    1    3    3  502    0 -0.54154551423E+02 -0.31101569874E+02 -0.11175421191E+04  0.11192856700E+04  0.00000000000E+00 0.  1.
   -9000007    1    1    2    0  501  0.21312313492E+01 -0.37628766031E+02 -0.14706506828E+04  0.15245438325E+04  0.40000000000E+03 0.  1.
<mgrwt>
<rscale>  2 0.40223792E+03</rscale>
<asrwt>0</asrwt>
<pdfrwt beam="1">  1        1 0.41095093E+00 0.40223792E+03</pdfrwt>
<pdfrwt beam="2">  1       -1 0.94604152E-02 0.40223792E+03</pdfrwt>
<totfact> 0.78311448E+01</totfact>
</mgrwt>
</event>
<event>
 6    1  0.9022793E-004  0.8378780E+03  0.7818608E-02  0.9506753E-01
          1   -1    0    0  502    0  0.00000000000E+00  0.00000000000E+00  0.22357139828E+04  0.22357139828E+04  0.00000000000E+00 0. -1.
         -1   -1    0    0    0  501 -0.00000000000E+00 -0.00000000000E+00 -0.79709024350E+03  0.79709024350E+03  0.00000000000E+00 0.  1.
    9000007    2    1    2  502    0  0.34685427023E+03 -0.64913889071E+03  0.18998925414E+04  0.20765312046E+04  0.40087528071E+03 0.  0.
    9000005    1    3    3    0    0  0.12710650905E+03 -0.47295021925E+03  0.15602063528E+04  0.16352623147E+04  0.99999687468E+00 0.  0.
          4    1    3    3  502    0  0.21974776119E+03 -0.17618867146E+03  0.33968618861E+03  0.44126888994E+03  0.00000000000E+00 0.  1.
   -9000007    1    1    2    0  501 -0.34685427023E+03  0.64913889071E+03 -0.46126880209E+03  0.95627302168E+03  0.40000000000E+03 0.  1.
<mgrwt>
<rscale>  2 0.83787803E+03</rscale>
<asrwt>0</asrwt>
<pdfrwt beam="1">  1        1 0.34395600E+00 0.83787803E+03</pdfrwt>
<pdfrwt beam="2">  1       -1 0.12262927E+00 0.83787803E+03</pdfrwt>
<totfact> 0.12603568E+00</totfact>
</mgrwt>
</event>
<event>
 6    1  0.9022793E-004  0.4069566E+03  0.7818608E-02  0.1041397E+00
         -1   -1    0    0    0  501 -0.00000000000E+00  0.00000000000E+00  0.25449610138E+03  0.25449610138E+03  0.00000000000E+00 0. -1.
          1   -1    0    0  502    0  0.00000000000E+00 -0.00000000000E+00 -0.67653136738E+03  0.67653136738E+03  0.00000000000E+00 0.  1.
    9000007    2    1    2  502    0 -0.30895452523E+02 -0.68342645969E+02 -0.30188284005E+03  0.50669051337E+03  0.39997097517E+03 0.  0.
    9000005    1    3    3    0    0  0.17547659232E+03  0.28811337347E+02 -0.15009846292E+03  0.23270727573E+03  0.99999687468E+00 0.  0.
          4    1    3    3  502    0 -0.20637204484E+03 -0.97153983317E+02 -0.15178437713E+03  0.27398323764E+03  0.00000000000E+00 0.  1.
   -9000007    1    1    2    0  501  0.30895452523E+02  0.68342645969E+02 -0.12015242595E+03  0.42433695539E+03  0.40000000000E+03 0. -1.
<mgrwt>
<rscale>  2 0.40695655E+03</rscale>
<asrwt>0</asrwt>
<pdfrwt beam="1">  1        1 0.10408175E+00 0.40695655E+03</pdfrwt>
<pdfrwt beam="2">  1       -1 0.39153246E-01 0.40695655E+03</pdfrwt>
<totfact> 0.18898013E+02</totfact>
</mgrwt>
</event>
<event>
 6    1  0.9022793E-004  0.7979914E+03  0.7818608E-02  0.9562929E-01
          4   -1    0    0  502    0  0.00000000000E+00  0.00000000000E+00  0.13220471424E+04  0.13220471424E+04  0.00000000000E+00 0.  1.
         -4   -1    0    0    0  501 -0.00000000000E+00 -0.00000000000E+00 -0.86460422813E+03  0.86460422813E+03  0.00000000000E+00 0. -1.
    9000007    2    1    2  502    0  0.49918367018E+01 -0.69042203585E+03  0.95634709741E+03  0.12455812935E+04  0.40020679905E+03 0.  0.
    9000005    1    3    3    0    0 -0.36650766683E+02 -0.21435452895E+03  0.53333413827E+02  0.22391202693E+03  0.99999687468E+00 0.  0.
          4    1    3    3  502    0  0.41642603385E+02 -0.47606750690E+03  0.90301368359E+03  0.10216692666E+04  0.00000000000E+00 0.  1.
   -9000007    1    1    2    0  501 -0.49918367018E+01  0.69042203585E+03 -0.49890418310E+03  0.94107007706E+03  0.40000000000E+03 0. -1.
<mgrwt>
<rscale>  2 0.79799138E+03</rscale>
<asrwt>0</asrwt>
<pdfrwt beam="1">  1        4 0.20339187E+00 0.79799138E+03</pdfrwt>
<pdfrwt beam="2">  1       -4 0.13301604E+00 0.79799138E+03</pdfrwt>
<totfact> 0.99352427E-02</totfact>
</mgrwt>
</event>
<event>
 6    1  0.9022793E-004  0.4879850E+03  0.7818608E-02  0.1016963E+00
         -2   -1    0    0    0  501 -0.00000000000E+00  0.00000000000E+00  0.27189413101E+03  0.27189413101E+03  0.00000000000E+00 0.  1.
          2   -1    0    0  502    0  0.00000000000E+00 -0.00000000000E+00 -0.88527173745E+03  0.88527173745E+03  0.00000000000E+00 0. -1.
    9000007    2    1    2  502    0  0.13119787328E+03  0.24683904911E+03 -0.36647508873E+03  0.61026253937E+03  0.39996747141E+03 0.  0.
    9000005    1    3    3    0    0  0.17388577366E+03  0.16990297985E+03 -0.10247105843E+02  0.24332958721E+03  0.99999687468E+00 0.  0.
          4    1    3    3  502    0 -0.42687900372E+02  0.76936069259E+02 -0.35622798289E+03  0.36693295216E+03  0.00000000000E+00 0.  1.
   -9000007    1    1    2    0  501 -0.13119787328E+03 -0.24683904911E+03 -0.24690251771E+03  0.54690332909E+03  0.40000000000E+03 0.  1.
<mgrwt>
<rscale>  2 0.48798503E+03</rscale>
<asrwt>0</asrwt>
<pdfrwt beam="1">  1        2 0.13619565E+00 0.48798503E+03</pdfrwt>
<pdfrwt beam="2">  1       -2 0.41829866E-01 0.48798503E+03</pdfrwt>
<totfact> 0.16736794E+02</totfact>
</mgrwt>
</event>
<event>
 6    1  0.9022793E-004  0.5216326E+03  0.7818608E-02  0.1008282E+00
         -2   -1    0    0    0  501 -0.00000000000E+00  0.00000000000E+00  0.85861866861E+03  0.85861866861E+03  0.00000000000E+00 0.  1.
          2   -1    0    0  502    0  0.00000000000E+00 -0.00000000000E+00 -0.13499215429E+04  0.13499215429E+04  0.00000000000E+00 0. -1.
    9000007    2    1    2  502    0 -0.17600679867E+02 -0.33296000452E+03 -0.12117437843E+04  0.13196041883E+04  0.40231836431E+03 0.  0.
    9000005    1    3    3    0    0 -0.17254312612E+03 -0.32320477843E+03 -0.81491377385E+03  0.89348638377E+03  0.99999687468E+00 0.  0.
          4    1    3    3  502    0  0.15494244625E+03 -0.97552260891E+01 -0.39683001049E+03  0.42611780450E+03  0.00000000000E+00 0.  1.
   -9000007    1    1    2    0  501  0.17600679867E+02  0.33296000452E+03  0.72044091005E+03  0.88893602325E+03  0.40000000000E+03 0.  1.
<mgrwt>
<rscale>  2 0.52163262E+03</rscale>
<asrwt>0</asrwt>
<pdfrwt beam="1">  1        2 0.20768024E+00 0.52163262E+03</pdfrwt>
<pdfrwt beam="2">  1       -2 0.13209518E+00 0.52163262E+03</pdfrwt>
<totfact> 0.68534373E+00</totfact>
</mgrwt>
</event>
<event>
 6    1  0.9022793E-004  0.4164677E+03  0.7818608E-02  0.1038222E+00
          2   -1    0    0  502    0  0.00000000000E+00  0.00000000000E+00  0.14846306106E+04  0.14846306106E+04  0.00000000000E+00 0. -1.
         -2   -1    0    0    0  501 -0.00000000000E+00 -0.00000000000E+00 -0.11697819582E+03  0.11697819582E+03  0.00000000000E+00 0.  1.
    9000007    2    1    2  502    0  0.10731580329E+03 -0.39638008790E+02  0.71328358211E+03  0.82618219962E+03  0.40089363312E+03 0.  0.
    9000005    1    3    3    0    0 -0.55914074714E+01 -0.16478958464E+03  0.10618781215E+03  0.19612170325E+03  0.99999687468E+00 0.  0.
          4    1    3    3  502    0  0.11290721076E+03  0.12515157585E+03  0.60709576996E+03  0.63006049637E+03  0.00000000000E+00 0.  1.
   -9000007    1    1    2    0  501 -0.10731580329E+03  0.39638008790E+02  0.65436883269E+03  0.77542660682E+03  0.40000000000E+03 0. -1.
<mgrwt>
<rscale>  2 0.41646769E+03</rscale>
<asrwt>0</asrwt>
<pdfrwt beam="1">  1        2 0.22840470E+00 0.41646769E+03</pdfrwt>
<pdfrwt beam="2">  1       -2 0.17996647E-01 0.41646769E+03</pdfrwt>
<totfact> 0.34573363E+02</totfact>
</mgrwt>
</event>
<event>
 6    1  0.9022793E-004  0.5488364E+03  0.7818608E-02  0.1001764E+00
         -2   -1    0    0    0  501 -0.00000000000E+00  0.00000000000E+00  0.62007396639E+03  0.62007396639E+03  0.00000000000E+00 0.  1.
          2   -1    0    0  502    0  0.00000000000E+00 -0.00000000000E+00 -0.48822175872E+03  0.48822175872E+03  0.00000000000E+00 0. -1.
    9000007    2    1    2  502    0  0.76832935315E+02  0.36808123958E+03  0.10507247441E+03  0.55865561286E+03  0.39958574802E+03 0.  0.
    9000005    1    3    3    0    0  0.11137555069E+03  0.20676891604E+03 -0.13232130210E+03  0.26956970326E+03  0.99999687468E+00 0.  0.
          4    1    3    3  502    0 -0.34542615380E+02  0.16131232354E+03  0.23739377651E+03  0.28908590960E+03  0.00000000000E+00 0.  1.
   -9000007    1    1    2    0  501 -0.76832935315E+02 -0.36808123958E+03  0.26779733267E+02  0.54964011225E+03  0.40000000000E+03 0. -1.
<mgrwt>
<rscale>  2 0.54883644E+03</rscale>
<asrwt>0</asrwt>
<pdfrwt beam="1">  1        2 0.75111039E-01 0.54883644E+03</pdfrwt>
<pdfrwt beam="2">  1       -2 0.95395995E-01 0.54883644E+03</pdfrwt>
<totfact> 0.59977232E+01</totfact>
</mgrwt>
</event>
<event>
 6    1  0.9022793E-004  0.4390504E+03  0.7818608E-02  0.1031039E+00
         -2   -1    0    0    0  501 -0.00000000000E+00  0.00000000000E+00  0.13325578391E+03  0.13325578391E+03  0.00000000000E+00 0.  1.
          2   -1    0    0  502    0  0.00000000000E+00 -0.00000000000E+00 -0.14969593919E+04  0.14969593919E+04  0.00000000000E+00 0. -1.
    9000007    2    1    2  502    0 -0.15028259744E+03  0.10644728071E+03 -0.53037922864E+03  0.68769440475E+03  0.39712162556E+03 0.  0.
    9000005    1    3    3    0    0 -0.44087213012E+02 -0.40323607842E+02 -0.50053836181E+03  0.50409257815E+03  0.99999687468E+00 0.  0.
          4    1    3    3  502    0 -0.10619538443E+03  0.14677088855E+03 -0.29840866829E+02  0.18360182660E+03  0.00000000000E+00 0.  1.
   -9000007    1    1    2    0  501  0.15028259744E+03 -0.10644728071E+03 -0.83332437936E+03  0.94252077107E+03  0.40000000000E+03 0. -1.
<mgrwt>
<rscale>  2 0.43905041E+03</rscale>
<asrwt>0</asrwt>
<pdfrwt beam="1">  1        2 0.23030144E+00 0.43905041E+03</pdfrwt>
<pdfrwt beam="2">  1       -2 0.20500891E-01 0.43905041E+03</pdfrwt>
<totfact> 0.27125241E+02</totfact>
</mgrwt>
</event>
<event>
 6    1  0.9022793E-004  0.9674395E+03  0.7818608E-02  0.9344996E-01
         -2   -1    0    0    0  501 -0.00000000000E+00  0.00000000000E+00  0.39811991268E+03  0.39811991268E+03  0.00000000000E+00 0.  1.
          2   -1    0    0  502    0  0.00000000000E+00 -0.00000000000E+00 -0.25080281859E+04  0.25080281859E+04  0.00000000000E+00 0. -1.
    9000007    2    1    2  502    0 -0.85547976827E+03 -0.21024346086E+03 -0.69118930167E+03  0.11889377251E+04  0.39972780310E+03 0.  0.
    9000005    1    3    3    0    0 -0.13809204389E+03 -0.19933190617E+03 -0.24122267829E+03  0.34204093602E+03  0.99999687468E+00 0.  0.
          4    1    3    3  502    0 -0.71738772438E+03 -0.10911554688E+02 -0.44996662338E+03  0.84689678903E+03  0.00000000000E+00 0.  1.
   -9000007    1    1    2    0  501  0.85547976827E+03  0.21024346086E+03 -0.14187189716E+04  0.17172103736E+04  0.40000000000E+03 0. -1.
<mgrwt>
<rscale>  2 0.96743945E+03</rscale>
<asrwt>0</asrwt>
<pdfrwt beam="1">  1        2 0.38585049E+00 0.96743945E+03</pdfrwt>
<pdfrwt beam="2">  1       -2 0.61249217E-01 0.96743945E+03</pdfrwt>
<totfact> 0.86751491E+00</totfact>
</mgrwt>
</event>
<event>
 6    1  0.9022793E-004  0.4266054E+03  0.7818608E-02  0.1034938E+00
         -1   -1    0    0    0  501 -0.00000000000E+00  0.00000000000E+00  0.68175748894E+02  0.68175748894E+02  0.00000000000E+00 0.  1.
          1   -1    0    0  502    0  0.00000000000E+00 -0.00000000000E+00 -0.27857550303E+04  0.27857550303E+04  0.00000000000E+00 0. -1.
    9000007    2    1    2  502    0 -0.13196928412E+03 -0.68103242208E+02 -0.16501302880E+04  0.17043650798E+04  0.39984548833E+03 0.  0.
    9000005    1    3    3    0    0  0.13385275936E+03 -0.32046646420E+02 -0.83391715522E+03  0.84519960394E+03  0.99999687468E+00 0.  0.
          4    1    3    3  502    0 -0.26582204348E+03 -0.36056595788E+02 -0.81621313274E+03  0.85916547589E+03  0.00000000000E+00 0.  1.
   -9000007    1    1    2    0  501  0.13196928412E+03  0.68103242208E+02 -0.10674489934E+04  0.11495656993E+04  0.40000000000E+03 0.  1.
<mgrwt>
<rscale>  2 0.42660537E+03</rscale>
<asrwt>0</asrwt>
<pdfrwt beam="1">  1        1 0.42857769E+00 0.42660537E+03</pdfrwt>
<pdfrwt beam="2">  1       -1 0.10488577E-01 0.42660537E+03</pdfrwt>
<totfact> 0.55298856E+01</totfact>
</mgrwt>
</event>
<event>
 6    1  0.9022793E-004  0.4257286E+03  0.7818608E-02  0.1035218E+00
         -1   -1    0    0    0  501 -0.00000000000E+00  0.00000000000E+00  0.17142042312E+03  0.17142042312E+03  0.00000000000E+00 0. -1.
          1   -1    0    0  502    0  0.00000000000E+00 -0.00000000000E+00 -0.10668701903E+04  0.10668701903E+04  0.00000000000E+00 0.  1.
    9000007    2    1    2  502    0  0.77740344848E+02 -0.12290134318E+03 -0.38923973119E+03  0.57693072507E+03  0.40024141691E+03 0.  0.
    9000005    1    3    3    0    0 -0.11424880861E+03 -0.10595206146E+03 -0.34590830793E+03  0.37938395734E+03  0.99999687468E+00 0.  0.
          4    1    3    3  502    0  0.19198915346E+03 -0.16949281715E+02 -0.43331423261E+02  0.19754676772E+03  0.00000000000E+00 0.  1.
   -9000007    1    1    2    0  501 -0.77740344848E+02  0.12290134318E+03 -0.50621003595E+03  0.66135988831E+03  0.40000000000E+03 0. -1.
<mgrwt>
<rscale>  2 0.42572864E+03</rscale>
<asrwt>0</asrwt>
<pdfrwt beam="1">  1        1 0.16413387E+00 0.42572864E+03</pdfrwt>
<pdfrwt beam="2">  1       -1 0.26372374E-01 0.42572864E+03</pdfrwt>
<totfact> 0.17923737E+02</totfact>
</mgrwt>
</event>
<event>
 6    1  0.9022793E-004  0.4120195E+03  0.7818608E-02  0.1039695E+00
         -2   -1    0    0    0  501 -0.00000000000E+00  0.00000000000E+00  0.20605500609E+03  0.20605500609E+03  0.00000000000E+00 0. -1.
          2   -1    0    0  502    0  0.00000000000E+00 -0.00000000000E+00 -0.14916930805E+04  0.14916930805E+04  0.00000000000E+00 0.  1.
    9000007    2    1    2  502    0  0.85355059134E+02 -0.52356310924E+02 -0.12105267909E+04  0.12786199746E+04  0.39933351779E+03 0.  0.
    9000005    1    3    3    0    0  0.68073379841E+02  0.10369824846E+03 -0.10653014655E+03  0.16351447610E+03  0.99999687468E+00 0.  0.
          4    1    3    3  502    0  0.17281679293E+02 -0.15605455939E+03 -0.11039966444E+04  0.11151054985E+04  0.00000000000E+00 0.  1.
   -9000007    1    1    2    0  501 -0.85355059134E+02  0.52356310924E+02 -0.75111283555E+02  0.41912811207E+03  0.40000000000E+03 0. -1.
<mgrwt>
<rscale>  2 0.41201953E+03</rscale>
<asrwt>0</asrwt>
<pdfrwt beam="1">  1        2 0.22949124E+00 0.41201953E+03</pdfrwt>
<pdfrwt beam="2">  1       -2 0.31700771E-01 0.41201953E+03</pdfrwt>
<totfact> 0.12540107E+02</totfact>
</mgrwt>
</event>
<event>
 6    1  0.9022793E-004  0.4740763E+03  0.7818608E-02  0.1020776E+00
          2   -1    0    0  502    0  0.00000000000E+00  0.00000000000E+00  0.69054739507E+03  0.69054739507E+03  0.00000000000E+00 0. -1.
         -2   -1    0    0    0  501 -0.00000000000E+00 -0.00000000000E+00 -0.32964199080E+03  0.32964199080E+03  0.00000000000E+00 0.  1.
    9000007    2    1    2  502    0 -0.14523231584E+03  0.20869516333E+03  0.23791992186E+03  0.53052467850E+03  0.40025547906E+03 0.  0.
    9000005    1    3    3    0    0 -0.23884979101E+03  0.17981560929E+03  0.29743664959E+02  0.30044726927E+03  0.99999687468E+00 0.  0.
          4    1    3    3  502    0  0.93617475171E+02  0.28879554034E+02  0.20817625691E+03  0.23007740923E+03  0.00000000000E+00 0.  1.
   -9000007    1    1    2    0  501  0.14523231584E+03 -0.20869516333E+03  0.12298548240E+03  0.48966470737E+03  0.40000000000E+03 0.  1.
<mgrwt>
<rscale>  2 0.47407626E+03</rscale>
<asrwt>0</asrwt>
<pdfrwt beam="1">  1        2 0.10623806E+00 0.47407626E+03</pdfrwt>
<pdfrwt beam="2">  1       -2 0.50714153E-01 0.47407626E+03</pdfrwt>
<totfact> 0.15763104E+02</totfact>
</mgrwt>
</event>
<event>
 6    1  0.9022793E-004  0.4964162E+03  0.7818608E-02  0.1014719E+00
          4   -1    0    0  502    0  0.00000000000E+00  0.00000000000E+00  0.13272326347E+03  0.13272326347E+03  0.00000000000E+00 0.  1.
         -4   -1    0    0    0  501 -0.00000000000E+00 -0.00000000000E+00 -0.23815373147E+04  0.23815373147E+04  0.00000000000E+00 0. -1.
    9000007    2    1    2  502    0  0.14656496795E+03 -0.25550296483E+03 -0.17139572659E+04  0.17843052126E+04  0.39916478760E+03 0.  0.
    9000005    1    3    3    0    0  0.56950590123E+02 -0.68403625053E+02 -0.14293270433E+04  0.14320960940E+04  0.99999687468E+00 0.  0.
          4    1    3    3  502    0  0.89614377830E+02 -0.18709933977E+03 -0.28463022254E+03  0.35220911862E+03  0.00000000000E+00 0.  1.
   -9000007    1    1    2    0  501 -0.14656496795E+03  0.25550296483E+03 -0.53485678536E+03  0.72995536556E+03  0.40000000000E+03 0.  1.
<mgrwt>
<rscale>  2 0.49641625E+03</rscale>
<asrwt>0</asrwt>
<pdfrwt beam="1">  1        4 0.20418965E-01 0.49641625E+03</pdfrwt>
<pdfrwt beam="2">  1       -4 0.36639033E+00 0.49641625E+03</pdfrwt>
<totfact> 0.54532886E-01</totfact>
</mgrwt>
</event>
<event>
 6    1  0.9022793E-004  0.5575171E+03  0.7818608E-02  0.9997688E-01
         -2   -1    0    0    0  501 -0.00000000000E+00  0.00000000000E+00  0.37345017096E+03  0.37345017096E+03  0.00000000000E+00 0.  1.
          2   -1    0    0  502    0  0.00000000000E+00 -0.00000000000E+00 -0.88908356588E+03  0.88908356588E+03  0.00000000000E+00 0. -1.
    9000007    2    1    2  502    0  0.32268014720E+03 -0.21405516680E+03 -0.98638826903E+02  0.56695731287E+03  0.40220502807E+03 0.  0.
    9000005    1    3    3    0    0  0.79353184740E+02  0.10625424418E+03 -0.97671832384E+02  0.16470482437E+03  0.99999687468E+00 0.  0.
          4    1    3    3  502    0  0.24332696246E+03 -0.32030941098E+03 -0.96699451860E+00  0.40225248850E+03  0.00000000000E+00 0.  1.
   -9000007    1    1    2    0  501 -0.32268014720E+03  0.21405516680E+03 -0.41699456802E+03  0.69557642397E+03  0.40000000000E+03 0. -1.
<mgrwt>
<rscale>  2 0.55751706E+03</rscale>
<asrwt>0</asrwt>
<pdfrwt beam="1">  1        2 0.13678209E+00 0.55751706E+03</pdfrwt>
<pdfrwt beam="2">  1       -2 0.57453873E-01 0.55751706E+03</pdfrwt>
<totfact> 0.87152659E+01</totfact>
</mgrwt>
</event>
<event>
 6    1  0.9022793E-004  0.4809340E+03  0.7818608E-02  0.1018879E+00
         -2   -1    0    0    0  501 -0.00000000000E+00  0.00000000000E+00  0.12253948456E+03  0.12253948456E+03  0.00000000000E+00 0. -1.
          2   -1    0    0  502    0  0.00000000000E+00 -0.00000000000E+00 -0.19199934894E+04  0.19199934894E+04  0.00000000000E+00 0.  1.
    9000007    2    1    2  502    0  0.85844679313E+02  0.25326938990E+03 -0.10310988625E+04  0.11376490604E+04  0.39945691579E+03 0.  0.
    9000005    1    3    3    0    0 -0.47849105159E+01  0.34467532423E+03 -0.65559013188E+03  0.74069116068E+03  0.99999687468E+00 0.  0.
          4    1    3    3  502    0  0.90629589829E+02 -0.91405934325E+02 -0.37550873065E+03  0.39695789975E+03  0.00000000000E+00 0.  1.
   -9000007    1    1    2    0  501 -0.85844679313E+02 -0.25326938990E+03 -0.76635514236E+03  0.90488391358E+03  0.40000000000E+03 0.  1.
<mgrwt>
<rscale>  2 0.48093399E+03</rscale>
<asrwt>0</asrwt>
<pdfrwt beam="1">  1        2 0.29538360E+00 0.48093399E+03</pdfrwt>
<pdfrwt beam="2">  1       -2 0.18852230E-01 0.48093399E+03</pdfrwt>
<totfact> 0.18450777E+02</totfact>
</mgrwt>
</event>
<event>
 6    1  0.9022793E-004  0.6013262E+03  0.7818608E-02  0.9902658E-01
         -1   -1    0    0    0  501 -0.00000000000E+00  0.00000000000E+00  0.38167213311E+03  0.38167213311E+03  0.00000000000E+00 0.  1.
          1   -1    0    0  502    0  0.00000000000E+00 -0.00000000000E+00 -0.10645470608E+04  0.10645470608E+04  0.00000000000E+00 0. -1.
    9000007    2    1    2  502    0 -0.25541667567E+03 -0.36896566724E+03 -0.10164575138E+03  0.61003697859E+03  0.40054951585E+03 0.  0.
    9000005    1    3    3    0    0  0.60848375380E+02 -0.21758041848E+03 -0.12576996319E+03  0.25857851211E+03  0.99999687468E+00 0.  0.
          4    1    3    3  502    0 -0.31626505105E+03 -0.15138524877E+03  0.24124211805E+02  0.35145846648E+03  0.00000000000E+00 0.  1.
   -9000007    1    1    2    0  501  0.25541667567E+03  0.36896566724E+03 -0.58122917627E+03  0.83618221529E+03  0.40000000000E+03 0. -1.
<mgrwt>
<rscale>  2 0.60132623E+03</rscale>
<asrwt>0</asrwt>
<pdfrwt beam="1">  1        1 0.16377647E+00 0.60132623E+03</pdfrwt>
<pdfrwt beam="2">  1       -1 0.58718790E-01 0.60132623E+03</pdfrwt>
<totfact> 0.41386077E+01</totfact>
</mgrwt>
</event>
<event>
 6    1  0.9022793E-004  0.4256878E+03  0.7818608E-02  0.1035231E+00
         -1   -1    0    0    0  501 -0.00000000000E+00  0.00000000000E+00  0.38102046076E+03  0.38102046076E+03  0.00000000000E+00 0.  1.
          1   -1    0    0  502    0  0.00000000000E+00 -0.00000000000E+00 -0.47760827021E+03  0.47760827021E+03  0.00000000000E+00 0. -1.
    9000007    2    1    2  502    0 -0.78115877094E+02  0.12252617794E+03 -0.20408684897E+02  0.42628857142E+03  0.40023827549E+03 0.  0.
    9000005    1    3    3    0    0  0.11525923718E+03  0.18701258920E+03  0.11408562366E+02  0.21997626136E+03  0.99999687468E+00 0.  0.
          4    1    3    3  502    0 -0.19337511428E+03 -0.64486411257E+02 -0.31817247263E+02  0.20631231006E+03  0.00000000000E+00 0.  1.
   -9000007    1    1    2    0  501  0.78115877094E+02 -0.12252617794E+03 -0.76179124555E+02  0.43234015954E+03  0.40000000000E+03 0. -1.
<mgrwt>
<rscale>  2 0.42568776E+03</rscale>
<asrwt>0</asrwt>
<pdfrwt beam="1">  1        1 0.73478196E-01 0.42568776E+03</pdfrwt>
<pdfrwt beam="2">  1       -1 0.58618532E-01 0.42568776E+03</pdfrwt>
<totfact> 0.14485557E+02</totfact>
</mgrwt>
</event>
<event>
 6    1  0.9022793E-004  0.4666316E+03  0.7818608E-02  0.1022875E+00
          2   -1    0    0  502    0  0.00000000000E+00  0.00000000000E+00  0.38883509422E+04  0.38883509422E+04  0.00000000000E+00 0.  1.
         -2   -1    0    0    0  501 -0.00000000000E+00 -0.00000000000E+00 -0.74610940066E+02  0.74610940066E+02  0.00000000000E+00 0. -1.
    9000007    2    1    2  502    0 -0.92984457090E+02  0.22155707875E+03  0.28965552589E+04  0.29339033311E+04  0.40002842434E+03 0.  0.
    9000005    1    3    3    0    0  0.11405082700E+03  0.22292494689E+03  0.12916836834E+04  0.13157320628E+04  0.99999687468E+00 0.  0.
          4    1    3    3  502    0 -0.20703528409E+03 -0.13678681378E+01  0.16048715755E+04  0.16181712684E+04  0.00000000000E+00 0.  1.
   -9000007    1    1    2    0  501  0.92984457090E+02 -0.22155707875E+03  0.91718474328E+03  0.10290585512E+04  0.40000000000E+03 0. -1.
<mgrwt>
<rscale>  2 0.46663157E+03</rscale>
<asrwt>0</asrwt>
<pdfrwt beam="1">  1        2 0.59820768E+00 0.46663157E+03</pdfrwt>
<pdfrwt beam="2">  1       -2 0.11478609E-01 0.46663157E+03</pdfrwt>
<totfact> 0.26843733E+01</totfact>
</mgrwt>
</event>
<event>
 6    1  0.9022793E-004  0.4011123E+03  0.7818608E-02  0.1043395E+00
         -1   -1    0    0    0  501 -0.00000000000E+00  0.00000000000E+00  0.18650480312E+03  0.18650480312E+03  0.00000000000E+00 0. -1.
          1   -1    0    0  502    0  0.00000000000E+00 -0.00000000000E+00 -0.88199751084E+03  0.88199751084E+03  0.00000000000E+00 0.  1.
    9000007    2    1    2  502    0  0.60806120403E+01 -0.23053740988E+02 -0.42718310775E+03  0.58625912815E+03  0.40080657302E+03 0.  0.
    9000005    1    3    3    0    0 -0.80997579690E+02  0.13098328950E+03 -0.36923465322E+03  0.40006556860E+03  0.99999687468E+00 0.  0.
          4    1    3    3  502    0  0.87078191730E+02 -0.15403703049E+03 -0.57948454529E+02  0.18619355955E+03  0.00000000000E+00 0.  1.
   -9000007    1    1    2    0  501 -0.60806120403E+01  0.23053740988E+02 -0.26830959997E+03  0.48224318580E+03  0.40000000000E+03 0. -1.
<mgrwt>
<rscale>  2 0.40111230E+03</rscale>
<asrwt>0</asrwt>
<pdfrwt beam="1">  1        1 0.13569192E+00 0.40111230E+03</pdfrwt>
<pdfrwt beam="2">  1       -1 0.28693047E-01 0.40111230E+03</pdfrwt>
<totfact> 0.21617918E+02</totfact>
</mgrwt>
</event>
<event>
 6    1  0.9022793E-004  0.4767639E+03  0.7818608E-02  0.1020028E+00
         -1   -1    0    0    0  501 -0.00000000000E+00  0.00000000000E+00  0.27124262236E+03  0.27124262236E+03  0.00000000000E+00 0.  1.
          1   -1    0    0  502    0  0.00000000000E+00 -0.00000000000E+00 -0.16234155392E+04  0.16234155392E+04  0.00000000000E+00 0. -1.
    9000007    2    1    2  502    0  0.22783977700E+03 -0.12039676630E+03 -0.13356955392E+04  0.14185511891E+04  0.40224191377E+03 0.  0.
    9000005    1    3    3    0    0  0.49804766592E+02 -0.26427377644E+02 -0.11276254227E+04  0.11290345500E+04  0.99999687468E+00 0.  0.
          4    1    3    3  502    0  0.17803501041E+03 -0.93969388656E+02 -0.20807011650E+03  0.28951663910E+03  0.00000000000E+00 0.  1.
   -9000007    1    1    2    0  501 -0.22783977700E+03  0.12039676630E+03 -0.16477377659E+02  0.47610697253E+03  0.40000000000E+03 0. -1.
<mgrwt>
<rscale>  2 0.47676393E+03</rscale>
<asrwt>0</asrwt>
<pdfrwt beam="1">  1        1 0.24975623E+00 0.47676393E+03</pdfrwt>
<pdfrwt beam="2">  1       -1 0.41729635E-01 0.47676393E+03</pdfrwt>
<totfact> 0.32642288E+01</totfact>
</mgrwt>
</event>
<event>
 6    1  0.9022793E-004  0.5595241E+03  0.7818608E-02  0.9993132E-01
         -1   -1    0    0    0  501 -0.00000000000E+00  0.00000000000E+00  0.66010997980E+03  0.66010997980E+03  0.00000000000E+00 0.  1.
          1   -1    0    0  502    0  0.00000000000E+00 -0.00000000000E+00 -0.55585907111E+03  0.55585907111E+03  0.00000000000E+00 0. -1.
    9000007    2    1    2  502    0 -0.38656122887E+03 -0.61064031175E+02  0.28505604595E+03  0.62787985936E+03  0.39977214621E+03 0.  0.
    9000005    1    3    3    0    0 -0.12469597650E+03 -0.65833694460E+02 -0.92304431521E+02  0.16853566374E+03  0.99999687468E+00 0.  0.
          4    1    3    3  502    0 -0.26186525237E+03  0.47696632849E+01  0.37736047747E+03  0.45934419562E+03  0.00000000000E+00 0.  1.
   -9000007    1    1    2    0  501  0.38656122887E+03  0.61064031175E+02 -0.18080513726E+03  0.58808919156E+03  0.40000000000E+03 0. -1.
<mgrwt>
<rscale>  2 0.55952415E+03</rscale>
<asrwt>0</asrwt>
<pdfrwt beam="1">  1        1 0.85516780E-01 0.55952415E+03</pdfrwt>
<pdfrwt beam="2">  1       -1 0.10155538E+00 0.55952415E+03</pdfrwt>
<totfact> 0.36718129E+01</totfact>
</mgrwt>
</event>
<event>
 6    1  0.9022793E-004  0.4284970E+03  0.7818608E-02  0.1034336E+00
          2   -1    0    0  502    0  0.00000000000E+00  0.00000000000E+00  0.17139204168E+04  0.17139204168E+04  0.00000000000E+00 0. -1.
         -2   -1    0    0    0  501 -0.00000000000E+00 -0.00000000000E+00 -0.13535724850E+03  0.13535724850E+03  0.00000000000E+00 0.  1.
    9000007    2    1    2  502    0  0.57198566613E+02 -0.14190391295E+03  0.12118813763E+04  0.12854834359E+04  0.40050318001E+03 0.  0.
    9000005    1    3    3    0    0 -0.60526371928E+02 -0.22842555985E+03  0.10037545366E+04  0.10311963187E+04  0.99999687468E+00 0.  0.
          4    1    3    3  502    0  0.11772493854E+03  0.86521646907E+02  0.20812683975E+03  0.25428711718E+03  0.00000000000E+00 0.  1.
   -9000007    1    1    2    0  501 -0.57198566613E+02  0.14190391295E+03  0.36668179202E+03  0.56379422943E+03  0.40000000000E+03 0.  1.
<mgrwt>
<rscale>  2 0.42849701E+03</rscale>
<asrwt>0</asrwt>
<pdfrwt beam="1">  1        2 0.26368005E+00 0.42849701E+03</pdfrwt>
<pdfrwt beam="2">  1       -2 0.20824193E-01 0.42849701E+03</pdfrwt>
<totfact> 0.20175352E+02</totfact>
</mgrwt>
</event>
<event>
 6    1  0.9022793E-004  0.4068908E+03  0.7818608E-02  0.1041419E+00
          2   -1    0    0  502    0  0.00000000000E+00  0.00000000000E+00  0.36761329111E+03  0.36761329111E+03  0.00000000000E+00 0. -1.
         -2   -1    0    0    0  501 -0.00000000000E+00 -0.00000000000E+00 -0.45094265952E+03  0.45094265952E+03  0.00000000000E+00 0.  1.
    9000007    2    1    2  502    0 -0.68147025462E+02  0.32094625268E+02 -0.27000504691E+02  0.40764595692E+03  0.39971504461E+03 0.  0.
    9000005    1    3    3    0    0  0.28917287672E+02 -0.90081296094E+02  0.14643841751E+03  0.17434465735E+03  0.99999687468E+00 0.  0.
          4    1    3    3  502    0 -0.97064313134E+02  0.12217592136E+03 -0.17343892220E+03  0.23330129956E+03  0.00000000000E+00 0.  1.
   -9000007    1    1    2    0  501  0.68147025462E+02 -0.32094625268E+02 -0.56328863717E+02  0.41090999372E+03  0.40000000000E+03 0.  1.
<mgrwt>
<rscale>  2 0.40689077E+03</rscale>
<asrwt>0</asrwt>
<pdfrwt beam="1">  1        2 0.56555891E-01 0.40689077E+03</pdfrwt>
<pdfrwt beam="2">  1       -2 0.69375794E-01 0.40689077E+03</pdfrwt>
<totfact> 0.17012682E+02</totfact>
</mgrwt>
</event>
<event>
 6    1  0.9022793E-004  0.4056806E+03  0.7818608E-02  0.1041830E+00
         -1   -1    0    0    0  501 -0.00000000000E+00  0.00000000000E+00  0.13848080297E+04  0.13848080297E+04  0.00000000000E+00 0. -1.
          1   -1    0    0  502    0  0.00000000000E+00 -0.00000000000E+00 -0.12535585235E+03  0.12535585235E+03  0.00000000000E+00 0.  1.
    9000007    2    1    2  502    0 -0.63819782677E+02  0.29214478557E+02  0.80118175404E+03  0.89784188236E+03  0.39912578507E+03 0.  0.
    9000005    1    3    3    0    0  0.67033266615E+01 -0.17619575551E+03  0.46812590434E+03  0.50023268701E+03  0.99999687468E+00 0.  0.
          4    1    3    3  502    0 -0.70523109338E+02  0.20541023407E+03  0.33305584970E+03  0.39760919535E+03  0.00000000000E+00 0.  1.
   -9000007    1    1    2    0  501  0.63819782677E+02 -0.29214478557E+02  0.45827042332E+03  0.61232199969E+03  0.40000000000E+03 0. -1.
<mgrwt>
<rscale>  2 0.40568063E+03</rscale>
<asrwt>0</asrwt>
<pdfrwt beam="1">  1        1 0.19285517E-01 0.40568063E+03</pdfrwt>
<pdfrwt beam="2">  1       -1 0.21304738E+00 0.40568063E+03</pdfrwt>
<totfact> 0.35952958E+01</totfact>
</mgrwt>
</event>
<event>
 6    1  0.9022793E-004  0.4562580E+03  0.7818608E-02  0.1025872E+00
         -2   -1    0    0    0  501 -0.00000000000E+00  0.00000000000E+00  0.49235269080E+03  0.49235269080E+03  0.00000000000E+00 0.  1.
          2   -1    0    0  502    0  0.00000000000E+00 -0.00000000000E+00 -0.42460021976E+03  0.42460021976E+03  0.00000000000E+00 0. -1.
    9000007    2    1    2  502    0 -0.13089712908E+03  0.17538267032E+03  0.41257128559E+01  0.45658186042E+03  0.40069543834E+03 0.  0.
    9000005    1    3    3    0    0 -0.32477431896E+01  0.14487160319E+03 -0.17961375140E+03  0.23078221104E+03  0.99999687468E+00 0.  0.
          4    1    3    3  502    0 -0.12764938589E+03  0.30511067136E+02  0.18373946425E+03  0.22579964938E+03  0.00000000000E+00 0.  1.
   -9000007    1    1    2    0  501  0.13089712908E+03 -0.17538267032E+03  0.63626758189E+02  0.46037105014E+03  0.40000000000E+03 0. -1.
<mgrwt>
<rscale>  2 0.45625801E+03</rscale>
<asrwt>0</asrwt>
<pdfrwt beam="1">  1        2 0.65323111E-01 0.45625801E+03</pdfrwt>
<pdfrwt beam="2">  1       -2 0.75746568E-01 0.45625801E+03</pdfrwt>
<totfact> 0.11931022E+02</totfact>
</mgrwt>
</event>
<event>
 6    1  0.9022793E-004  0.4756120E+03  0.7818608E-02  0.1020348E+00
          1   -1    0    0  502    0  0.00000000000E+00  0.00000000000E+00  0.32065350760E+03  0.32065350760E+03  0.00000000000E+00 0. -1.
         -1   -1    0    0    0  501 -0.00000000000E+00 -0.00000000000E+00 -0.73016948127E+03  0.73016948127E+03  0.00000000000E+00 0.  1.
    9000007    2    1    2  502    0 -0.21285249148E+03  0.14425377671E+03 -0.10813527400E+03  0.48784371630E+03  0.40022858321E+03 0.  0.
    9000005    1    3    3    0    0  0.84265426635E+02 -0.38219527702E+02  0.49780341677E+02  0.10507367337E+03  0.99999687468E+00 0.  0.
          4    1    3    3  502    0 -0.29711791811E+03  0.18247330441E+03 -0.15791561568E+03  0.38277004293E+03  0.00000000000E+00 0.  1.
   -9000007    1    1    2    0  501  0.21285249148E+03 -0.14425377671E+03 -0.30138069967E+03  0.56297927258E+03  0.40000000000E+03 0. -1.
<mgrwt>
<rscale>  2 0.47561200E+03</rscale>
<asrwt>0</asrwt>
<pdfrwt beam="1">  1        1 0.49331309E-01 0.47561200E+03</pdfrwt>
<pdfrwt beam="2">  1       -1 0.11233377E+00 0.47561200E+03</pdfrwt>
<totfact> 0.60995049E+01</totfact>
</mgrwt>
</event>
<event>
 6    1  0.9022793E-004  0.4390995E+03  0.7818608E-02  0.1031023E+00
         -2   -1    0    0    0  501 -0.00000000000E+00  0.00000000000E+00  0.20699606069E+03  0.20699606069E+03  0.00000000000E+00 0.  1.
          2   -1    0    0  502    0  0.00000000000E+00 -0.00000000000E+00 -0.10421481893E+04  0.10421481893E+04  0.00000000000E+00 0. -1.
    9000007    2    1    2  502    0  0.16052047795E+03 -0.80278406536E+02 -0.21460763547E+03  0.48935025530E+03  0.40149195354E+03 0.  0.
    9000005    1    3    3    0    0  0.15944168868E+03 -0.97604491754E+02 -0.32643852424E+03  0.37618000877E+03  0.99999687468E+00 0.  0.
          4    1    3    3  502    0  0.10787892687E+01  0.17326085217E+02  0.11183088877E+03  0.11317024652E+03  0.00000000000E+00 0.  1.
   -9000007    1    1    2    0  501 -0.16052047795E+03  0.80278406536E+02 -0.62054449309E+03  0.75979399465E+03  0.40000000000E+03 0. -1.
<mgrwt>
<rscale>  2 0.43909955E+03</rscale>
<asrwt>0</asrwt>
<pdfrwt beam="1">  1        2 0.16033049E+00 0.43909955E+03</pdfrwt>
<pdfrwt beam="2">  1       -2 0.31845547E-01 0.43909955E+03</pdfrwt>
<totfact> 0.22426934E+02</totfact>
</mgrwt>
</event>
<event>
 6    1  0.9022793E-004  0.4292530E+03  0.7818608E-02  0.1034096E+00
         -2   -1    0    0    0  501 -0.00000000000E+00  0.00000000000E+00  0.18840849197E+03  0.18840849197E+03  0.00000000000E+00 0. -1.
          2   -1    0    0  502    0  0.00000000000E+00 -0.00000000000E+00 -0.11323424828E+04  0.11323424828E+04  0.00000000000E+00 0.  1.
    9000007    2    1    2  502    0 -0.93094290956E+02  0.11667815552E+03 -0.23036342033E+03  0.48920825303E+03  0.40494082337E+03 0.  0.
    9000005    1    3    3    0    0 -0.15156546531E+03  0.10301730637E+03  0.59895678685E+02  0.19280339210E+03  0.99999687468E+00 0.  0.
          4    1    3    3  502    0  0.58471174350E+02  0.13660849153E+02 -0.29025909901E+03  0.29640486094E+03  0.00000000000E+00 0.  1.
   -9000007    1    1    2    0  501  0.93094290956E+02 -0.11667815552E+03 -0.71357057051E+03  0.83154272174E+03  0.40000000000E+03 0.  1.
<mgrwt>
<rscale>  2 0.42925301E+03</rscale>
<asrwt>0</asrwt>
<pdfrwt beam="1">  1        2 0.17420653E+00 0.42925301E+03</pdfrwt>
<pdfrwt beam="2">  1       -2 0.28985922E-01 0.42925301E+03</pdfrwt>
<totfact> 0.23555410E+02</totfact>
</mgrwt>
</event>
<event>
 6    1  0.9022793E-004  0.4043994E+03  0.7818608E-02  0.1042267E+00
          2   -1    0    0  502    0  0.00000000000E+00  0.00000000000E+00  0.39136437694E+04  0.39136437694E+04  0.00000000000E+00 0.  1.
         -2   -1    0    0    0  501 -0.00000000000E+00 -0.00000000000E+00 -0.42310116547E+02  0.42310116547E+02  0.00000000000E+00 0. -1.
    9000007    2    1    2  502    0  0.66378582496E+01  0.57118311423E+02  0.17170630591E+04  0.17641080078E+04  0.40058076766E+03 0.  0.
    9000005    1    3    3    0    0  0.18607673655E+03 -0.32628996245E+02  0.59572623631E+03  0.62496396048E+03  0.99999687468E+00 0.  0.
          4    1    3    3  502    0 -0.17943887830E+03  0.89747307668E+02  0.11213368228E+04  0.11391440473E+04  0.00000000000E+00 0.  1.
   -9000007    1    1    2    0  501 -0.66378582496E+01 -0.57118311423E+02  0.21542705937E+04  0.21918458781E+04  0.40000000000E+03 0.  1.
<mgrwt>
<rscale>  2 0.40439940E+03</rscale>
<asrwt>0</asrwt>
<pdfrwt beam="1">  1        2 0.60209876E+00 0.40439940E+03</pdfrwt>
<pdfrwt beam="2">  1       -2 0.65092518E-02 0.40439940E+03</pdfrwt>
<totfact> 0.64671952E+01</totfact>
</mgrwt>
</event>
<event>
 6    1  0.9022793E-004  0.4272037E+03  0.7818608E-02  0.1034747E+00
          2   -1    0    0  502    0  0.00000000000E+00  0.00000000000E+00  0.12423248801E+04  0.12423248801E+04  0.00000000000E+00 0.  1.
         -2   -1    0    0    0  501 -0.00000000000E+00 -0.00000000000E+00 -0.19679184655E+03  0.19679184655E+03  0.00000000000E+00 0. -1.
    9000007    2    1    2  502    0  0.95605939048E+02 -0.12076051728E+03  0.88374982095E+03  0.98097111005E+03  0.39694706778E+03 0.  0.
    9000005    1    3    3    0    0 -0.98618034157E+02 -0.95300947870E+02  0.91506711478E+02  0.16487045085E+03  0.99999687468E+00 0.  0.
          4    1    3    3  502    0  0.19422397321E+03 -0.25459569410E+02  0.79224310947E+03  0.81610065920E+03  0.00000000000E+00 0.  1.
   -9000007    1    1    2    0  501 -0.95605939048E+02  0.12076051728E+03  0.16178321257E+03  0.45814561657E+03  0.40000000000E+03 0. -1.
<mgrwt>
<rscale>  2 0.42720373E+03</rscale>
<asrwt>0</asrwt>
<pdfrwt beam="1">  1        2 0.19112690E+00 0.42720373E+03</pdfrwt>
<pdfrwt beam="2">  1       -2 0.30275669E-01 0.42720373E+03</pdfrwt>
<totfact> 0.18767970E+02</totfact>
</mgrwt>
</event>
<event>
 6    1  0.9022793E-004  0.5160358E+03  0.7818608E-02  0.1009676E+00
          1   -1    0    0  502    0  0.00000000000E+00  0.00000000000E+00  0.48166510514E+03  0.48166510514E+03  0.00000000000E+00 0.  1.
         -1   -1    0    0    0  501 -0.00000000000E+00 -0.00000000000E+00 -0.57524484212E+03  0.57524484212E+03  0.00000000000E+00 0. -1.
    9000007    2    1    2  502    0  0.29429544329E+03  0.14160484990E+03 -0.15100619090E+03  0.53733364000E+03  0.39907747309E+03 0.  0.
    9000005    1    3    3    0    0  0.11238343139E+03 -0.10093004672E+03 -0.17741473418E+03  0.23301051024E+03  0.99999687468E+00 0.  0.
          4    1    3    3  502    0  0.18191201190E+03  0.24253489662E+03  0.26408543287E+02  0.30432312976E+03  0.00000000000E+00 0.  1.
   -9000007    1    1    2    0  501 -0.29429544329E+03 -0.14160484990E+03  0.57426453912E+02  0.51957630726E+03  0.40000000000E+03 0. -1.
<mgrwt>
<rscale>  2 0.51603576E+03</rscale>
<asrwt>0</asrwt>
<pdfrwt beam="1">  1        1 0.74102324E-01 0.51603576E+03</pdfrwt>
<pdfrwt beam="2">  1       -1 0.88499206E-01 0.51603576E+03</pdfrwt>
<totfact> 0.61025301E+01</totfact>
</mgrwt>
</event>
<event>
 6    1  0.9022793E-004  0.4699533E+03  0.7818608E-02  0.1021933E+00
          2   -1    0    0  502    0  0.00000000000E+00  0.00000000000E+00  0.15339836711E+04  0.15339836711E+04  0.00000000000E+00 0. -1.
         -2   -1    0    0    0  501 -0.00000000000E+00 -0.00000000000E+00 -0.15535791954E+03  0.15535791954E+03  0.00000000000E+00 0.  1.
    9000007    2    1    2  502    0  0.17682633083E+03  0.18027359018E+03  0.91369773824E+03  0.10260737894E+04  0.39270567328E+03 0.  0.
    9000005    1    3    3    0    0  0.13242814711E+03  0.24798534475E+03  0.90134115517E+03  0.94416673494E+03  0.99999687468E+00 0.  0.
          4    1    3    3  502    0  0.44398183720E+02 -0.67711754571E+02  0.12356583068E+02  0.81907054457E+02  0.00000000000E+00 0.  1.
   -9000007    1    1    2    0  501 -0.17682633083E+03 -0.18027359018E+03  0.46492801330E+03  0.66326780123E+03  0.40000000000E+03 0.  1.
<mgrwt>
<rscale>  2 0.46995326E+03</rscale>
<asrwt>0</asrwt>
<pdfrwt beam="1">  1        2 0.23599748E+00 0.46995326E+03</pdfrwt>
<pdfrwt beam="2">  1       -2 0.23901219E-01 0.46995326E+03</pdfrwt>
<totfact> 0.19695592E+02</totfact>
</mgrwt>
</event>
<event>
 6    1  0.9022793E-004  0.8061065E+03  0.7818608E-02  0.9551220E-01
         -2   -1    0    0    0  501 -0.00000000000E+00  0.00000000000E+00  0.12972152617E+04  0.12972152617E+04  0.00000000000E+00 0. -1.
          2   -1    0    0  502    0  0.00000000000E+00 -0.00000000000E+00 -0.50260919455E+03  0.50260919455E+03  0.00000000000E+00 0.  1.
    9000007    2    1    2  502    0 -0.59036811557E+03  0.37596961259E+03  0.34518650044E+03  0.87685879685E+03  0.39979991003E+03 0.  0.
    9000005    1    3    3    0    0 -0.59511343140E+02  0.13370311835E+03 -0.68479606459E+02  0.16158149744E+03  0.99999687468E+00 0.  0.
          4    1    3    3  502    0 -0.53085677243E+03  0.24226649424E+03  0.41366610690E+03  0.71527729942E+03  0.00000000000E+00 0.  1.
   -9000007    1    1    2    0  501  0.59036811557E+03 -0.37596961259E+03  0.44941956672E+03  0.92296565940E+03  0.40000000000E+03 0. -1.
<mgrwt>
<rscale>  2 0.80610647E+03</rscale>
<asrwt>0</asrwt>
<pdfrwt beam="1">  1        2 0.77324492E-01 0.80610647E+03</pdfrwt>
<pdfrwt beam="2">  1       -2 0.19957158E+00 0.80610647E+03</pdfrwt>
<totfact> 0.83021550E+00</totfact>
</mgrwt>
</event>
<event>
 6    1  0.9022793E-004  0.4010303E+03  0.7818608E-02  0.1043424E+00
         -2   -1    0    0    0  501 -0.00000000000E+00  0.00000000000E+00  0.21561822510E+03  0.21561822510E+03  0.00000000000E+00 0.  1.
          2   -1    0    0  502    0  0.00000000000E+00 -0.00000000000E+00 -0.76094041787E+03  0.76094041787E+03  0.00000000000E+00 0. -1.
    9000007    2    1    2  502    0  0.29649213444E+02  0.33367316794E+01 -0.20391394446E+03  0.44982360365E+03  0.39983767709E+03 0.  0.
    9000005    1    3    3    0    0 -0.14431565649E+03 -0.99325894285E+02 -0.19450174988E+02  0.17627237811E+03  0.99999687468E+00 0.  0.
          4    1    3    3  502    0  0.17396486994E+03  0.10266262596E+03 -0.18446376947E+03  0.27355122553E+03  0.00000000000E+00 0.  1.
   -9000007    1    1    2    0  501 -0.29649213444E+02 -0.33367316794E+01 -0.34140824831E+03  0.52673503932E+03  0.40000000000E+03 0. -1.
<mgrwt>
<rscale>  2 0.40103027E+03</rscale>
<asrwt>0</asrwt>
<pdfrwt beam="1">  1        2 0.11706776E+00 0.40103027E+03</pdfrwt>
<pdfrwt beam="2">  1       -2 0.33172034E-01 0.40103027E+03</pdfrwt>
<totfact> 0.32026556E+02</totfact>
</mgrwt>
</event>
<event>
 6    1  0.9022793E-004  0.3998962E+03  0.7818608E-02  0.1043816E+00
          1   -1    0    0  502    0  0.00000000000E+00  0.00000000000E+00  0.13110117100E+04  0.13110117100E+04  0.00000000000E+00 0. -1.
         -1   -1    0    0    0  501 -0.00000000000E+00 -0.00000000000E+00 -0.12436917767E+03  0.12436917767E+03  0.00000000000E+00 0.  1.
    9000007    2    1    2  502    0  0.78761393645E+01  0.98450464041E+01  0.49340589564E+03  0.63492102424E+03  0.39939500581E+03 0.  0.
    9000005    1    3    3    0    0 -0.12298543962E+03  0.41661751785E+02  0.48265586523E+03  0.49981877131E+03  0.99999687468E+00 0.  0.
          4    1    3    3  502    0  0.13086157898E+03 -0.31816705381E+02  0.10750030415E+02  0.13510225294E+03  0.00000000000E+00 0.  1.
   -9000007    1    1    2    0  501 -0.78761393645E+01 -0.98450464041E+01  0.69323663670E+03  0.80045986343E+03  0.40000000000E+03 0. -1.
<mgrwt>
<rscale>  2 0.39989619E+03</rscale>
<asrwt>0</asrwt>
<pdfrwt beam="1">  1        1 0.20169410E+00 0.39989619E+03</pdfrwt>
<pdfrwt beam="2">  1       -1 0.19133721E-01 0.39989619E+03</pdfrwt>
<totfact> 0.20541253E+02</totfact>
</mgrwt>
</event>
<event>
 6    1  0.9022793E-004  0.4242674E+03  0.7818608E-02  0.1035686E+00
         -2   -1    0    0    0  501 -0.00000000000E+00  0.00000000000E+00  0.31023216989E+03  0.31023216989E+03  0.00000000000E+00 0.  1.
          2   -1    0    0  502    0  0.00000000000E+00 -0.00000000000E+00 -0.99174117135E+03  0.99174117135E+03  0.00000000000E+00 0. -1.
    9000007    2    1    2  502    0  0.47969599564E+02  0.13311246076E+03  0.78597783953E+02  0.43146639989E+03  0.39995703882E+03 0.  0.
    9000005    1    3    3    0    0 -0.10756417399E+02  0.43126146553E+01 -0.15655915397E+03  0.15699066166E+03  0.99999687468E+00 0.  0.
          4    1    3    3  502    0  0.58726016963E+02  0.12879984611E+03  0.23515693793E+03  0.27447573824E+03  0.00000000000E+00 0.  1.
   -9000007    1    1    2    0  501 -0.47969599564E+02 -0.13311246076E+03 -0.76010678541E+03  0.87050694134E+03  0.40000000000E+03 0. -1.
<mgrwt>
<rscale>  2 0.42426740E+03</rscale>
<asrwt>0</asrwt>
<pdfrwt beam="1">  1        2 0.15257556E+00 0.42426740E+03</pdfrwt>
<pdfrwt beam="2">  1       -2 0.47728027E-01 0.42426740E+03</pdfrwt>
<totfact> 0.11077774E+02</totfact>
</mgrwt>
</event>
<event>
 6    1  0.9022793E-004  0.4021070E+03  0.7818608E-02  0.1043053E+00
         -1   -1    0    0    0  501 -0.00000000000E+00  0.00000000000E+00  0.25427006014E+03  0.25427006014E+03  0.00000000000E+00 0. -1.
          1   -1    0    0  502    0  0.00000000000E+00 -0.00000000000E+00 -0.64746524953E+03  0.64746524953E+03  0.00000000000E+00 0.  1.
    9000007    2    1    2  502    0  0.41521218695E+02 -0.11874597615E+01 -0.13631514073E+03  0.42454270594E+03  0.39991157761E+03 0.  0.
    9000005    1    3    3    0    0  0.11563564803E+03 -0.99930267387E+01  0.11438934497E+03  0.16296437007E+03  0.99999687468E+00 0.  0.
          4    1    3    3  502    0 -0.74114429331E+02  0.88055669772E+01 -0.25070448569E+03  0.26157833586E+03  0.00000000000E+00 0.  1.
   -9000007    1    1    2    0  501 -0.41521218695E+02  0.11874597615E+01 -0.25688004867E+03  0.47719260374E+03  0.40000000000E+03 0.  1.
<mgrwt>
<rscale>  2 0.40210702E+03</rscale>
<asrwt>0</asrwt>
<pdfrwt beam="1">  1        1 0.99610038E-01 0.40210702E+03</pdfrwt>
<pdfrwt beam="2">  1       -1 0.39118471E-01 0.40210702E+03</pdfrwt>
<totfact> 0.20187780E+02</totfact>
</mgrwt>
</event>
<event>
 6    1  0.9022793E-004  0.5331244E+03  0.7818608E-02  0.1005477E+00
          2   -1    0    0  502    0  0.00000000000E+00  0.00000000000E+00  0.27826774051E+04  0.27826774051E+04  0.00000000000E+00 0. -1.
         -2   -1    0    0    0  501 -0.00000000000E+00 -0.00000000000E+00 -0.16557912397E+04  0.16557912397E+04  0.00000000000E+00 0.  1.
    9000007    2    1    2  502    0 -0.29466724989E+03  0.19356993275E+03 -0.15862583100E+04  0.16734277677E+04  0.39980865517E+03 0.  0.
    9000005    1    3    3    0    0 -0.28762496030E+03  0.20137639724E+03 -0.66406914571E+03  0.75117867477E+03  0.99999687468E+00 0.  0.
          4    1    3    3  502    0 -0.70422895899E+01 -0.78064644899E+01 -0.92218916431E+03  0.92224909298E+03  0.00000000000E+00 0.  1.
   -9000007    1    1    2    0  501  0.29466724989E+03 -0.19356993275E+03  0.27131444754E+04  0.27650408770E+04  0.40000000000E+03 0. -1.
<mgrwt>
<rscale>  2 0.53312435E+03</rscale>
<asrwt>0</asrwt>
<pdfrwt beam="1">  1        2 0.42810422E+00 0.53312435E+03</pdfrwt>
<pdfrwt beam="2">  1       -2 0.25473711E+00 0.53312435E+03</pdfrwt>
<totfact> 0.16498090E-01</totfact>
</mgrwt>
</event>
<event>
 6    1  0.9022793E-004  0.4380592E+03  0.7818608E-02  0.1031344E+00
         -2   -1    0    0    0  501 -0.00000000000E+00  0.00000000000E+00  0.14336892581E+03  0.14336892581E+03  0.00000000000E+00 0.  1.
          2   -1    0    0  502    0  0.00000000000E+00 -0.00000000000E+00 -0.14356349111E+04  0.14356349111E+04  0.00000000000E+00 0. -1.
    9000007    2    1    2  502    0  0.88229195883E+02  0.15496728468E+03 -0.85167134275E+03  0.95777691432E+03  0.40024154109E+03 0.  0.
    9000005    1    3    3    0    0 -0.10677892452E+03 -0.42077665363E+02 -0.85874186382E+02  0.14334449597E+03  0.99999687468E+00 0.  0.
          4    1    3    3  502    0  0.19500812040E+03  0.19704495004E+03 -0.76579715637E+03  0.81443241835E+03  0.00000000000E+00 0.  1.
   -9000007    1    1    2    0  501 -0.88229195883E+02 -0.15496728468E+03 -0.44059464259E+03  0.62122692263E+03  0.40000000000E+03 0.  1.
<mgrwt>
<rscale>  2 0.43805921E+03</rscale>
<asrwt>0</asrwt>
<pdfrwt beam="1">  1        2 0.22086690E+00 0.43805921E+03</pdfrwt>
<pdfrwt beam="2">  1       -2 0.22056759E-01 0.43805921E+03</pdfrwt>
<totfact> 0.25796619E+02</totfact>
</mgrwt>
</event>
<event>
 6    1  0.9022793E-004  0.6756664E+03  0.7818608E-02  0.9759775E-01
          1   -1    0    0  502    0  0.00000000000E+00  0.00000000000E+00  0.20589768948E+04  0.20589768948E+04  0.00000000000E+00 0.  1.
         -1   -1    0    0    0  501 -0.00000000000E+00 -0.00000000000E+00 -0.22312479921E+03  0.22312479921E+03  0.00000000000E+00 0. -1.
    9000007    2    1    2  502    0  0.51849951462E+03  0.16685893890E+03  0.82736589376E+03  0.10681296715E+04  0.39960357960E+03 0.  0.
    9000005    1    3    3    0    0  0.58901537404E+02  0.16237765677E+03  0.79114914228E+02  0.18998964228E+03  0.99999687468E+00 0.  0.
          4    1    3    3  502    0  0.45959797722E+03  0.44812821263E+01  0.74825097953E+03  0.87814002922E+03  0.00000000000E+00 0.  1.
   -9000007    1    1    2    0  501 -0.51849951462E+03 -0.16685893890E+03  0.10084862018E+04  0.12139720225E+04  0.40000000000E+03 0.  1.
<mgrwt>
<rscale>  2 0.67566644E+03</rscale>
<asrwt>0</asrwt>
<pdfrwt beam="1">  1        1 0.31676566E+00 0.67566644E+03</pdfrwt>
<pdfrwt beam="2">  1       -1 0.34326893E-01 0.67566644E+03</pdfrwt>
<totfact> 0.22966494E+01</totfact>
</mgrwt>
</event>
<event>
 6    1  0.9022793E-004  0.4791131E+03  0.7818608E-02  0.1019379E+00
          1   -1    0    0  502    0  0.00000000000E+00  0.00000000000E+00  0.10903531820E+04  0.10903531820E+04  0.00000000000E+00 0.  1.
         -1   -1    0    0    0  501 -0.00000000000E+00 -0.00000000000E+00 -0.21113788709E+03  0.21113788709E+03  0.00000000000E+00 0. -1.
    9000007    2    1    2  502    0  0.21384828795E+02  0.26040633361E+03  0.40589303150E+03  0.62895650900E+03  0.40319767820E+03 0.  0.
    9000005    1    3    3    0    0  0.13815914156E+03  0.13948305476E+03  0.74105808260E+01  0.19646726869E+03  0.99999687468E+00 0.  0.
          4    1    3    3  502    0 -0.11677431277E+03  0.12092327885E+03  0.39848245067E+03  0.43248924031E+03  0.00000000000E+00 0.  1.
   -9000007    1    1    2    0  501 -0.21384828795E+02 -0.26040633361E+03  0.47332226341E+03  0.67253456010E+03  0.40000000000E+03 0. -1.
<mgrwt>
<rscale>  2 0.47911310E+03</rscale>
<asrwt>0</asrwt>
<pdfrwt beam="1">  1        1 0.16774664E+00 0.47911310E+03</pdfrwt>
<pdfrwt beam="2">  1       -1 0.32482752E-01 0.47911310E+03</pdfrwt>
<totfact> 0.11952616E+02</totfact>
</mgrwt>
</event>
<event>
 6    1  0.9022793E-004  0.4358510E+03  0.7818608E-02  0.1032027E+00
          2   -1    0    0  502    0  0.00000000000E+00  0.00000000000E+00  0.17172501540E+03  0.17172501540E+03  0.00000000000E+00 0.  1.
         -2   -1    0    0    0  501 -0.00000000000E+00 -0.00000000000E+00 -0.11423110152E+04  0.11423110152E+04  0.00000000000E+00 0. -1.
    9000007    2    1    2  502    0 -0.47046782396E+01 -0.17287640806E+03 -0.60214432212E+03  0.74337180682E+03  0.40014431403E+03 0.  0.
    9000005    1    3    3    0    0  0.37599931290E+02 -0.79406718312E+02 -0.63076634644E+03  0.63685662872E+03  0.99999687468E+00 0.  0.
          4    1    3    3  502    0 -0.42304609530E+02 -0.93469689750E+02  0.28622024323E+02  0.10651517810E+03  0.00000000000E+00 0.  1.
   -9000007    1    1    2    0  501  0.47046782396E+01  0.17287640806E+03 -0.36844167771E+03  0.57066422381E+03  0.40000000000E+03 0. -1.
<mgrwt>
<rscale>  2 0.43585102E+03</rscale>
<asrwt>0</asrwt>
<pdfrwt beam="1">  1        2 0.26419232E-01 0.43585102E+03</pdfrwt>
<pdfrwt beam="2">  1       -2 0.17574016E+00 0.43585102E+03</pdfrwt>
<totfact> 0.41438275E+01</totfact>
</mgrwt>
</event>
<event>
 6    1  0.9022793E-004  0.4229533E+03  0.7818608E-02  0.1036109E+00
         -1   -1    0    0    0  501 -0.00000000000E+00  0.00000000000E+00  0.15205975275E+03  0.15205975275E+03  0.00000000000E+00 0.  1.
          1   -1    0    0  502    0  0.00000000000E+00 -0.00000000000E+00 -0.11791613627E+04  0.11791613627E+04  0.00000000000E+00 0. -1.
    9000007    2    1    2  502    0  0.13194042842E+03  0.34716912403E+02 -0.54590507384E+03  0.69078091761E+03  0.40068988735E+03 0.  0.
    9000005    1    3    3    0    0  0.92436708735E+01 -0.17705976517E+03 -0.20367575327E+03  0.27003780912E+03  0.99999687468E+00 0.  0.
          4    1    3    3  502    0  0.12269675755E+03  0.21177667757E+03 -0.34222932058E+03  0.42074310849E+03  0.00000000000E+00 0.  1.
   -9000007    1    1    2    0  501 -0.13194042842E+03 -0.34716912403E+02 -0.48119653612E+03  0.64044019786E+03  0.40000000000E+03 0. -1.
<mgrwt>
<rscale>  2 0.42295333E+03</rscale>
<asrwt>0</asrwt>
<pdfrwt beam="1">  1        1 0.18140944E+00 0.42295333E+03</pdfrwt>
<pdfrwt beam="2">  1       -1 0.23393809E-01 0.42295333E+03</pdfrwt>
<totfact> 0.18176304E+02</totfact>
</mgrwt>
</event>
<event>
 6    1  0.9022793E-004  0.4044313E+03  0.7818608E-02  0.1042256E+00
         -1   -1    0    0    0  501 -0.00000000000E+00  0.00000000000E+00  0.13786392107E+03  0.13786392107E+03  0.00000000000E+00 0.  1.
          1   -1    0    0  502    0  0.00000000000E+00 -0.00000000000E+00 -0.11887972473E+04  0.11887972473E+04  0.00000000000E+00 0. -1.
    9000007    2    1    2  502    0  0.17591083791E+02 -0.57995682714E+02 -0.49563939359E+03  0.63962092423E+03  0.39972937444E+03 0.  0.
    9000005    1    3    3    0    0 -0.11840838738E+02  0.16554011705E+03 -0.29167742826E+03  0.33558971672E+03  0.99999687468E+00 0.  0.
          4    1    3    3  502    0  0.29431922529E+02 -0.22353579977E+03 -0.20396196533E+03  0.30403120751E+03  0.00000000000E+00 0.  1.
   -9000007    1    1    2    0  501 -0.17591083791E+02  0.57995682714E+02 -0.55529393268E+03  0.68704024417E+03  0.40000000000E+03 0.  1.
<mgrwt>
<rscale>  2 0.40443132E+03</rscale>
<asrwt>0</asrwt>
<pdfrwt beam="1">  1        1 0.18289188E+00 0.40443132E+03</pdfrwt>
<pdfrwt beam="2">  1       -1 0.21209835E-01 0.40443132E+03</pdfrwt>
<totfact> 0.21108715E+02</totfact>
</mgrwt>
</event>
<event>
 6    1  0.9022793E-004  0.4694711E+03  0.7818608E-02  0.1022070E+00
          1   -1    0    0  502    0  0.00000000000E+00  0.00000000000E+00  0.14812772514E+04  0.14812772514E+04  0.00000000000E+00 0. -1.
         -1   -1    0    0    0  501 -0.00000000000E+00 -0.00000000000E+00 -0.14879692887E+03  0.14879692887E+03  0.00000000000E+00 0.  1.
    9000007    2    1    2  502    0  0.24214420513E+03  0.42194129469E+02  0.66182082671E+03  0.81141776883E+03  0.39997228437E+03 0.  0.
    9000005    1    3    3    0    0  0.33588837743E+03 -0.46799837635E+02  0.45407170085E+03  0.56673921375E+03  0.99999687468E+00 0.  0.
          4    1    3    3  502    0 -0.93744172296E+02  0.88993967104E+02  0.20774912586E+03  0.24467855508E+03  0.00000000000E+00 0.  1.
   -9000007    1    1    2    0  501 -0.24214420513E+03 -0.42194129469E+02  0.67065949581E+03  0.81865641142E+03  0.40000000000E+03 0.  1.
<mgrwt>
<rscale>  2 0.46947106E+03</rscale>
<asrwt>0</asrwt>
<pdfrwt beam="1">  1        1 0.22788880E+00 0.46947106E+03</pdfrwt>
<pdfrwt beam="2">  1       -1 0.22891836E-01 0.46947106E+03</pdfrwt>
<totfact> 0.11563062E+02</totfact>
</mgrwt>
</event>
<event>
 6    1  0.9022793E-004  0.6149893E+03  0.7818608E-02  0.9874787E-01
          1   -1    0    0  502    0  0.00000000000E+00  0.00000000000E+00  0.15063810133E+04  0.15063810133E+04  0.00000000000E+00 0. -1.
         -1   -1    0    0    0  501 -0.00000000000E+00 -0.00000000000E+00 -0.27885898151E+03  0.27885898151E+03  0.00000000000E+00 0.  1.
    9000007    2    1    2  502    0  0.46296999221E+03 -0.64267373693E+02  0.89533562373E+03  0.10860838472E+04  0.39935039141E+03 0.  0.
    9000005    1    3    3    0    0  0.53156187365E+02 -0.18101328165E+03  0.27428318923E+03  0.33290187184E+03  0.99999687468E+00 0.  0.
          4    1    3    3  502    0  0.40981380485E+03  0.11674590796E+03  0.62105243450E+03  0.75318197540E+03  0.00000000000E+00 0.  1.
   -9000007    1    1    2    0  501 -0.46296999221E+03  0.64267373693E+02  0.33218640811E+03  0.69915614761E+03  0.40000000000E+03 0.  1.
<mgrwt>
<rscale>  2 0.61498926E+03</rscale>
<asrwt>0</asrwt>
<pdfrwt beam="1">  1        1 0.23175092E+00 0.61498926E+03</pdfrwt>
<pdfrwt beam="2">  1       -1 0.42901382E-01 0.61498926E+03</pdfrwt>
<totfact> 0.36358043E+01</totfact>
</mgrwt>
</event>
<event>
 6    1  0.9022793E-004  0.4627715E+03  0.7818608E-02  0.1023980E+00
          1   -1    0    0  502    0  0.00000000000E+00  0.00000000000E+00  0.17500652704E+04  0.17500652704E+04  0.00000000000E+00 0. -1.
         -1   -1    0    0    0  501 -0.00000000000E+00 -0.00000000000E+00 -0.12643778702E+03  0.12643778702E+03  0.00000000000E+00 0.  1.
    9000007    2    1    2  502    0  0.22074724274E+03 -0.73126245341E+02  0.64369436489E+03  0.79283073165E+03  0.40020162509E+03 0.  0.
    9000005    1    3    3    0    0  0.33397690739E+03 -0.85975206314E+02  0.52627715870E+03  0.62920661037E+03  0.99999687468E+00 0.  0.
          4    1    3    3  502    0 -0.11322966465E+03  0.12848960973E+02  0.11741720619E+03  0.16362412128E+03  0.00000000000E+00 0.  1.
   -9000007    1    1    2    0  501 -0.22074724274E+03  0.73126245341E+02  0.97993311854E+03  0.10836723258E+04  0.40000000000E+03 0. -1.
<mgrwt>
<rscale>  2 0.46277149E+03</rscale>
<asrwt>0</asrwt>
<pdfrwt beam="1">  1        1 0.26924079E+00 0.46277149E+03</pdfrwt>
<pdfrwt beam="2">  1       -1 0.19451968E-01 0.46277149E+03</pdfrwt>
<totfact> 0.10028124E+02</totfact>
</mgrwt>
</event>
<event>
 6    1  0.9022793E-004  0.4538684E+03  0.7818608E-02  0.1026575E+00
         -2   -1    0    0    0  501 -0.00000000000E+00  0.00000000000E+00  0.85269944980E+03  0.85269944980E+03  0.00000000000E+00 0.  1.
          2   -1    0    0  502    0  0.00000000000E+00 -0.00000000000E+00 -0.48886020152E+03  0.48886020152E+03  0.00000000000E+00 0. -1.
    9000007    2    1    2  502    0 -0.14210274729E+03 -0.15927563272E+03  0.65908284408E+03  0.80051372089E+03  0.40108615535E+03 0.  0.
    9000005    1    3    3    0    0 -0.47382575165E+02  0.13502194390E+03  0.17399386539E+03  0.22527960172E+03  0.99999687468E+00 0.  0.
          4    1    3    3  502    0 -0.94720172123E+02 -0.29429757662E+03  0.48508897869E+03  0.57523411917E+03  0.00000000000E+00 0.  1.
   -9000007    1    1    2    0  501  0.14210274729E+03  0.15927563272E+03 -0.29524359581E+03  0.54104593043E+03  0.40000000000E+03 0. -1.
<mgrwt>
<rscale>  2 0.45386838E+03</rscale>
<asrwt>0</asrwt>
<pdfrwt beam="1">  1        2 0.75209262E-01 0.45386838E+03</pdfrwt>
<pdfrwt beam="2">  1       -2 0.13118453E+00 0.45386838E+03</pdfrwt>
<totfact> 0.27983497E+01</totfact>
</mgrwt>
</event>
<event>
 6    1  0.9022793E-004  0.4408525E+03  0.7818608E-02  0.1030486E+00
          2   -1    0    0  502    0  0.00000000000E+00  0.00000000000E+00  0.15232563435E+04  0.15232563435E+04  0.00000000000E+00 0. -1.
         -2   -1    0    0    0  501 -0.00000000000E+00 -0.00000000000E+00 -0.12789382703E+03  0.12789382703E+03  0.00000000000E+00 0.  1.
    9000007    2    1    2  502    0  0.15892743220E+03 -0.92336923184E+02  0.65841734406E+03  0.79273755224E+03  0.40141673071E+03 0.  0.
    9000005    1    3    3    0    0  0.17535879170E+02 -0.32787041698E-01 -0.55972484673E+02  0.58663678434E+02  0.99999687468E+00 0.  0.
          4    1    3    3  502    0  0.14139155303E+03 -0.92304136142E+02  0.71438982873E+03  0.73407387381E+03  0.00000000000E+00 0.  1.
   -9000007    1    1    2    0  501 -0.15892743220E+03  0.92336923184E+02  0.73694517246E+03  0.85841261832E+03  0.40000000000E+03 0.  1.
<mgrwt>
<rscale>  2 0.44085247E+03</rscale>
<asrwt>0</asrwt>
<pdfrwt beam="1">  1        2 0.23434712E+00 0.44085247E+03</pdfrwt>
<pdfrwt beam="2">  1       -2 0.19675974E-01 0.44085247E+03</pdfrwt>
<totfact> 0.28175565E+02</totfact>
</mgrwt>
</event>
<event>
 6    1  0.9022793E-004  0.4178845E+03  0.7818608E-02  0.1037757E+00
          2   -1    0    0  502    0  0.00000000000E+00  0.00000000000E+00  0.13035158968E+04  0.13035158968E+04  0.00000000000E+00 0.  1.
         -2   -1    0    0    0  501 -0.00000000000E+00 -0.00000000000E+00 -0.20661868316E+03  0.20661868316E+03  0.00000000000E+00 0. -1.
    9000007    2    1    2  502    0 -0.48561533774E+01 -0.12566798595E+03  0.99509671601E+02  0.42819283757E+03  0.39702758908E+03 0.  0.
    9000005    1    3    3    0    0 -0.73673770132E+02 -0.24590889609E+03  0.12784597010E+03  0.28678319624E+03  0.99999687468E+00 0.  0.
          4    1    3    3  502    0  0.68817616755E+02  0.12024091014E+03 -0.28336298503E+02  0.14140964133E+03  0.00000000000E+00 0.  1.
   -9000007    1    1    2    0  501  0.48561533774E+01  0.12566798595E+03  0.99738754204E+03  0.10819417424E+04  0.40000000000E+03 0.  1.
<mgrwt>
<rscale>  2 0.41788451E+03</rscale>
<asrwt>0</asrwt>
<pdfrwt beam="1">  1        2 0.20054090E+00 0.41788451E+03</pdfrwt>
<pdfrwt beam="2">  1       -2 0.31787490E-01 0.41788451E+03</pdfrwt>
<totfact> 0.15849319E+02</totfact>
</mgrwt>
</event>
<event>
 6    1  0.9022793E-004  0.4950071E+03  0.7818608E-02  0.1015090E+00
         -2   -1    0    0    0  501 -0.00000000000E+00  0.00000000000E+00  0.20976118950E+03  0.20976118950E+03  0.00000000000E+00 0. -1.
          2   -1    0    0  502    0  0.00000000000E+00 -0.00000000000E+00 -0.11862457949E+04  0.11862457949E+04  0.00000000000E+00 0.  1.
    9000007    2    1    2  502    0 -0.66523710138E+02  0.28418194620E+03 -0.57430823141E+03  0.75809584770E+03  0.39961805150E+03 0.  0.
    9000005    1    3    3    0    0 -0.85559681925E+02 -0.80861595660E+02 -0.76143891319E+02  0.14020680798E+03  0.99999687468E+00 0.  0.
          4    1    3    3  502    0  0.19035971787E+02  0.36504354186E+03 -0.49816434010E+03  0.61788903973E+03  0.00000000000E+00 0.  1.
   -9000007    1    1    2    0  501  0.66523710138E+02 -0.28418194620E+03 -0.40217637403E+03  0.63791113675E+03  0.40000000000E+03 0. -1.
<mgrwt>
<rscale>  2 0.49500710E+03</rscale>
<asrwt>0</asrwt>
<pdfrwt beam="1">  1        2 0.18249935E+00 0.49500710E+03</pdfrwt>
<pdfrwt beam="2">  1       -2 0.32270953E-01 0.49500710E+03</pdfrwt>
<totfact> 0.17836128E+02</totfact>
</mgrwt>
</event>
<event>
 6    1  0.9022793E-004  0.4127990E+03  0.7818608E-02  0.1039436E+00
          2   -1    0    0  502    0  0.00000000000E+00  0.00000000000E+00  0.17581349783E+03  0.17581349783E+03  0.00000000000E+00 0. -1.
         -2   -1    0    0    0  501 -0.00000000000E+00 -0.00000000000E+00 -0.10078034684E+04  0.10078034684E+04  0.00000000000E+00 0.  1.
    9000007    2    1    2  502    0 -0.47513321399E+02  0.91210541130E+02 -0.53157739097E+03  0.67290707157E+03  0.39956542124E+03 0.  0.
    9000005    1    3    3    0    0  0.14000304591E+03  0.13888287995E+03 -0.15990381022E+03  0.25388882552E+03  0.99999687468E+00 0.  0.
          4    1    3    3  502    0 -0.18751636730E+03 -0.47672338822E+02 -0.37167358075E+03  0.41901824605E+03  0.00000000000E+00 0.  1.
   -9000007    1    1    2    0  501  0.47513321399E+02 -0.91210541130E+02 -0.30041257959E+03  0.51070989465E+03  0.40000000000E+03 0. -1.
<mgrwt>
<rscale>  2 0.41279905E+03</rscale>
<asrwt>0</asrwt>
<pdfrwt beam="1">  1        2 0.27048230E-01 0.41279905E+03</pdfrwt>
<pdfrwt beam="2">  1       -2 0.15504669E+00 0.41279905E+03</pdfrwt>
<totfact> 0.56792597E+01</totfact>
</mgrwt>
</event>
<event>
 6    1  0.9022793E-004  0.6830946E+03  0.7818608E-02  0.9746587E-01
         -1   -1    0    0    0  501 -0.00000000000E+00  0.00000000000E+00  0.36640544970E+03  0.36640544970E+03  0.00000000000E+00 0.  1.
          1   -1    0    0  502    0  0.00000000000E+00 -0.00000000000E+00 -0.31855087223E+04  0.31855087223E+04  0.00000000000E+00 0. -1.
    9000007    2    1    2  502    0  0.27854469666E+03 -0.47920815146E+03 -0.33281586060E+02  0.68345987227E+03  0.39847475776E+03 0.  0.
    9000005    1    3    3    0    0 -0.58930074949E+02  0.28387044619E+02  0.27357532911E+02  0.70908480708E+02  0.99999687468E+00 0.  0.
          4    1    3    3  502    0  0.33747477161E+03 -0.50759519608E+03 -0.60639118970E+02  0.61255139156E+03  0.00000000000E+00 0.  1.
   -9000007    1    1    2    0  501 -0.27854469666E+03  0.47920815146E+03 -0.27858216866E+04  0.28684542998E+04  0.40000000000E+03 0. -1.
<mgrwt>
<rscale>  2 0.68309463E+03</rscale>
<asrwt>0</asrwt>
<pdfrwt beam="1">  1        1 0.49007826E+00 0.68309463E+03</pdfrwt>
<pdfrwt beam="2">  1       -1 0.56370070E-01 0.68309463E+03</pdfrwt>
<totfact> 0.15231811E+00</totfact>
</mgrwt>
</event>
<event>
 6    1  0.9022793E-004  0.4328513E+03  0.7818608E-02  0.1032963E+00
          2   -1    0    0  502    0  0.00000000000E+00  0.00000000000E+00  0.35463927340E+04  0.35463927340E+04  0.00000000000E+00 0.  1.
         -2   -1    0    0    0  501 -0.00000000000E+00 -0.00000000000E+00 -0.53191118886E+02  0.53191118886E+02  0.00000000000E+00 0. -1.
    9000007    2    1    2  502    0  0.17489461091E+02 -0.16576809747E+03  0.15966083184E+04  0.16541144811E+04  0.39893815415E+03 0.  0.
    9000005    1    3    3    0    0  0.19266924855E+02 -0.29837095397E+03  0.11499970089E+04  0.11882300119E+04  0.99999687468E+00 0.  0.
          4    1    3    3  502    0 -0.17774637638E+01  0.13260285650E+03  0.44661130952E+03  0.46588446928E+03  0.00000000000E+00 0.  1.
   -9000007    1    1    2    0  501 -0.17489461091E+02  0.16576809747E+03  0.18965932966E+04  0.19454693717E+04  0.40000000000E+03 0.  1.
<mgrwt>
<rscale>  2 0.43285135E+03</rscale>
<asrwt>0</asrwt>
<pdfrwt beam="1">  1        2 0.54559870E+00 0.43285135E+03</pdfrwt>
<pdfrwt beam="2">  1       -2 0.81832518E-02 0.43285135E+03</pdfrwt>
<totfact> 0.81937007E+01</totfact>
</mgrwt>
</event>
<event>
 6    1  0.9022793E-004  0.5502503E+03  0.7818608E-02  0.1001436E+00
         -2   -1    0    0    0  501 -0.00000000000E+00  0.00000000000E+00  0.40727145998E+03  0.40727145998E+03  0.00000000000E+00 0. -1.
          2   -1    0    0  502    0  0.00000000000E+00 -0.00000000000E+00 -0.79509400236E+03  0.79509400236E+03  0.00000000000E+00 0.  1.
    9000007    2    1    2  502    0 -0.21671914663E+03 -0.30957158397E+03 -0.40647996501E+02  0.55172583902E+03  0.39993422923E+03 0.  0.
    9000005    1    3    3    0    0  0.33007750722E+02 -0.93821946089E+01  0.12347124383E+03  0.12815492667E+03  0.99999687468E+00 0.  0.
          4    1    3    3  502    0 -0.24972689735E+03 -0.30018938936E+03 -0.16411924033E+03  0.42357091235E+03  0.00000000000E+00 0.  1.
   -9000007    1    1    2    0  501  0.21671914663E+03  0.30957158397E+03 -0.34717454588E+03  0.65063962331E+03  0.40000000000E+03 0. -1.
<mgrwt>
<rscale>  2 0.55025035E+03</rscale>
<asrwt>0</asrwt>
<pdfrwt beam="1">  1        2 0.12232215E+00 0.55025035E+03</pdfrwt>
<pdfrwt beam="2">  1       -2 0.62657148E-01 0.55025035E+03</pdfrwt>
<totfact> 0.84415964E+01</totfact>
</mgrwt>
</event>
<event>
 6    1  0.9022793E-004  0.6240320E+03  0.7818608E-02  0.9856765E-01
          1   -1    0    0  502    0  0.00000000000E+00  0.00000000000E+00  0.14559240807E+04  0.14559240807E+04  0.00000000000E+00 0. -1.
         -1   -1    0    0    0  501 -0.00000000000E+00 -0.00000000000E+00 -0.28483211646E+03  0.28483211646E+03  0.00000000000E+00 0.  1.
    9000007    2    1    2  502    0 -0.34561679075E+03  0.33118609188E+03  0.37085512818E+03  0.72610641163E+03  0.40070163639E+03 0.  0.
    9000005    1    3    3    0    0 -0.22574195009E+03  0.19459062247E+02  0.31416396226E+03  0.38734749038E+03  0.99999687468E+00 0.  0.
          4    1    3    3  502    0 -0.11987484066E+03  0.31172702964E+03  0.56691165926E+02  0.33875892124E+03  0.00000000000E+00 0.  1.
   -9000007    1    1    2    0  501  0.34561679075E+03 -0.33118609188E+03  0.80023683610E+03  0.10146497856E+04  0.40000000000E+03 0. -1.
<mgrwt>
<rscale>  2 0.62403204E+03</rscale>
<asrwt>0</asrwt>
<pdfrwt beam="1">  1        1 0.22398832E+00 0.62403204E+03</pdfrwt>
<pdfrwt beam="2">  1       -1 0.43820326E-01 0.62403204E+03</pdfrwt>
<totfact> 0.37807115E+01</totfact>
</mgrwt>
</event>
<event>
 6    1  0.9022793E-004  0.4286698E+03  0.7818608E-02  0.1034281E+00
          2   -1    0    0  502    0  0.00000000000E+00  0.00000000000E+00  0.13723924776E+04  0.13723924776E+04  0.00000000000E+00 0.  1.
         -2   -1    0    0    0  501 -0.00000000000E+00 -0.00000000000E+00 -0.13391164169E+03  0.13391164169E+03  0.00000000000E+00 0. -1.
    9000007    2    1    2  502    0  0.85148109400E+02  0.12898132534E+03  0.62717774742E+03  0.75959276353E+03  0.39967844166E+03 0.  0.
    9000005    1    3    3    0    0  0.77099124408E+01  0.26345858697E+03  0.31310075037E+03  0.40927124218E+03  0.99999687468E+00 0.  0.
          4    1    3    3  502    0  0.77438196959E+02 -0.13447726163E+03  0.31407699705E+03  0.35032152135E+03  0.00000000000E+00 0.  1.
   -9000007    1    1    2    0  501 -0.85148109400E+02 -0.12898132534E+03  0.61130308850E+03  0.74671135577E+03  0.40000000000E+03 0. -1.
<mgrwt>
<rscale>  2 0.42866976E+03</rscale>
<asrwt>0</asrwt>
<pdfrwt beam="1">  1        2 0.21113729E+00 0.42866976E+03</pdfrwt>
<pdfrwt beam="2">  1       -2 0.20601792E-01 0.42866976E+03</pdfrwt>
<totfact> 0.31538708E+02</totfact>
</mgrwt>
</event>
<event>
 6    1  0.9022793E-004  0.4228373E+03  0.7818608E-02  0.1036147E+00
          2   -1    0    0  502    0  0.00000000000E+00  0.00000000000E+00  0.11257261218E+04  0.11257261218E+04  0.00000000000E+00 0.  1.
         -2   -1    0    0    0  501 -0.00000000000E+00 -0.00000000000E+00 -0.16078906990E+03  0.16078906990E+03  0.00000000000E+00 0. -1.
    9000007    2    1    2  502    0 -0.10849598229E+03 -0.85033392742E+02  0.41106060098E+03  0.58953514971E+03  0.39947317684E+03 0.  0.
    9000005    1    3    3    0    0 -0.21746375615E+02 -0.17603686816E+03  0.19691883336E+02  0.17846751544E+03  0.99999687468E+00 0.  0.
          4    1    3    3  502    0 -0.86749606678E+02  0.91003475419E+02  0.39136871764E+03  0.41106763427E+03  0.00000000000E+00 0.  1.
   -9000007    1    1    2    0  501  0.10849598229E+03  0.85033392742E+02  0.55387645094E+03  0.69698004201E+03  0.40000000000E+03 0.  1.
<mgrwt>
<rscale>  2 0.42283725E+03</rscale>
<asrwt>0</asrwt>
<pdfrwt beam="1">  1        2 0.17318863E+00 0.42283725E+03</pdfrwt>
<pdfrwt beam="2">  1       -2 0.24736781E-01 0.42283725E+03</pdfrwt>
<totfact> 0.31666059E+02</totfact>
</mgrwt>
</event>
<event>
 6    1  0.9022793E-004  0.4119599E+03  0.7818608E-02  0.1039715E+00
         -1   -1    0    0    0  501 -0.00000000000E+00  0.00000000000E+00  0.82531448258E+02  0.82531448258E+02  0.00000000000E+00 0.  1.
          1   -1    0    0  502    0  0.00000000000E+00 -0.00000000000E+00 -0.20573338216E+04  0.20573338216E+04  0.00000000000E+00 0. -1.
    9000007    2    1    2  502    0 -0.96024013087E+02  0.20495446406E+02 -0.96383976367E+03  0.10482215218E+04  0.40017570443E+03 0.  0.
    9000005    1    3    3    0    0 -0.17143808654E+03 -0.76415420886E+02 -0.87936611869E+03  0.89917523584E+03  0.99999687468E+00 0.  0.
          4    1    3    3  502    0  0.75414073452E+02  0.96910867293E+02 -0.84473644979E+02  0.14904628600E+03  0.00000000000E+00 0.  1.
   -9000007    1    1    2    0  501  0.96024013087E+02 -0.20495446406E+02 -0.10109626096E+04  0.10916437480E+04  0.40000000000E+03 0. -1.
<mgrwt>
<rscale>  2 0.41195990E+03</rscale>
<asrwt>0</asrwt>
<pdfrwt beam="1">  1        1 0.31651286E+00 0.41195990E+03</pdfrwt>
<pdfrwt beam="2">  1       -1 0.12697147E-01 0.41195990E+03</pdfrwt>
<totfact> 0.12637920E+02</totfact>
</mgrwt>
</event>
<event>
 6    1  0.9022793E-004  0.4879319E+03  0.7818608E-02  0.1016978E+00
         -2   -1    0    0    0  501 -0.00000000000E+00  0.00000000000E+00  0.11661027678E+03  0.11661027678E+03  0.00000000000E+00 0. -1.
          2   -1    0    0  502    0  0.00000000000E+00 -0.00000000000E+00 -0.20459772364E+04  0.20459772364E+04  0.00000000000E+00 0.  1.
    9000007    2    1    2  502    0  0.19301526788E+03  0.20211281448E+03 -0.10143463935E+04  0.11255884197E+04  0.39993274580E+03 0.  0.
    9000005    1    3    3    0    0 -0.41416227612E+02  0.35970091208E+02  0.15009760344E+02  0.56880965801E+02  0.99999687468E+00 0.  0.
          4    1    3    3  502    0  0.23443149549E+03  0.16614272327E+03 -0.10293561539E+04  0.10687074539E+04  0.00000000000E+00 0.  1.
   -9000007    1    1    2    0  501 -0.19301526788E+03 -0.20211281448E+03 -0.91502056607E+03  0.10369990934E+04  0.40000000000E+03 0. -1.
<mgrwt>
<rscale>  2 0.48793194E+03</rscale>
<asrwt>0</asrwt>
<pdfrwt beam="1">  1        2 0.31476574E+00 0.48793194E+03</pdfrwt>
<pdfrwt beam="2">  1       -2 0.17940042E-01 0.48793194E+03</pdfrwt>
<totfact> 0.17172869E+02</totfact>
</mgrwt>
</event>
<event>
 6    1  0.9022793E-004  0.5131036E+03  0.7818608E-02  0.1010414E+00
         -2   -1    0    0    0  501 -0.00000000000E+00  0.00000000000E+00  0.13897171816E+03  0.13897171816E+03  0.00000000000E+00 0.  1.
          2   -1    0    0  502    0  0.00000000000E+00 -0.00000000000E+00 -0.18950516467E+04  0.18950516467E+04  0.00000000000E+00 0. -1.
    9000007    2    1    2  502    0 -0.32090246137E+03 -0.16774776457E+02 -0.89615288970E+03  0.10326571506E+04  0.40003875590E+03 0.  0.
    9000005    1    3    3    0    0 -0.25820462473E+03  0.73627449971E+02 -0.88172379136E+03  0.92169868931E+03  0.99999687468E+00 0.  0.
          4    1    3    3  502    0 -0.62697836643E+02 -0.90402226428E+02 -0.14429098331E+02  0.11095846133E+03  0.00000000000E+00 0.  1.
   -9000007    1    1    2    0  501  0.32090246137E+03  0.16774776457E+02 -0.85992703881E+03  0.10013662142E+04  0.40000000000E+03 0.  1.
<mgrwt>
<rscale>  2 0.51310358E+03</rscale>
<asrwt>0</asrwt>
<pdfrwt beam="1">  1        2 0.29154640E+00 0.51310358E+03</pdfrwt>
<pdfrwt beam="2">  1       -2 0.21380265E-01 0.51310358E+03</pdfrwt>
<totfact> 0.15222308E+02</totfact>
</mgrwt>
</event>
<event>
 6    1  0.9022793E-004  0.6619671E+03  0.7818608E-02  0.9784579E-01
         -2   -1    0    0    0  501 -0.00000000000E+00  0.00000000000E+00  0.18334704754E+03  0.18334704754E+03  0.00000000000E+00 0.  1.
          2   -1    0    0  502    0  0.00000000000E+00 -0.00000000000E+00 -0.23943863595E+04  0.23943863595E+04  0.00000000000E+00 0. -1.
    9000007    2    1    2  502    0 -0.20058211713E+03 -0.48771822274E+03 -0.10505133282E+04  0.12417233736E+04  0.40024546632E+03 0.  0.
    9000005    1    3    3    0    0  0.73114517328E+02 -0.21108104217E+03 -0.63163790330E+03  0.66997640249E+03  0.99999687468E+00 0.  0.
          4    1    3    3  502    0 -0.27369663446E+03 -0.27663718057E+03 -0.41887542488E+03  0.57174697110E+03  0.00000000000E+00 0.  1.
   -9000007    1    1    2    0  501  0.20058211713E+03  0.48771822274E+03 -0.11605259838E+04  0.13360100335E+04  0.40000000000E+03 0.  1.
<mgrwt>
<rscale>  2 0.66196711E+03</rscale>
<asrwt>0</asrwt>
<pdfrwt beam="1">  1        2 0.36836710E+00 0.66196711E+03</pdfrwt>
<pdfrwt beam="2">  1       -2 0.28207241E-01 0.66196711E+03</pdfrwt>
<totfact> 0.48395977E+01</totfact>
</mgrwt>
</event>
<event>
 6    1  0.9022793E-004  0.4310461E+03  0.7818608E-02  0.1033530E+00
         -2   -1    0    0    0  501 -0.00000000000E+00  0.00000000000E+00  0.56343695546E+03  0.56343695546E+03  0.00000000000E+00 0. -1.
          2   -1    0    0  502    0  0.00000000000E+00 -0.00000000000E+00 -0.34226324308E+03  0.34226324308E+03  0.00000000000E+00 0.  1.
    9000007    2    1    2  502    0  0.12823055554E+03  0.96251421974E+02  0.19715614859E+03  0.47409360108E+03  0.40023341196E+03 0.  0.
    9000005    1    3    3    0    0  0.22177889117E+02 -0.11915881154E+03  0.20012995311E+03  0.23397367215E+03  0.99999687468E+00 0.  0.
          4    1    3    3  502    0  0.10605266642E+03  0.21541023351E+03 -0.29738045142E+01  0.24011992893E+03  0.00000000000E+00 0.  1.
   -9000007    1    1    2    0  501 -0.12823055554E+03 -0.96251421974E+02  0.24017563789E+02  0.43160659747E+03  0.40000000000E+03 0.  1.
<mgrwt>
<rscale>  2 0.43104615E+03</rscale>
<asrwt>0</asrwt>
<pdfrwt beam="1">  1        2 0.52655883E-01 0.43104615E+03</pdfrwt>
<pdfrwt beam="2">  1       -2 0.86682609E-01 0.43104615E+03</pdfrwt>
<totfact> 0.11223265E+02</totfact>
</mgrwt>
</event>
<event>
 6    1  0.9022793E-004  0.4725843E+03  0.7818608E-02  0.1021193E+00
         -2   -1    0    0    0  501 -0.00000000000E+00  0.00000000000E+00  0.12943164294E+03  0.12943164294E+03  0.00000000000E+00 0.  1.
          2   -1    0    0  502    0  0.00000000000E+00 -0.00000000000E+00 -0.17986791619E+04  0.17986791619E+04  0.00000000000E+00 0. -1.
    9000007    2    1    2  502    0 -0.16672911364E+02 -0.25123458727E+03 -0.64007625890E+03  0.79559577786E+03  0.39984774693E+03 0.  0.
    9000005    1    3    3    0    0  0.17223266135E+03 -0.94813052664E+02 -0.14903313038E+03  0.24670929965E+03  0.99999687468E+00 0.  0.
          4    1    3    3  502    0 -0.18890557271E+03 -0.15642153461E+03 -0.49104312852E+03  0.54888647821E+03  0.00000000000E+00 0.  1.
   -9000007    1    1    2    0  501  0.16672911364E+02  0.25123458727E+03 -0.10291712601E+04  0.11325150270E+04  0.40000000000E+03 0. -1.
<mgrwt>
<rscale>  2 0.47258428E+03</rscale>
<asrwt>0</asrwt>
<pdfrwt beam="1">  1        2 0.27671988E+00 0.47258428E+03</pdfrwt>
<pdfrwt beam="2">  1       -2 0.19912560E-01 0.47258428E+03</pdfrwt>
<totfact> 0.19521526E+02</totfact>
</mgrwt>
</event>
<event>
 6    1  0.9022793E-004  0.4247504E+03  0.7818608E-02  0.1035531E+00
          1   -1    0    0  502    0  0.00000000000E+00  0.00000000000E+00  0.27627492105E+03  0.27627492105E+03  0.00000000000E+00 0. -1.
         -1   -1    0    0    0  501 -0.00000000000E+00 -0.00000000000E+00 -0.81858956716E+03  0.81858956716E+03  0.00000000000E+00 0.  1.
    9000007    2    1    2  502    0 -0.41780198690E+02 -0.13616210242E+03 -0.25033546186E+02  0.42563699364E+03  0.40031795960E+03 0.  0.
    9000005    1    3    3    0    0 -0.19749134127E+03 -0.17362343694E+03  0.33717828152E+01  0.26298345318E+03  0.99999687468E+00 0.  0.
          4    1    3    3  502    0  0.15571114258E+03  0.37461334519E+02 -0.28405329001E+02  0.16265354046E+03  0.00000000000E+00 0.  1.
   -9000007    1    1    2    0  501  0.41780198690E+02  0.13616210242E+03 -0.51728109992E+03  0.66922749456E+03  0.40000000000E+03 0.  1.
<mgrwt>
<rscale>  2 0.42475039E+03</rscale>
<asrwt>0</asrwt>
<pdfrwt beam="1">  1        1 0.42503835E-01 0.42475039E+03</pdfrwt>
<pdfrwt beam="2">  1       -1 0.12593685E+00 0.42475039E+03</pdfrwt>
<totfact> 0.56435073E+01</totfact>
</mgrwt>
</event>
<event>
 6    1  0.9022793E-004  0.4375363E+03  0.7818608E-02  0.1031505E+00
          1   -1    0    0  502    0  0.00000000000E+00  0.00000000000E+00  0.84955240084E+03  0.84955240084E+03  0.00000000000E+00 0.  1.
         -1   -1    0    0    0  501 -0.00000000000E+00 -0.00000000000E+00 -0.45627408444E+03  0.45627408444E+03  0.00000000000E+00 0. -1.
    9000007    2    1    2  502    0  0.99935735277E+01 -0.17681135217E+03 -0.26784264607E+03  0.51308248324E+03  0.40018973724E+03 0.  0.
    9000005    1    3    3    0    0 -0.27851972988E+02 -0.20171864838E+03 -0.35818065334E+03  0.41202005524E+03  0.99999687468E+00 0.  0.
          4    1    3    3  502    0  0.37845546516E+02  0.24907296213E+02  0.90338007270E+02  0.10106242800E+03  0.00000000000E+00 0.  1.
   -9000007    1    1    2    0  501 -0.99935735277E+01  0.17681135217E+03  0.66112096247E+03  0.79274400204E+03  0.40000000000E+03 0.  1.
<mgrwt>
<rscale>  2 0.43753631E+03</rscale>
<asrwt>0</asrwt>
<pdfrwt beam="1">  1        1 0.13070037E+00 0.43753631E+03</pdfrwt>
<pdfrwt beam="2">  1       -1 0.70196013E-01 0.43753631E+03</pdfrwt>
<totfact> 0.43828098E+01</totfact>
</mgrwt>
</event>
<event>
 6    1  0.9022793E-004  0.4817180E+03  0.7818608E-02  0.1018664E+00
          2   -1    0    0  502    0  0.00000000000E+00  0.00000000000E+00  0.62349507705E+03  0.62349507705E+03  0.00000000000E+00 0.  1.
         -2   -1    0    0    0  501 -0.00000000000E+00 -0.00000000000E+00 -0.37469016798E+03  0.37469016798E+03  0.00000000000E+00 0. -1.
    9000007    2    1    2  502    0  0.17688227299E+03 -0.20406337071E+03  0.83327395188E+02  0.48797743898E+03  0.39780564149E+03 0.  0.
    9000005    1    3    3    0    0  0.17182083114E+03 -0.30059643634E+03 -0.19575593379E+02  0.34679218476E+03  0.99999687468E+00 0.  0.
          4    1    3    3  502    0  0.50614418436E+01  0.96533065633E+02  0.10290298857E+03  0.14118525422E+03  0.00000000000E+00 0.  1.
   -9000007    1    1    2    0  501 -0.17688227299E+03  0.20406337071E+03  0.16547751388E+03  0.51020780606E+03  0.40000000000E+03 0.  1.
<mgrwt>
<rscale>  2 0.48171798E+03</rscale>
<asrwt>0</asrwt>
<pdfrwt beam="1">  1        2 0.95922319E-01 0.48171798E+03</pdfrwt>
<pdfrwt beam="2">  1       -2 0.57644641E-01 0.48171798E+03</pdfrwt>
<totfact> 0.13716636E+02</totfact>
</mgrwt>
</event>
<event>
 6    1  0.9022793E-004  0.5362511E+03  0.7818608E-02  0.1004727E+00
          2   -1    0    0  502    0  0.00000000000E+00  0.00000000000E+00  0.32495111203E+03  0.32495111203E+03  0.00000000000E+00 0. -1.
         -2   -1    0    0    0  501 -0.00000000000E+00 -0.00000000000E+00 -0.95786670641E+03  0.95786670641E+03  0.00000000000E+00 0.  1.
    9000007    2    1    2  502    0  0.13424999150E+03 -0.33036042946E+03 -0.49363233607E+03  0.72913839890E+03  0.40100978537E+03 0.  0.
    9000005    1    3    3    0    0  0.25548423228E+03 -0.20247076873E+03 -0.18791884203E+03  0.37627263562E+03  0.99999687468E+00 0.  0.
          4    1    3    3  502    0 -0.12123424077E+03 -0.12788966073E+03 -0.30571349404E+03  0.35286576328E+03  0.00000000000E+00 0.  1.
   -9000007    1    1    2    0  501 -0.13424999150E+03  0.33036042946E+03 -0.13928325831E+03  0.55367941954E+03  0.40000000000E+03 0. -1.
<mgrwt>
<rscale>  2 0.53625107E+03</rscale>
<asrwt>0</asrwt>
<pdfrwt beam="1">  1        2 0.49992479E-01 0.53625107E+03</pdfrwt>
<pdfrwt beam="2">  1       -2 0.14736411E+00 0.53625107E+03</pdfrwt>
<totfact> 0.32470644E+01</totfact>
</mgrwt>
</event>
<event>
 6    1  0.9022793E-004  0.4733285E+03  0.7818608E-02  0.1020985E+00
         -1   -1    0    0    0  501 -0.00000000000E+00  0.00000000000E+00  0.10782652897E+04  0.10782652897E+04  0.00000000000E+00 0. -1.
          1   -1    0    0  502    0  0.00000000000E+00 -0.00000000000E+00 -0.21075383461E+03  0.21075383461E+03  0.00000000000E+00 0.  1.
    9000007    2    1    2  502    0  0.13333488234E+03  0.21460308192E+03  0.35736889160E+03  0.59326190465E+03  0.40051777639E+03 0.  0.
    9000005    1    3    3    0    0 -0.70993258008E+02 -0.76975282382E+02  0.14443077545E+03  0.17839979168E+03  0.99999687468E+00 0.  0.
          4    1    3    3  502    0  0.20432814035E+03  0.29157836430E+03  0.21293811615E+03  0.41486211297E+03  0.00000000000E+00 0.  1.
   -9000007    1    1    2    0  501 -0.13333488234E+03 -0.21460308192E+03  0.51014256347E+03  0.69575721964E+03  0.40000000000E+03 0. -1.
<mgrwt>
<rscale>  2 0.47332845E+03</rscale>
<asrwt>0</asrwt>
<pdfrwt beam="1">  1        1 0.32423667E-01 0.47332845E+03</pdfrwt>
<pdfrwt beam="2">  1       -1 0.16588697E+00 0.47332845E+03</pdfrwt>
<totfact> 0.38542392E+01</totfact>
</mgrwt>
</event>
<event>
 6    1  0.9022793E-004  0.4161285E+03  0.7818608E-02  0.1038334E+00
          3   -1    0    0  502    0  0.00000000000E+00  0.00000000000E+00  0.75239039143E+02  0.75239039143E+02  0.00000000000E+00 0.  1.
         -3   -1    0    0    0  501 -0.00000000000E+00 -0.00000000000E+00 -0.23047156165E+04  0.23047156165E+04  0.00000000000E+00 0. -1.
    9000007    2    1    2  502    0  0.29717084152E+02 -0.10529685115E+03 -0.11628180598E+04  0.12355198934E+04  0.40298019163E+03 0.  0.
    9000005    1    3    3    0    0 -0.13573246160E+03 -0.17060461428E+03 -0.43883448346E+03  0.49000606059E+03  0.99999687468E+00 0.  0.
          4    1    3    3  502    0  0.16544954575E+03  0.65307763127E+02 -0.72398357629E+03  0.74551383277E+03  0.00000000000E+00 0.  1.
   -9000007    1    1    2    0  501 -0.29717084152E+02  0.10529685115E+03 -0.10666585176E+04  0.11444347623E+04  0.40000000000E+03 0.  1.
<mgrwt>
<rscale>  2 0.41612848E+03</rscale>
<asrwt>0</asrwt>
<pdfrwt beam="1">  1        3 0.11575238E-01 0.41612848E+03</pdfrwt>
<pdfrwt beam="2">  1       -3 0.35457160E+00 0.41612848E+03</pdfrwt>
<totfact> 0.31639044E+00</totfact>
</mgrwt>
</event>
<event>
 6    1  0.9022793E-004  0.4132543E+03  0.7818608E-02  0.1039284E+00
         -2   -1    0    0    0  501 -0.00000000000E+00  0.00000000000E+00  0.39378885193E+03  0.39378885193E+03  0.00000000000E+00 0.  1.
          2   -1    0    0  502    0  0.00000000000E+00 -0.00000000000E+00 -0.45117085206E+03  0.45117085206E+03  0.00000000000E+00 0. -1.
    9000007    2    1    2  502    0 -0.59248381639E+02 -0.85112470557E+02  0.54486396316E+02  0.41686036798E+03  0.40006161480E+03 0.  0.
    9000005    1    3    3    0    0  0.15347160978E+03 -0.76818427137E+02 -0.51319342411E+02  0.17913481140E+03  0.99999687468E+00 0.  0.
          4    1    3    3  502    0 -0.21271999142E+03 -0.82940434194E+01  0.10580573873E+03  0.23772555658E+03  0.00000000000E+00 0.  1.
   -9000007    1    1    2    0  501  0.59248381639E+02  0.85112470557E+02 -0.11186839644E+03  0.42809933601E+03  0.40000000000E+03 0. -1.
<mgrwt>
<rscale>  2 0.41325434E+03</rscale>
<asrwt>0</asrwt>
<pdfrwt beam="1">  1        2 0.69410901E-01 0.41325434E+03</pdfrwt>
<pdfrwt beam="2">  1       -2 0.60582900E-01 0.41325434E+03</pdfrwt>
<totfact> 0.18073996E+02</totfact>
</mgrwt>
</event>
<event>
 6    1  0.9022793E-004  0.4093348E+03  0.7818608E-02  0.1040594E+00
         -2   -1    0    0    0  501 -0.00000000000E+00  0.00000000000E+00  0.16588442334E+04  0.16588442334E+04  0.00000000000E+00 0. -1.
          2   -1    0    0  502    0  0.00000000000E+00 -0.00000000000E+00 -0.15914759596E+03  0.15914759596E+03  0.00000000000E+00 0.  1.
    9000007    2    1    2  502    0 -0.85247371755E+02  0.10667677173E+02  0.12995115598E+04  0.13625195700E+04  0.40043522683E+03 0.  0.
    9000005    1    3    3    0    0  0.34680480869E+02 -0.17132783401E+03  0.39213585024E+03  0.42933377168E+03  0.99999687468E+00 0.  0.
          4    1    3    3  502    0 -0.11992785262E+03  0.18199551119E+03  0.90737570954E+03  0.93318579832E+03  0.00000000000E+00 0.  1.
   -9000007    1    1    2    0  501  0.85247371755E+02 -0.10667677173E+02  0.20018507765E+03  0.45547225935E+03  0.40000000000E+03 0.  1.
<mgrwt>
<rscale>  2 0.40933484E+03</rscale>
<asrwt>0</asrwt>
<pdfrwt beam="1">  1        2 0.24484247E-01 0.40933484E+03</pdfrwt>
<pdfrwt beam="2">  1       -2 0.25520679E+00 0.40933484E+03</pdfrwt>
<totfact> 0.14367511E+01</totfact>
</mgrwt>
</event>
<event>
 6    1  0.9022793E-004  0.4585540E+03  0.7818608E-02  0.1025201E+00
         -2   -1    0    0    0  501 -0.00000000000E+00  0.00000000000E+00  0.81983861909E+02  0.81983861909E+02  0.00000000000E+00 0. -1.
          2   -1    0    0  502    0  0.00000000000E+00 -0.00000000000E+00 -0.25864727478E+04  0.25864727478E+04  0.00000000000E+00 0.  1.
    9000007    2    1    2  502    0  0.20734556641E+03  0.82884157075E+02 -0.11313140222E+04  0.12208823720E+04  0.40102416640E+03 0.  0.
    9000005    1    3    3    0    0  0.30428974800E+03  0.72219729223E+02 -0.56096148005E+03  0.64225129204E+03  0.99999687468E+00 0.  0.
          4    1    3    3  502    0 -0.96944181588E+02  0.10664427852E+02 -0.57035254217E+03  0.57863107999E+03  0.00000000000E+00 0.  1.
   -9000007    1    1    2    0  501 -0.20734556641E+03 -0.82884157075E+02 -0.13731748637E+04  0.14475742377E+04  0.40000000000E+03 0.  1.
<mgrwt>
<rscale>  2 0.45855399E+03</rscale>
<asrwt>0</asrwt>
<pdfrwt beam="1">  1        2 0.39791885E+00 0.45855399E+03</pdfrwt>
<pdfrwt beam="2">  1       -2 0.12612903E-01 0.45855399E+03</pdfrwt>
<totfact> 0.15738087E+02</totfact>
</mgrwt>
</event>
<event>
 6    1  0.9022793E-004  0.4028854E+03  0.7818608E-02  0.1042785E+00
          2   -1    0    0  502    0  0.00000000000E+00  0.00000000000E+00  0.75215681982E+03  0.75215681982E+03  0.00000000000E+00 0.  1.
         -2   -1    0    0    0  501 -0.00000000000E+00 -0.00000000000E+00 -0.21660396935E+03  0.21660396935E+03  0.00000000000E+00 0. -1.
    9000007    2    1    2  502    0 -0.26566148173E+02  0.38947614035E+02  0.23837409164E+03  0.46822318661E+03  0.40023501602E+03 0.  0.
    9000005    1    3    3    0    0  0.13373212345E+03 -0.75834871502E+02  0.22247356009E+03  0.27042687276E+03  0.99999687468E+00 0.  0.
          4    1    3    3  502    0 -0.16029827162E+03  0.11478248554E+03  0.15900531551E+02  0.19779631385E+03  0.00000000000E+00 0.  1.
   -9000007    1    1    2    0  501  0.26566148173E+02 -0.38947614035E+02  0.29717875883E+03  0.50053760255E+03  0.40000000000E+03 0.  1.
<mgrwt>
<rscale>  2 0.40288545E+03</rscale>
<asrwt>0</asrwt>
<pdfrwt beam="1">  1        2 0.11571643E+00 0.40288545E+03</pdfrwt>
<pdfrwt beam="2">  1       -2 0.33323688E-01 0.40288545E+03</pdfrwt>
<totfact> 0.32222510E+02</totfact>
</mgrwt>
</event>
<event>
 6    1  0.9022793E-004  0.4289080E+03  0.7818608E-02  0.1034205E+00
          1   -1    0    0  502    0  0.00000000000E+00  0.00000000000E+00  0.20874753489E+03  0.20874753489E+03  0.00000000000E+00 0.  1.
         -1   -1    0    0    0  501 -0.00000000000E+00 -0.00000000000E+00 -0.90127445285E+03  0.90127445285E+03  0.00000000000E+00 0. -1.
    9000007    2    1    2  502    0 -0.15436163792E+03 -0.76943976190E+01 -0.42902805851E+03  0.60671455889E+03  0.40018840808E+03 0.  0.
    9000005    1    3    3    0    0 -0.93793417788E+02  0.19435557607E+03 -0.24801156260E+03  0.32875831602E+03  0.99999687468E+00 0.  0.
          4    1    3    3  502    0 -0.60568220127E+02 -0.20204997369E+03 -0.18101649591E+03  0.27795624287E+03  0.00000000000E+00 0.  1.
   -9000007    1    1    2    0  501  0.15436163792E+03  0.76943976190E+01 -0.26349885945E+03  0.50330742886E+03  0.40000000000E+03 0. -1.
<mgrwt>
<rscale>  2 0.42890801E+03</rscale>
<asrwt>0</asrwt>
<pdfrwt beam="1">  1        1 0.32115006E-01 0.42890801E+03</pdfrwt>
<pdfrwt beam="2">  1       -1 0.13865761E+00 0.42890801E+03</pdfrwt>
<totfact> 0.63397252E+01</totfact>
</mgrwt>
</event>
<event>
 6    1  0.9022793E-004  0.6188942E+03  0.7818608E-02  0.9866964E-01
          2   -1    0    0  502    0  0.00000000000E+00  0.00000000000E+00  0.14037225734E+04  0.14037225734E+04  0.00000000000E+00 0.  1.
         -2   -1    0    0    0  501 -0.00000000000E+00 -0.00000000000E+00 -0.55083451755E+03  0.55083451755E+03  0.00000000000E+00 0. -1.
    9000007    2    1    2  502    0  0.37466575012E+03  0.28764505039E+03  0.11206527599E+04  0.12801595554E+04  0.39978966934E+03 0.  0.
    9000005    1    3    3    0    0  0.20572221967E+03  0.36723865941E+03  0.65665821794E+03  0.77999158958E+03  0.99999687468E+00 0.  0.
          4    1    3    3  502    0  0.16894353045E+03 -0.79593609024E+02  0.46399454192E+03  0.50016796580E+03  0.00000000000E+00 0.  1.
   -9000007    1    1    2    0  501 -0.37466575012E+03 -0.28764505039E+03 -0.26776470399E+03  0.67439753560E+03  0.40000000000E+03 0. -1.
<mgrwt>
<rscale>  2 0.61889416E+03</rscale>
<asrwt>0</asrwt>
<pdfrwt beam="1">  1        2 0.21595732E+00 0.61889416E+03</pdfrwt>
<pdfrwt beam="2">  1       -2 0.84743772E-01 0.61889416E+03</pdfrwt>
<totfact> 0.18177262E+01</totfact>
</mgrwt>
</event>
<event>
 6    1  0.9022793E-004  0.4050503E+03  0.7818608E-02  0.1042045E+00
          1   -1    0    0  502    0  0.00000000000E+00  0.00000000000E+00  0.51401023315E+03  0.51401023315E+03  0.00000000000E+00 0.  1.
         -1   -1    0    0    0  501 -0.00000000000E+00 -0.00000000000E+00 -0.63774954329E+03  0.63774954329E+03  0.00000000000E+00 0. -1.
    9000007    2    1    2  502    0 -0.62828507796E+02  0.71546870434E+01  0.34513270878E+03  0.53221189203E+03  0.40016784031E+03 0.  0.
    9000005    1    3    3    0    0 -0.17331741237E+02  0.37046006499E+02 -0.87276361946E+02  0.96389621849E+02  0.99999687468E+00 0.  0.
          4    1    3    3  502    0 -0.45496766559E+02 -0.29891319455E+02  0.43240907072E+03  0.43582227019E+03  0.00000000000E+00 0.  1.
   -9000007    1    1    2    0  501  0.62828507796E+02 -0.71546870434E+01 -0.46887201892E+03  0.61954788440E+03  0.40000000000E+03 0. -1.
<mgrwt>
<rscale>  2 0.40505030E+03</rscale>
<asrwt>0</asrwt>
<pdfrwt beam="1">  1        1 0.79078498E-01 0.40505030E+03</pdfrwt>
<pdfrwt beam="2">  1       -1 0.98115314E-01 0.40505030E+03</pdfrwt>
<totfact> 0.45199469E+01</totfact>
</mgrwt>
</event>
<event>
 6    1  0.9022793E-004  0.4757843E+03  0.7818608E-02  0.1020300E+00
          2   -1    0    0  502    0  0.00000000000E+00  0.00000000000E+00  0.21241985163E+04  0.21241985163E+04  0.00000000000E+00 0. -1.
         -2   -1    0    0    0  501 -0.00000000000E+00 -0.00000000000E+00 -0.15270046253E+03  0.15270046253E+03  0.00000000000E+00 0.  1.
    9000007    2    1    2  502    0  0.68674591337E+02  0.24901711893E+03  0.35946343024E+03  0.59601190574E+03  0.39911215102E+03 0.  0.
    9000005    1    3    3    0    0 -0.31995029442E+02 -0.92820644613E+02  0.15975005584E+03  0.18751115783E+03  0.99999687468E+00 0.  0.
          4    1    3    3  502    0  0.10066962078E+03  0.34183776354E+03  0.19971337440E+03  0.40850074791E+03  0.00000000000E+00 0.  1.
   -9000007    1    1    2    0  501 -0.68674591337E+02 -0.24901711893E+03  0.16120346235E+04  0.16808870731E+04  0.40000000000E+03 0. -1.
<mgrwt>
<rscale>  2 0.47578430E+03</rscale>
<asrwt>0</asrwt>
<pdfrwt beam="1">  1        2 0.32679975E+00 0.47578430E+03</pdfrwt>
<pdfrwt beam="2">  1       -2 0.23492380E-01 0.47578430E+03</pdfrwt>
<totfact> 0.97585229E+01</totfact>
</mgrwt>
</event>
<event>
 6    1  0.9022793E-004  0.4006057E+03  0.7818608E-02  0.1043570E+00
          2   -1    0    0  502    0  0.00000000000E+00  0.00000000000E+00  0.16937884729E+04  0.16937884729E+04  0.00000000000E+00 0.  1.
         -2   -1    0    0    0  501 -0.00000000000E+00 -0.00000000000E+00 -0.14217984178E+03  0.14217984178E+03  0.00000000000E+00 0. -1.
    9000007    2    1    2  502    0  0.23517314946E+02 -0.33139998712E+01  0.13058846955E+04  0.13659211902E+04  0.39980221757E+03 0.  0.
    9000005    1    3    3    0    0  0.99930984131E+02  0.11800815585E+02  0.59091922697E+02  0.11669754136E+03  0.99999687468E+00 0.  0.
          4    1    3    3  502    0 -0.76413669185E+02 -0.15114815456E+02  0.12467927728E+04  0.12492236488E+04  0.00000000000E+00 0.  1.
   -9000007    1    1    2    0  501 -0.23517314946E+02  0.33139998712E+01  0.24572393562E+03  0.47004712448E+03  0.40000000000E+03 0. -1.
<mgrwt>
<rscale>  2 0.40060571E+03</rscale>
<asrwt>0</asrwt>
<pdfrwt beam="1">  1        2 0.26058283E+00 0.40060571E+03</pdfrwt>
<pdfrwt beam="2">  1       -2 0.21873823E-01 0.40060571E+03</pdfrwt>
<totfact> 0.19058516E+02</totfact>
</mgrwt>
</event>
<event>
 6    1  0.9022793E-004  0.4357531E+03  0.7818608E-02  0.1032058E+00
          1   -1    0    0  502    0  0.00000000000E+00  0.00000000000E+00  0.44110915701E+04  0.44110915701E+04  0.00000000000E+00 0.  1.
         -1   -1    0    0    0  501 -0.00000000000E+00 -0.00000000000E+00 -0.10488996791E+03  0.10488996791E+03  0.00000000000E+00 0. -1.
    9000007    2    1    2  502    0  0.18788057450E+02 -0.17292187177E+03  0.38860465603E+04  0.39103535796E+04  0.39906425967E+03 0.  0.
    9000005    1    3    3    0    0 -0.12472494574E+03  0.52291987401E+02  0.68742382511E+03  0.70060208346E+03  0.99999687468E+00 0.  0.
          4    1    3    3  502    0  0.14351300319E+03 -0.22521385917E+03  0.31986227352E+04  0.32097514961E+04  0.00000000000E+00 0.  1.
   -9000007    1    1    2    0  501 -0.18788057450E+02  0.17292187177E+03  0.42015504182E+03  0.60562795841E+03  0.40000000000E+03 0. -1.
<mgrwt>
<rscale>  2 0.43575307E+03</rscale>
<asrwt>0</asrwt>
<pdfrwt beam="1">  1        1 0.67862933E+00 0.43575307E+03</pdfrwt>
<pdfrwt beam="2">  1       -1 0.16136922E-01 0.43575307E+03</pdfrwt>
<totfact> 0.14215962E+00</totfact>
</mgrwt>
</event>
<event>
 6    1  0.9022793E-004  0.5455618E+03  0.7818608E-02  0.1002526E+00
          2   -1    0    0  502    0  0.00000000000E+00  0.00000000000E+00  0.41784196946E+03  0.41784196946E+03  0.00000000000E+00 0. -1.
         -2   -1    0    0    0  501 -0.00000000000E+00 -0.00000000000E+00 -0.11304994555E+04  0.11304994555E+04  0.00000000000E+00 0.  1.
    9000007    2    1    2  502    0 -0.23543734320E+03 -0.28677041055E+03 -0.82716703715E+03  0.99086456600E+03  0.39992408013E+03 0.  0.
    9000005    1    3    3    0    0  0.70866756028E+01  0.90693378446E+02 -0.20019994613E+03  0.21990117846E+03  0.99999687468E+00 0.  0.
          4    1    3    3  502    0 -0.24252401880E+03 -0.37746378900E+03 -0.62696709102E+03  0.77096338754E+03  0.00000000000E+00 0.  1.
   -9000007    1    1    2    0  501  0.23543734320E+03  0.28677041055E+03  0.11450955115E+03  0.55747685893E+03  0.40000000000E+03 0. -1.
<mgrwt>
<rscale>  2 0.54556177E+03</rscale>
<asrwt>0</asrwt>
<pdfrwt beam="1">  1        2 0.64283381E-01 0.54556177E+03</pdfrwt>
<pdfrwt beam="2">  1       -2 0.17392299E+00 0.54556177E+03</pdfrwt>
<totfact> 0.15700586E+01</totfact>
</mgrwt>
</event>
<event>
 6    1  0.9022793E-004  0.4226402E+03  0.7818608E-02  0.1036210E+00
         -2   -1    0    0    0  501 -0.00000000000E+00  0.00000000000E+00  0.26031887287E+03  0.26031887287E+03  0.00000000000E+00 0. -1.
          2   -1    0    0  502    0  0.00000000000E+00 -0.00000000000E+00 -0.69651590100E+03  0.69651590100E+03  0.00000000000E+00 0.  1.
    9000007    2    1    2  502    0 -0.12688123443E+03  0.52397464807E+02 -0.15967845301E+03  0.45155577732E+03  0.39945096033E+03 0.  0.
    9000005    1    3    3    0    0 -0.12473827149E+03  0.42341023451E+01  0.11677869695E+03  0.17092638197E+03  0.99999687468E+00 0.  0.
          4    1    3    3  502    0 -0.21429629335E+01  0.48163362462E+02 -0.27645714996E+03  0.28062939535E+03  0.00000000000E+00 0.  1.
   -9000007    1    1    2    0  501  0.12688123443E+03 -0.52397464807E+02 -0.27651857512E+03  0.50527899655E+03  0.40000000000E+03 0.  1.
<mgrwt>
<rscale>  2 0.42264020E+03</rscale>
<asrwt>0</asrwt>
<pdfrwt beam="1">  1        2 0.10715629E+00 0.42264020E+03</pdfrwt>
<pdfrwt beam="2">  1       -2 0.40049057E-01 0.42264020E+03</pdfrwt>
<totfact> 0.24982330E+02</totfact>
</mgrwt>
</event>
<event>
 6    1  0.9022793E-004  0.4447567E+03  0.7818608E-02  0.1029297E+00
          2   -1    0    0  502    0  0.00000000000E+00  0.00000000000E+00  0.79963214626E+03  0.79963214626E+03  0.00000000000E+00 0.  1.
         -2   -1    0    0    0  501 -0.00000000000E+00 -0.00000000000E+00 -0.30316988918E+03  0.30316988918E+03  0.00000000000E+00 0. -1.
    9000007    2    1    2  502    0  0.14606360478E+03 -0.12788463277E+03  0.48484290763E+03  0.65802786215E+03  0.40029859649E+03 0.  0.
    9000005    1    3    3    0    0  0.11729904122E+03  0.11916193231E+03  0.86103287737E+02  0.18807819474E+03  0.99999687468E+00 0.  0.
          4    1    3    3  502    0  0.28764563564E+02 -0.24704656508E+03  0.39873961989E+03  0.46994966741E+03  0.00000000000E+00 0.  1.
   -9000007    1    1    2    0  501 -0.14606360478E+03  0.12788463277E+03  0.11619349449E+02  0.44477417329E+03  0.40000000000E+03 0. -1.
<mgrwt>
<rscale>  2 0.44475668E+03</rscale>
<asrwt>0</asrwt>
<pdfrwt beam="1">  1        2 0.12302033E+00 0.44475668E+03</pdfrwt>
<pdfrwt beam="2">  1       -2 0.46641522E-01 0.44475668E+03</pdfrwt>
<totfact> 0.15522871E+02</totfact>
</mgrwt>
</event>
<event>
 6    1  0.9022793E-004  0.6815579E+03  0.7818608E-02  0.9749301E-01
         -2   -1    0    0    0  501 -0.00000000000E+00  0.00000000000E+00  0.61975719658E+03  0.61975719658E+03  0.00000000000E+00 0.  1.
          2   -1    0    0  502    0  0.00000000000E+00 -0.00000000000E+00 -0.79019951499E+03  0.79019951499E+03  0.00000000000E+00 0. -1.
    9000007    2    1    2  502    0 -0.36555313906E+03 -0.41345442693E+03  0.74735146298E+02  0.68560482897E+03  0.39986870193E+03 0.  0.
    9000005    1    3    3    0    0  0.55584825039E+02 -0.56170092515E+02 -0.79599903384E+02  0.11216905402E+03  0.99999687468E+00 0.  0.
          4    1    3    3  502    0 -0.42113796410E+03 -0.35728433442E+03  0.15433504968E+03  0.57343577495E+03  0.00000000000E+00 0.  1.
   -9000007    1    1    2    0  501  0.36555313906E+03  0.41345442693E+03 -0.24517746470E+03  0.72435188260E+03  0.40000000000E+03 0. -1.
<mgrwt>
<rscale>  2 0.68155788E+03</rscale>
<asrwt>0</asrwt>
<pdfrwt beam="1">  1        2 0.12156916E+00 0.68155788E+03</pdfrwt>
<pdfrwt beam="2">  1       -2 0.95347261E-01 0.68155788E+03</pdfrwt>
<totfact> 0.33015527E+01</totfact>
</mgrwt>
</event>
<event>
 6    1  0.9022793E-004  0.4682024E+03  0.7818608E-02  0.1022429E+00
         -2   -1    0    0    0  501 -0.00000000000E+00  0.00000000000E+00  0.30844364497E+03  0.30844364497E+03  0.00000000000E+00 0. -1.
          2   -1    0    0  502    0  0.00000000000E+00 -0.00000000000E+00 -0.11287637097E+04  0.11287637097E+04  0.00000000000E+00 0.  1.
    9000007    2    1    2  502    0 -0.45938567245E+02  0.23861421306E+03 -0.84758354888E+03  0.96838927459E+03  0.40041580909E+03 0.  0.
    9000005    1    3    3    0    0 -0.19870767265E+03  0.19525265571E+02 -0.40281960101E+03  0.44958937501E+03  0.99999687468E+00 0.  0.
          4    1    3    3  502    0  0.15276910541E+03  0.21908894749E+03 -0.44476394787E+03  0.51879989958E+03  0.00000000000E+00 0.  1.
   -9000007    1    1    2    0  501  0.45938567245E+02 -0.23861421306E+03  0.27263484151E+02  0.46881808007E+03  0.40000000000E+03 0. -1.
<mgrwt>
<rscale>  2 0.46820235E+03</rscale>
<asrwt>0</asrwt>
<pdfrwt beam="1">  1        2 0.17365596E+00 0.46820235E+03</pdfrwt>
<pdfrwt beam="2">  1       -2 0.47452868E-01 0.46820235E+03</pdfrwt>
<totfact> 0.91914780E+01</totfact>
</mgrwt>
</event>
<event>
 6    1  0.9022793E-004  0.5878074E+03  0.7818608E-02  0.9931030E-01
         -3   -1    0    0    0  501 -0.00000000000E+00  0.00000000000E+00  0.34228635037E+03  0.34228635037E+03  0.00000000000E+00 0. -1.
          3   -1    0    0  502    0  0.00000000000E+00 -0.00000000000E+00 -0.13585710825E+04  0.13585710825E+04  0.00000000000E+00 0.  1.
    9000007    2    1    2  502    0 -0.41071614095E+03  0.13036142948E+03 -0.93916548874E+03  0.11078741039E+04  0.39958899408E+03 0.  0.
    9000005    1    3    3    0    0  0.23962278648E+02  0.15052414903E+03 -0.25262148610E+03  0.29504292141E+03  0.99999687468E+00 0.  0.
          4    1    3    3  502    0 -0.43467841960E+03 -0.20162719555E+02 -0.68654400264E+03  0.81283118252E+03  0.00000000000E+00 0.  1.
   -9000007    1    1    2    0  501  0.41071614095E+03 -0.13036142948E+03 -0.77119243418E+02  0.59298332897E+03  0.40000000000E+03 0. -1.
<mgrwt>
<rscale>  2 0.58780736E+03</rscale>
<asrwt>0</asrwt>
<pdfrwt beam="1">  1        3 0.20901093E+00 0.58780736E+03</pdfrwt>
<pdfrwt beam="2">  1       -3 0.52659440E-01 0.58780736E+03</pdfrwt>
<totfact> 0.12200675E+00</totfact>
</mgrwt>
</event>
<event>
 6    1  0.9022793E-004  0.4111895E+03  0.7818608E-02  0.1039973E+00
          2   -1    0    0  502    0  0.00000000000E+00  0.00000000000E+00  0.84445759440E+03  0.84445759440E+03  0.00000000000E+00 0.  1.
         -2   -1    0    0    0  501 -0.00000000000E+00 -0.00000000000E+00 -0.20677996771E+03  0.20677996771E+03  0.00000000000E+00 0. -1.
    9000007    2    1    2  502    0 -0.95468584397E+02  0.39195630178E+01  0.41241421724E+03  0.58233115650E+03  0.39986807283E+03 0.  0.
    9000005    1    3    3    0    0 -0.19426859628E+03 -0.33105610432E+02  0.47838547293E+02  0.20279495936E+03  0.99999687468E+00 0.  0.
          4    1    3    3  502    0  0.98800011883E+02  0.37025173450E+02  0.36457566995E+03  0.37953619713E+03  0.00000000000E+00 0.  1.
   -9000007    1    1    2    0  501  0.95468584397E+02 -0.39195630178E+01  0.22526340945E+03  0.46890640561E+03  0.40000000000E+03 0. -1.
<mgrwt>
<rscale>  2 0.41118955E+03</rscale>
<asrwt>0</asrwt>
<pdfrwt beam="1">  1        2 0.12991655E+00 0.41118955E+03</pdfrwt>
<pdfrwt beam="2">  1       -2 0.31812303E-01 0.41118955E+03</pdfrwt>
<totfact> 0.30217071E+02</totfact>
</mgrwt>
</event>
<event>
 6    1  0.9022793E-004  0.5546819E+03  0.7818608E-02  0.1000416E+00
          2   -1    0    0  502    0  0.00000000000E+00  0.00000000000E+00  0.14010767254E+04  0.14010767254E+04  0.00000000000E+00 0. -1.
         -2   -1    0    0    0  501 -0.00000000000E+00 -0.00000000000E+00 -0.23802714126E+03  0.23802714126E+03  0.00000000000E+00 0.  1.
    9000007    2    1    2  502    0 -0.38409142617E+03  0.14258531877E+02  0.80952420250E+03  0.98129711324E+03  0.39985629998E+03 0.  0.
    9000005    1    3    3    0    0 -0.45445657701E+03 -0.10957817259E+02  0.77606146957E+03  0.89940161146E+03  0.99999687468E+00 0.  0.
          4    1    3    3  502    0  0.70365150846E+02  0.25216349136E+02  0.33462732931E+02  0.81895501784E+02  0.00000000000E+00 0.  1.
   -9000007    1    1    2    0  501  0.38409142617E+03 -0.14258531877E+02  0.35352538165E+03  0.65780675343E+03  0.40000000000E+03 0.  1.
<mgrwt>
<rscale>  2 0.55468194E+03</rscale>
<asrwt>0</asrwt>
<pdfrwt beam="1">  1        2 0.21555026E+00 0.55468194E+03</pdfrwt>
<pdfrwt beam="2">  1       -2 0.36619561E-01 0.55468194E+03</pdfrwt>
<totfact> 0.10523189E+02</totfact>
</mgrwt>
</event>
<event>
 6    1  0.9022793E-004  0.7177523E+03  0.7818608E-02  0.9687346E-01
          2   -1    0    0  502    0  0.00000000000E+00  0.00000000000E+00  0.20044878521E+04  0.20044878521E+04  0.00000000000E+00 0. -1.
         -2   -1    0    0    0  501 -0.00000000000E+00 -0.00000000000E+00 -0.31040422519E+03  0.31040422519E+03  0.00000000000E+00 0.  1.
    9000007    2    1    2  502    0 -0.19607773003E+03  0.56213454753E+03  0.13275947403E+04  0.15094382736E+04  0.40181386460E+03 0.  0.
    9000005    1    3    3    0    0 -0.60018505947E+02  0.22049467952E+03  0.14417353690E+03  0.27019832251E+03  0.99999687468E+00 0.  0.
          4    1    3    3  502    0 -0.13605922408E+03  0.34163986801E+03  0.11834212034E+04  0.12392399511E+04  0.00000000000E+00 0.  1.
   -9000007    1    1    2    0  501  0.19607773003E+03 -0.56213454753E+03  0.36648888658E+03  0.80545380360E+03  0.40000000000E+03 0.  1.
<mgrwt>
<rscale>  2 0.71775233E+03</rscale>
<asrwt>0</asrwt>
<pdfrwt beam="1">  1        2 0.30838274E+00 0.71775233E+03</pdfrwt>
<pdfrwt beam="2">  1       -2 0.47754497E-01 0.71775233E+03</pdfrwt>
<totfact> 0.28631048E+01</totfact>
</mgrwt>
</event>
<event>
 6    1  0.9022793E-004  0.8380075E+03  0.7818608E-02  0.9506576E-01
         -2   -1    0    0    0  501 -0.00000000000E+00  0.00000000000E+00  0.78642167624E+03  0.78642167624E+03  0.00000000000E+00 0.  1.
          2   -1    0    0  502    0  0.00000000000E+00 -0.00000000000E+00 -0.93580701561E+03  0.93580701561E+03  0.00000000000E+00 0. -1.
    9000007    2    1    2  502    0  0.37490159189E+03 -0.63363480251E+03 -0.25892512301E+03  0.87721790449E+03  0.40053060568E+03 0.  0.
    9000005    1    3    3    0    0  0.32849593531E+02 -0.76486562299E+02 -0.20496496228E+03  0.22122596087E+03  0.99999687468E+00 0.  0.
          4    1    3    3  502    0  0.34205199836E+03 -0.55714824021E+03 -0.53960160729E+02  0.65599194362E+03  0.00000000000E+00 0.  1.
   -9000007    1    1    2    0  501 -0.37490159189E+03  0.63363480251E+03  0.10953978365E+03  0.84501078736E+03  0.40000000000E+03 0. -1.
<mgrwt>
<rscale>  2 0.83800753E+03</rscale>
<asrwt>0</asrwt>
<pdfrwt beam="1">  1        2 0.14397031E+00 0.83800753E+03</pdfrwt>
<pdfrwt beam="2">  1       -2 0.12098795E+00 0.83800753E+03</pdfrwt>
<totfact> 0.14535587E+01</totfact>
</mgrwt>
</event>
<event>
 6    1  0.9022793E-004  0.5728130E+03  0.7818608E-02  0.9963473E-01
          2   -1    0    0  502    0  0.00000000000E+00  0.00000000000E+00  0.11688949600E+04  0.11688949600E+04  0.00000000000E+00 0. -1.
         -2   -1    0    0    0  501 -0.00000000000E+00 -0.00000000000E+00 -0.28678360381E+03  0.28678360381E+03  0.00000000000E+00 0.  1.
    9000007    2    1    2  502    0  0.40732201173E+03  0.46107556844E+02  0.54707075127E+03  0.79213554713E+03  0.40019394061E+03 0.  0.
    9000005    1    3    3    0    0  0.32802845908E+03  0.10792358876E+03  0.58934660663E+03  0.68306704921E+03  0.99999687468E+00 0.  0.
          4    1    3    3  502    0  0.79293552643E+02 -0.61816031912E+02 -0.42275855360E+02  0.10906849792E+03  0.00000000000E+00 0.  1.
   -9000007    1    1    2    0  501 -0.40732201173E+03 -0.46107556844E+02  0.33504060491E+03  0.66354301667E+03  0.40000000000E+03 0. -1.
<mgrwt>
<rscale>  2 0.57281298E+03</rscale>
<asrwt>0</asrwt>
<pdfrwt beam="1">  1        2 0.17982999E+00 0.57281298E+03</pdfrwt>
<pdfrwt beam="2">  1       -2 0.44120555E-01 0.57281298E+03</pdfrwt>
<totfact> 0.99362945E+01</totfact>
</mgrwt>
</event>
<event>
 6    1  0.9022793E-004  0.4338719E+03  0.7818608E-02  0.1032644E+00
          1   -1    0    0  502    0  0.00000000000E+00  0.00000000000E+00  0.34514078790E+03  0.34514078790E+03  0.00000000000E+00 0.  1.
         -1   -1    0    0    0  501 -0.00000000000E+00 -0.00000000000E+00 -0.71800672941E+03  0.71800672941E+03  0.00000000000E+00 0. -1.
    9000007    2    1    2  502    0 -0.12123806885E+03 -0.11519862704E+03 -0.44715761997E+03  0.62327407357E+03  0.40068845838E+03 0.  0.
    9000005    1    3    3    0    0 -0.29163623555E+02  0.11169221855E+03 -0.33427122422E+03  0.35364377551E+03  0.99999687468E+00 0.  0.
          4    1    3    3  502    0 -0.92074445299E+02 -0.22689084558E+03 -0.11288639575E+03  0.26963029806E+03  0.00000000000E+00 0.  1.
   -9000007    1    1    2    0  501  0.12123806885E+03  0.11519862704E+03  0.74291678457E+02  0.43987344373E+03  0.40000000000E+03 0.  1.
<mgrwt>
<rscale>  2 0.43387188E+03</rscale>
<asrwt>0</asrwt>
<pdfrwt beam="1">  1        1 0.53098584E-01 0.43387188E+03</pdfrwt>
<pdfrwt beam="2">  1       -1 0.11046257E+00 0.43387188E+03</pdfrwt>
<totfact> 0.58003121E+01</totfact>
</mgrwt>
</event>
<event>
 6    1  0.9022793E-004  0.5314105E+03  0.7818608E-02  0.1005891E+00
         -2   -1    0    0    0  501 -0.00000000000E+00  0.00000000000E+00  0.99297906234E+02  0.99297906234E+02  0.00000000000E+00 0.  1.
          2   -1    0    0  502    0  0.00000000000E+00 -0.00000000000E+00 -0.28750043488E+04  0.28750043488E+04  0.00000000000E+00 0. -1.
    9000007    2    1    2  502    0  0.33822884535E+03  0.88045638994E+02 -0.12338638144E+04  0.13435265266E+04  0.40061556243E+03 0.  0.
    9000005    1    3    3    0    0  0.36033535137E+03 -0.62364015143E+02 -0.99823825562E+03  0.10631140347E+04  0.99999687468E+00 0.  0.
          4    1    3    3  502    0 -0.22106506014E+02  0.15040965414E+03 -0.23562555880E+03  0.28041249192E+03  0.00000000000E+00 0.  1.
   -9000007    1    1    2    0  501 -0.33822884535E+03 -0.88045638994E+02 -0.15418426282E+04  0.16307757284E+04  0.40000000000E+03 0. -1.
<mgrwt>
<rscale>  2 0.53141048E+03</rscale>
<asrwt>0</asrwt>
<pdfrwt beam="1">  1        2 0.44230830E+00 0.53141048E+03</pdfrwt>
<pdfrwt beam="2">  1       -2 0.15276603E-01 0.53141048E+03</pdfrwt>
<totfact> 0.76881924E+01</totfact>
</mgrwt>
</event>
<event>
 6    1  0.9022793E-004  0.3987196E+03  0.7818608E-02  0.1044224E+00
          2   -1    0    0  502    0  0.00000000000E+00  0.00000000000E+00  0.39981521532E+03  0.39981521532E+03  0.00000000000E+00 0.  1.
         -2   -1    0    0    0  501 -0.00000000000E+00 -0.00000000000E+00 -0.67175431998E+03  0.67175431998E+03  0.00000000000E+00 0. -1.
    9000007    2    1    2  502    0 -0.10920540091E+02 -0.38358586390E+02 -0.47755418200E+03  0.62005187299E+03  0.39346624900E+03 0.  0.
    9000005    1    3    3    0    0 -0.11653608618E+03  0.14345400427E+03 -0.23723078622E+03  0.30073103706E+03  0.99999687468E+00 0.  0.
          4    1    3    3  502    0  0.10561554609E+03 -0.18181259066E+03 -0.24032339578E+03  0.31932083593E+03  0.00000000000E+00 0.  1.
   -9000007    1    1    2    0  501  0.10920540091E+02  0.38358586390E+02  0.20561507735E+03  0.45151766231E+03  0.40000000000E+03 0.  1.
<mgrwt>
<rscale>  2 0.39871964E+03</rscale>
<asrwt>0</asrwt>
<pdfrwt beam="1">  1        2 0.61510034E-01 0.39871964E+03</pdfrwt>
<pdfrwt beam="2">  1       -2 0.10334682E+00 0.39871964E+03</pdfrwt>
<totfact> 0.63103422E+01</totfact>
</mgrwt>
</event>
<event>
 6    1  0.9022793E-004  0.7042500E+03  0.7818608E-02  0.9709992E-01
         -1   -1    0    0    0  501 -0.00000000000E+00  0.00000000000E+00  0.36123969309E+03  0.36123969309E+03  0.00000000000E+00 0.  1.
          1   -1    0    0  502    0  0.00000000000E+00 -0.00000000000E+00 -0.14279620884E+04  0.14279620884E+04  0.00000000000E+00 0. -1.
    9000007    2    1    2  502    0  0.29352396314E+03  0.49998130101E+03 -0.70884604101E+03  0.99913020041E+03  0.39957581161E+03 0.  0.
    9000005    1    3    3    0    0  0.14360934198E+03  0.49543887788E+03 -0.66743195376E+03  0.84353407620E+03  0.99999687468E+00 0.  0.
          4    1    3    3  502    0  0.14991462116E+03  0.45424231220E+01 -0.41414087250E+02  0.15559612421E+03  0.00000000000E+00 0.  1.
   -9000007    1    1    2    0  501 -0.29352396314E+03 -0.49998130101E+03 -0.35787635433E+03  0.79007158111E+03  0.40000000000E+03 0.  1.
<mgrwt>
<rscale>  2 0.70424996E+03</rscale>
<asrwt>0</asrwt>
<pdfrwt beam="1">  1        1 0.21968648E+00 0.70424996E+03</pdfrwt>
<pdfrwt beam="2">  1       -1 0.55575337E-01 0.70424996E+03</pdfrwt>
<totfact> 0.24968879E+01</totfact>
</mgrwt>
</event>
<event>
 6    1  0.9022793E-004  0.4093490E+03  0.7818608E-02  0.1040590E+00
         -1   -1    0    0    0  501 -0.00000000000E+00  0.00000000000E+00  0.19985476817E+03  0.19985476817E+03  0.00000000000E+00 0. -1.
          1   -1    0    0  502    0  0.00000000000E+00 -0.00000000000E+00 -0.86216080866E+03  0.86216080866E+03  0.00000000000E+00 0.  1.
    9000007    2    1    2  502    0  0.86635407325E+02 -0.88992442352E+01 -0.24305974084E+03  0.47605282194E+03  0.39995419901E+03 0.  0.
    9000005    1    3    3    0    0  0.44912526615E+02  0.18551116833E+03 -0.19206764123E+03  0.27078129076E+03  0.99999687468E+00 0.  0.
          4    1    3    3  502    0  0.41722880711E+02 -0.19441041257E+03 -0.50992099613E+02  0.20527153118E+03  0.00000000000E+00 0.  1.
   -9000007    1    1    2    0  501 -0.86635407325E+02  0.88992442352E+01 -0.41924629965E+03  0.58596275489E+03  0.40000000000E+03 0.  1.
<mgrwt>
<rscale>  2 0.40934896E+03</rscale>
<asrwt>0</asrwt>
<pdfrwt beam="1">  1        1 0.13264013E+00 0.40934896E+03</pdfrwt>
<pdfrwt beam="2">  1       -1 0.30746887E-01 0.40934896E+03</pdfrwt>
<totfact> 0.19900938E+02</totfact>
</mgrwt>
</event>
<event>
 6    1  0.9022793E-004  0.3995391E+03  0.7818608E-02  0.1043939E+00
          2   -1    0    0  502    0  0.00000000000E+00  0.00000000000E+00  0.44468349495E+04  0.44468349495E+04  0.00000000000E+00 0.  1.
         -2   -1    0    0    0  501 -0.00000000000E+00 -0.00000000000E+00 -0.52623595730E+02  0.52623595730E+02  0.00000000000E+00 0. -1.
    9000007    2    1    2  502    0  0.14961928871E+02 -0.13739841949E+02  0.92512385439E+03  0.10073272875E+04  0.39804707723E+03 0.  0.
    9000005    1    3    3    0    0 -0.42633164498E+02 -0.11808518876E+03  0.69618949596E+02  0.14356008030E+03  0.99999687468E+00 0.  0.
          4    1    3    3  502    0  0.57595093368E+02  0.10434534681E+03  0.85550490479E+03  0.86376720724E+03  0.00000000000E+00 0.  1.
   -9000007    1    1    2    0  501 -0.14961928871E+02  0.13739841949E+02  0.34690874994E+04  0.34921312577E+04  0.40000000000E+03 0.  1.
<mgrwt>
<rscale>  2 0.39953908E+03</rscale>
<asrwt>0</asrwt>
<pdfrwt beam="1">  1        2 0.68412815E+00 0.39953908E+03</pdfrwt>
<pdfrwt beam="2">  1       -2 0.80959414E-02 0.39953908E+03</pdfrwt>
<totfact> 0.16620882E+01</totfact>
</mgrwt>
</event>
<event>
 6    1  0.9022793E-004  0.5371454E+03  0.7818608E-02  0.1004514E+00
         -1   -1    0    0    0  501 -0.00000000000E+00  0.00000000000E+00  0.92682132897E+03  0.92682132897E+03  0.00000000000E+00 0. -1.
          1   -1    0    0  502    0  0.00000000000E+00 -0.00000000000E+00 -0.52771530605E+03  0.52771530605E+03  0.00000000000E+00 0.  1.
    9000007    2    1    2  502    0 -0.35349705025E+03 -0.58876597700E+02 -0.26615522015E+03  0.59955175807E+03  0.40024628804E+03 0.  0.
    9000005    1    3    3    0    0 -0.13871287197E+03 -0.18573440948E+03  0.39888477079E+01  0.23185219994E+03  0.99999687468E+00 0.  0.
          4    1    3    3  502    0 -0.21478417828E+03  0.12685781178E+03 -0.27014406786E+03  0.36769955813E+03  0.00000000000E+00 0.  1.
   -9000007    1    1    2    0  501  0.35349705025E+03  0.58876597700E+02  0.66526124306E+03  0.85498487695E+03  0.40000000000E+03 0. -1.
<mgrwt>
<rscale>  2 0.53714537E+03</rscale>
<asrwt>0</asrwt>
<pdfrwt beam="1">  1        1 0.81186970E-01 0.53714537E+03</pdfrwt>
<pdfrwt beam="2">  1       -1 0.14258790E+00 0.53714537E+03</pdfrwt>
<totfact> 0.17351100E+01</totfact>
</mgrwt>
</event>
<event>
 6    1  0.9022793E-004  0.7223586E+03  0.7818608E-02  0.9679742E-01
         -2   -1    0    0    0  501 -0.00000000000E+00  0.00000000000E+00  0.19955599921E+03  0.19955599921E+03  0.00000000000E+00 0. -1.
          2   -1    0    0  502    0  0.00000000000E+00 -0.00000000000E+00 -0.26435581478E+04  0.26435581478E+04  0.00000000000E+00 0.  1.
    9000007    2    1    2  502    0  0.59648498688E+03 -0.77262030617E+02 -0.10738148040E+04  0.12941864146E+04  0.40009559045E+03 0.  0.
    9000005    1    3    3    0    0  0.36367805821E+03 -0.20204875744E+03 -0.43013148129E+03  0.59841417229E+03  0.99999687468E+00 0.  0.
          4    1    3    3  502    0  0.23280692867E+03  0.12478672683E+03 -0.64368332274E+03  0.69577224233E+03  0.00000000000E+00 0.  1.
   -9000007    1    1    2    0  501 -0.59648498688E+03  0.77262030617E+02 -0.13701873446E+04  0.15489277324E+04  0.40000000000E+03 0. -1.
<mgrwt>
<rscale>  2 0.72235864E+03</rscale>
<asrwt>0</asrwt>
<pdfrwt beam="1">  1        2 0.40670124E+00 0.72235864E+03</pdfrwt>
<pdfrwt beam="2">  1       -2 0.30700924E-01 0.72235864E+03</pdfrwt>
<totfact> 0.29614123E+01</totfact>
</mgrwt>
</event>
<event>
 6    1  0.9022793E-004  0.4677238E+03  0.7818608E-02  0.1022565E+00
         -1   -1    0    0    0  501 -0.00000000000E+00  0.00000000000E+00  0.11039144646E+04  0.11039144646E+04  0.00000000000E+00 0. -1.
          1   -1    0    0  502    0  0.00000000000E+00 -0.00000000000E+00 -0.46972384051E+03  0.46972384051E+03  0.00000000000E+00 0.  1.
    9000007    2    1    2  502    0  0.84217239786E+01  0.24243727642E+03  0.91531612433E+03  0.10278560177E+04  0.39979698242E+03 0.  0.
    9000005    1    3    3    0    0  0.43579970568E+02 -0.63221875677E+02  0.52630967587E+03  0.53188259447E+03  0.99999687468E+00 0.  0.
          4    1    3    3  502    0 -0.35158246589E+02  0.30565915210E+03  0.38900644847E+03  0.49597342320E+03  0.00000000000E+00 0.  1.
   -9000007    1    1    2    0  501 -0.84217239786E+01 -0.24243727642E+03 -0.28112550023E+03  0.54578228747E+03  0.40000000000E+03 0.  1.
<mgrwt>
<rscale>  2 0.46772380E+03</rscale>
<asrwt>0</asrwt>
<pdfrwt beam="1">  1        1 0.72265206E-01 0.46772380E+03</pdfrwt>
<pdfrwt beam="2">  1       -1 0.16983299E+00 0.46772380E+03</pdfrwt>
<totfact> 0.12796623E+01</totfact>
</mgrwt>
</event>
<event>
 6    1  0.9022793E-004  0.6179316E+03  0.7818608E-02  0.9868886E-01
          2   -1    0    0  502    0  0.00000000000E+00  0.00000000000E+00  0.74468628704E+03  0.74468628704E+03  0.00000000000E+00 0. -1.
         -2   -1    0    0    0  501 -0.00000000000E+00 -0.00000000000E+00 -0.68362151262E+03  0.68362151262E+03  0.00000000000E+00 0.  1.
    9000007    2    1    2  502    0 -0.88317242124E+02  0.46240183940E+03  0.38757837684E+03  0.72957571302E+03  0.40056001609E+03 0.  0.
    9000005    1    3    3    0    0  0.10253762361E+03  0.40565404584E+03  0.24762611031E+03  0.48619837480E+03  0.99999687468E+00 0.  0.
          4    1    3    3  502    0 -0.19085486573E+03  0.56747793555E+02  0.13995226654E+03  0.24337733821E+03  0.00000000000E+00 0.  1.
   -9000007    1    1    2    0  501  0.88317242124E+02 -0.46240183940E+03 -0.32651360242E+03  0.69873208664E+03  0.40000000000E+03 0.  1.
<mgrwt>
<rscale>  2 0.61793163E+03</rscale>
<asrwt>0</asrwt>
<pdfrwt beam="1">  1        2 0.11456712E+00 0.61793163E+03</pdfrwt>
<pdfrwt beam="2">  1       -2 0.10517254E+00 0.61793163E+03</pdfrwt>
<totfact> 0.28456518E+01</totfact>
</mgrwt>
</event>
<event>
 6    1  0.9022793E-004  0.4398496E+03  0.7818608E-02  0.1030793E+00
          2   -1    0    0  502    0  0.00000000000E+00  0.00000000000E+00  0.56988889981E+03  0.56988889981E+03  0.00000000000E+00 0. -1.
         -2   -1    0    0    0  501 -0.00000000000E+00 -0.00000000000E+00 -0.34775631975E+03  0.34775631975E+03  0.00000000000E+00 0.  1.
    9000007    2    1    2  502    0  0.17498824131E+03  0.50611259226E+02  0.40377853496E+02  0.44202229667E+03  0.40071305886E+03 0.  0.
    9000005    1    3    3    0    0  0.45906145385E+01 -0.12155513106E+03  0.13521954262E+03  0.18188471164E+03  0.99999687468E+00 0.  0.
          4    1    3    3  502    0  0.17039762677E+03  0.17216639028E+03 -0.94841689119E+02  0.26013758503E+03  0.00000000000E+00 0.  1.
   -9000007    1    1    2    0  501 -0.17498824131E+03 -0.50611259226E+02  0.18175472657E+03  0.47562292290E+03  0.40000000000E+03 0. -1.
<mgrwt>
<rscale>  2 0.43984958E+03</rscale>
<asrwt>0</asrwt>
<pdfrwt beam="1">  1        2 0.87675215E-01 0.43984958E+03</pdfrwt>
<pdfrwt beam="2">  1       -2 0.53500972E-01 0.43984958E+03</pdfrwt>
<totfact> 0.17858875E+02</totfact>
</mgrwt>
</event>
<event>
 6    1  0.9022793E-004  0.4208807E+03  0.7818608E-02  0.1036780E+00
          2   -1    0    0  502    0  0.00000000000E+00  0.00000000000E+00  0.82652259635E+03  0.82652259635E+03  0.00000000000E+00 0.  1.
         -2   -1    0    0    0  501 -0.00000000000E+00 -0.00000000000E+00 -0.21717329627E+03  0.21717329627E+03  0.00000000000E+00 0. -1.
    9000007    2    1    2  502    0  0.61766648311E+02  0.11547071439E+03  0.24485483559E+03  0.48691512844E+03  0.39997980832E+03 0.  0.
    9000005    1    3    3    0    0  0.17929138906E+03 -0.57993876418E+02  0.37509548894E+02  0.19213708165E+03  0.99999687468E+00 0.  0.
          4    1    3    3  502    0 -0.11752474075E+03  0.17346459081E+03  0.20734528669E+03  0.29477804679E+03  0.00000000000E+00 0.  1.
   -9000007    1    1    2    0  501 -0.61766648311E+02 -0.11547071439E+03  0.36449446449E+03  0.55678076418E+03  0.40000000000E+03 0.  1.
<mgrwt>
<rscale>  2 0.42088066E+03</rscale>
<asrwt>0</asrwt>
<pdfrwt beam="1">  1        2 0.12715732E+00 0.42088066E+03</pdfrwt>
<pdfrwt beam="2">  1       -2 0.33411277E-01 0.42088066E+03</pdfrwt>
<totfact> 0.28351374E+02</totfact>
</mgrwt>
</event>
<event>
 6    1  0.9022793E-004  0.4568743E+03  0.7818608E-02  0.1025692E+00
          2   -1    0    0  502    0  0.00000000000E+00  0.00000000000E+00  0.25678106564E+04  0.25678106564E+04  0.00000000000E+00 0.  1.
         -2   -1    0    0    0  501 -0.00000000000E+00 -0.00000000000E+00 -0.92816043026E+02  0.92816043026E+02  0.00000000000E+00 0. -1.
    9000007    2    1    2  502    0  0.17646193121E+03 -0.13297415444E+03  0.76845228454E+03  0.89396100977E+03  0.39978298420E+03 0.  0.
    9000005    1    3    3    0    0 -0.51237019536E+02  0.87724060697E+02  0.60526311135E+02  0.11825894186E+03  0.99999687468E+00 0.  0.
          4    1    3    3  502    0  0.22769895075E+03 -0.22069821513E+03  0.70792597341E+03  0.77570206791E+03  0.00000000000E+00 0.  1.
   -9000007    1    1    2    0  501 -0.17646193121E+03  0.13297415444E+03  0.17065423288E+04  0.17666656896E+04  0.40000000000E+03 0.  1.
<mgrwt>
<rscale>  2 0.45687431E+03</rscale>
<asrwt>0</asrwt>
<pdfrwt beam="1">  1        2 0.39504774E+00 0.45687431E+03</pdfrwt>
<pdfrwt beam="2">  1       -2 0.14279393E-01 0.45687431E+03</pdfrwt>
<totfact> 0.13130449E+02</totfact>
</mgrwt>
</event>
<event>
 6    1  0.9022793E-004  0.4012961E+03  0.7818608E-02  0.1043332E+00
         -2   -1    0    0    0  501 -0.00000000000E+00  0.00000000000E+00  0.54283733357E+02  0.54283733357E+02  0.00000000000E+00 0. -1.
          2   -1    0    0  502    0  0.00000000000E+00 -0.00000000000E+00 -0.30416286782E+04  0.30416286782E+04  0.00000000000E+00 0.  1.
    9000007    2    1    2  502    0  0.35575178967E+02  0.18911500325E+02 -0.12479433260E+04  0.13106557830E+04  0.39853832737E+03 0.  0.
    9000005    1    3    3    0    0 -0.11049223513E+03 -0.14403685023E+03 -0.54537171599E+03  0.57479253374E+03  0.99999687468E+00 0.  0.
          4    1    3    3  502    0  0.14606741409E+03  0.16294835056E+03 -0.70257161006E+03  0.73586324930E+03  0.00000000000E+00 0.  1.
   -9000007    1    1    2    0  501 -0.35575178967E+02 -0.18911500325E+02 -0.17394016188E+04  0.17852566285E+04  0.40000000000E+03 0.  1.
<mgrwt>
<rscale>  2 0.40129612E+03</rscale>
<asrwt>0</asrwt>
<pdfrwt beam="1">  1        2 0.46794289E+00 0.40129612E+03</pdfrwt>
<pdfrwt beam="2">  1       -2 0.83513433E-02 0.40129612E+03</pdfrwt>
<totfact> 0.16817861E+02</totfact>
</mgrwt>
</event>
<event>
 6    1  0.9022793E-004  0.7312288E+03  0.7818608E-02  0.9665268E-01
         -1   -1    0    0    0  501 -0.00000000000E+00  0.00000000000E+00  0.54429197621E+03  0.54429197621E+03  0.00000000000E+00 0. -1.
          1   -1    0    0  502    0  0.00000000000E+00 -0.00000000000E+00 -0.98260870883E+03  0.98260870883E+03  0.00000000000E+00 0.  1.
    9000007    2    1    2  502    0 -0.50486519094E+03 -0.34397293321E+03 -0.23133976980E+03  0.76792393774E+03  0.40371133903E+03 0.  0.
    9000005    1    3    3    0    0 -0.54872389212E+03 -0.31075472450E+03 -0.11746658183E+03  0.64145600506E+03  0.99999687468E+00 0.  0.
          4    1    3    3  502    0  0.43858701184E+02 -0.33218208705E+02 -0.11387318796E+03  0.12646793268E+03  0.00000000000E+00 0.  1.
   -9000007    1    1    2    0  501  0.50486519094E+03  0.34397293321E+03 -0.20697696283E+03  0.75897674730E+03  0.40000000000E+03 0.  1.
<mgrwt>
<rscale>  2 0.73122882E+03</rscale>
<asrwt>0</asrwt>
<pdfrwt beam="1">  1        1 0.15117057E+00 0.73122882E+03</pdfrwt>
<pdfrwt beam="2">  1       -1 0.83737228E-01 0.73122882E+03</pdfrwt>
<totfact> 0.22759032E+01</totfact>
</mgrwt>
</event>
<event>
 6    1  0.9022793E-004  0.6176852E+03  0.7818608E-02  0.9869379E-01
         -1   -1    0    0    0  501 -0.00000000000E+00  0.00000000000E+00  0.20469665432E+03  0.20469665432E+03  0.00000000000E+00 0. -1.
          1   -1    0    0  502    0  0.00000000000E+00 -0.00000000000E+00 -0.19075707552E+04  0.19075707552E+04  0.00000000000E+00 0.  1.
    9000007    2    1    2  502    0 -0.30061524407E+03 -0.36142926391E+03 -0.69223115039E+03  0.92803778180E+03  0.40133467468E+03 0.  0.
    9000005    1    3    3    0    0 -0.71415115421E+02 -0.28690493496E+03 -0.14336287424E+03  0.32858556590E+03  0.99999687468E+00 0.  0.
          4    1    3    3  502    0 -0.22920012865E+03 -0.74524328951E+02 -0.54886827615E+03  0.59945221590E+03  0.00000000000E+00 0.  1.
   -9000007    1    1    2    0  501  0.30061524407E+03  0.36142926391E+03 -0.10106429505E+04  0.11842296277E+04  0.40000000000E+03 0.  1.
<mgrwt>
<rscale>  2 0.61768521E+03</rscale>
<asrwt>0</asrwt>
<pdfrwt beam="1">  1        1 0.29347243E+00 0.61768521E+03</pdfrwt>
<pdfrwt beam="2">  1       -1 0.31491793E-01 0.61768521E+03</pdfrwt>
<totfact> 0.34016165E+01</totfact>
</mgrwt>
</event>
<event>
 6    1  0.9022793E-004  0.4053430E+03  0.7818608E-02  0.1041945E+00
          1   -1    0    0  502    0  0.00000000000E+00  0.00000000000E+00  0.19285547301E+04  0.19285547301E+04  0.00000000000E+00 0. -1.
         -1   -1    0    0    0  501 -0.00000000000E+00 -0.00000000000E+00 -0.89972875421E+02  0.89972875421E+02  0.00000000000E+00 0.  1.
    9000007    2    1    2  502    0 -0.65099488415E+02  0.48357816984E+01  0.11519817441E+04  0.12212315250E+04  0.40010394992E+03 0.  0.
    9000005    1    3    3    0    0 -0.20556877813E+03  0.52291043692E+02  0.93277874283E+03  0.95659294314E+03  0.99999687468E+00 0.  0.
          4    1    3    3  502    0  0.14046928972E+03 -0.47455261994E+02  0.21920300127E+03  0.26463858186E+03  0.00000000000E+00 0.  1.
   -9000007    1    1    2    0  501  0.65099488415E+02 -0.48357816984E+01  0.68660011063E+03  0.79729608057E+03  0.40000000000E+03 0.  1.
<mgrwt>
<rscale>  2 0.40534295E+03</rscale>
<asrwt>0</asrwt>
<pdfrwt beam="1">  1        1 0.29670070E+00 0.40534295E+03</pdfrwt>
<pdfrwt beam="2">  1       -1 0.13841982E-01 0.40534295E+03</pdfrwt>
<totfact> 0.13400831E+02</totfact>
</mgrwt>
</event>
<event>
 6    1  0.9022793E-004  0.7894244E+03  0.7818608E-02  0.9575452E-01
         -2   -1    0    0    0  501 -0.00000000000E+00  0.00000000000E+00  0.83001509912E+03  0.83001509912E+03  0.00000000000E+00 0. -1.
          2   -1    0    0  502    0  0.00000000000E+00 -0.00000000000E+00 -0.82585007880E+03  0.82585007880E+03  0.00000000000E+00 0.  1.
    9000007    2    1    2  502    0 -0.61849840145E+03 -0.28448467885E+03  0.25163681424E+03  0.82839065030E+03  0.39929710509E+03 0.  0.
    9000005    1    3    3    0    0 -0.59833510026E+02 -0.10014102843E+02  0.19401619216E+03  0.20328210445E+03  0.99999687468E+00 0.  0.
          4    1    3    3  502    0 -0.55866489142E+03 -0.27447057601E+03  0.57620622078E+02  0.62510854584E+03  0.00000000000E+00 0.  1.
   -9000007    1    1    2    0  501  0.61849840145E+03  0.28448467885E+03 -0.24747179391E+03  0.82747452763E+03  0.40000000000E+03 0.  1.
<mgrwt>
<rscale>  2 0.78942437E+03</rscale>
<asrwt>0</asrwt>
<pdfrwt beam="1">  1        2 0.12705386E+00 0.78942437E+03</pdfrwt>
<pdfrwt beam="2">  1       -2 0.12769463E+00 0.78942437E+03</pdfrwt>
<totfact> 0.15166206E+01</totfact>
</mgrwt>
</event>
<event>
 6    1  0.9022793E-004  0.4391366E+03  0.7818608E-02  0.1031012E+00
          2   -1    0    0  502    0  0.00000000000E+00  0.00000000000E+00  0.12967007469E+04  0.12967007469E+04  0.00000000000E+00 0.  1.
         -2   -1    0    0    0  501 -0.00000000000E+00 -0.00000000000E+00 -0.15394441048E+03  0.15394441048E+03  0.00000000000E+00 0. -1.
    9000007    2    1    2  502    0  0.18151474864E+03 -0.10706779114E+01  0.70488616794E+03  0.83042017017E+03  0.39973040784E+03 0.  0.
    9000005    1    3    3    0    0  0.14669601191E+03  0.14635677000E+03  0.62645170524E+03  0.65983540601E+03  0.99999687468E+00 0.  0.
          4    1    3    3  502    0  0.34818736725E+02 -0.14742744791E+03  0.78434462703E+02  0.17058476416E+03  0.00000000000E+00 0.  1.
   -9000007    1    1    2    0  501 -0.18151474864E+03  0.10706779114E+01  0.43787016848E+03  0.62022498722E+03  0.40000000000E+03 0.  1.
<mgrwt>
<rscale>  2 0.43913656E+03</rscale>
<asrwt>0</asrwt>
<pdfrwt beam="1">  1        2 0.19949242E+00 0.43913656E+03</pdfrwt>
<pdfrwt beam="2">  1       -2 0.23683756E-01 0.43913656E+03</pdfrwt>
<totfact> 0.27196945E+02</totfact>
</mgrwt>
</event>
<event>
 6    1  0.9022793E-004  0.7881384E+03  0.7818608E-02  0.9577347E-01
         -2   -1    0    0    0  501 -0.00000000000E+00  0.00000000000E+00  0.31502789732E+03  0.31502789732E+03  0.00000000000E+00 0.  1.
          2   -1    0    0  502    0  0.00000000000E+00 -0.00000000000E+00 -0.27019733274E+04  0.27019733274E+04  0.00000000000E+00 0. -1.
    9000007    2    1    2  502    0  0.13642471163E+03 -0.66532109341E+03 -0.40920072862E+03  0.88797845278E+03  0.39974571546E+03 0.  0.
    9000005    1    3    3    0    0 -0.10525046671E+03 -0.32860312333E+02 -0.44167689340E+02  0.11878234568E+03  0.99999687468E+00 0.  0.
          4    1    3    3  502    0  0.24167517834E+03 -0.63246078108E+03 -0.36503303928E+03  0.76919610711E+03  0.00000000000E+00 0.  1.
   -9000007    1    1    2    0  501 -0.13642471163E+03  0.66532109341E+03 -0.19777447014E+04  0.21290227719E+04  0.40000000000E+03 0. -1.
<mgrwt>
<rscale>  2 0.78813842E+03</rscale>
<asrwt>0</asrwt>
<pdfrwt beam="1">  1        2 0.41568818E+00 0.78813842E+03</pdfrwt>
<pdfrwt beam="2">  1       -2 0.48465833E-01 0.78813842E+03</pdfrwt>
<totfact> 0.11183466E+01</totfact>
</mgrwt>
</event>
<event>
 6    1  0.9022793E-004  0.6557546E+03  0.7818608E-02  0.9796041E-01
          2   -1    0    0  502    0  0.00000000000E+00  0.00000000000E+00  0.20357470701E+04  0.20357470701E+04  0.00000000000E+00 0.  1.
         -2   -1    0    0    0  501 -0.00000000000E+00 -0.00000000000E+00 -0.30317187731E+03  0.30317187731E+03  0.00000000000E+00 0. -1.
    9000007    2    1    2  502    0 -0.51641232896E+03  0.52786115746E+02  0.22265992535E+03  0.69292010709E+03  0.40136363180E+03 0.  0.
    9000005    1    3    3    0    0 -0.55185538006E+03  0.96383218890E+02  0.26772305088E+03  0.62089509368E+03  0.99999687468E+00 0.  0.
          4    1    3    3  502    0  0.35443051102E+02 -0.43597103145E+02 -0.45063125527E+02  0.72025013407E+02  0.00000000000E+00 0.  1.
   -9000007    1    1    2    0  501  0.51641232896E+03 -0.52786115746E+02  0.15099152675E+04  0.16459988404E+04  0.40000000000E+03 0.  1.
<mgrwt>
<rscale>  2 0.65575461E+03</rscale>
<asrwt>0</asrwt>
<pdfrwt beam="1">  1        2 0.31319185E+00 0.65575461E+03</pdfrwt>
<pdfrwt beam="2">  1       -2 0.46641829E-01 0.65575461E+03</pdfrwt>
<totfact> 0.29127674E+01</totfact>
</mgrwt>
</event>
<event>
 6    1  0.9022793E-004  0.5557700E+03  0.7818608E-02  0.1000167E+00
          2   -1    0    0  502    0  0.00000000000E+00  0.00000000000E+00  0.70793951945E+03  0.70793951945E+03  0.00000000000E+00 0. -1.
         -2   -1    0    0    0  501 -0.00000000000E+00 -0.00000000000E+00 -0.47158225391E+03  0.47158225391E+03  0.00000000000E+00 0.  1.
    9000007    2    1    2  502    0  0.26932796683E+03 -0.28113160207E+03 -0.43570724320E+02  0.55507625059E+03  0.39324128032E+03 0.  0.
    9000005    1    3    3    0    0 -0.19865956351E+02 -0.18010118107E+03  0.11044624510E+03  0.21220382819E+03  0.99999687468E+00 0.  0.
          4    1    3    3  502    0  0.28919392318E+03 -0.10103042100E+03 -0.15401696943E+03  0.34287242240E+03  0.00000000000E+00 0.  1.
   -9000007    1    1    2    0  501 -0.26932796683E+03  0.28113160207E+03  0.27992798986E+03  0.62444552277E+03  0.40000000000E+03 0. -1.
<mgrwt>
<rscale>  2 0.55576996E+03</rscale>
<asrwt>0</asrwt>
<pdfrwt beam="1">  1        2 0.10891377E+00 0.55576996E+03</pdfrwt>
<pdfrwt beam="2">  1       -2 0.72551115E-01 0.55576996E+03</pdfrwt>
<totfact> 0.71371037E+01</totfact>
</mgrwt>
</event>
<event>
 6    1  0.9022793E-004  0.4072613E+03  0.7818608E-02  0.1041294E+00
          2   -1    0    0  502    0  0.00000000000E+00  0.00000000000E+00  0.20381706318E+04  0.20381706318E+04  0.00000000000E+00 0.  1.
         -2   -1    0    0    0  501 -0.00000000000E+00 -0.00000000000E+00 -0.10096834919E+03  0.10096834919E+03  0.00000000000E+00 0. -1.
    9000007    2    1    2  502    0 -0.15461834459E+01  0.76136085898E+02  0.49761973231E+03  0.64307848308E+03  0.40015677322E+03 0.  0.
    9000005    1    3    3    0    0 -0.11294780608E+03 -0.96154105021E+02  0.37687429138E+03  0.40501611117E+03  0.99999687468E+00 0.  0.
          4    1    3    3  502    0  0.11140162264E+03  0.17229019092E+03  0.12074544093E+03  0.23806237191E+03  0.00000000000E+00 0.  1.
   -9000007    1    1    2    0  501  0.15461834459E+01 -0.76136085898E+02  0.14395825503E+04  0.14960604979E+04  0.40000000000E+03 0.  1.
<mgrwt>
<rscale>  2 0.40726135E+03</rscale>
<asrwt>0</asrwt>
<pdfrwt beam="1">  1        2 0.31356468E+00 0.40726135E+03</pdfrwt>
<pdfrwt beam="2">  1       -2 0.15533594E-01 0.40726135E+03</pdfrwt>
<totfact> 0.22410966E+02</totfact>
</mgrwt>
</event>
<event>
 6    1  0.9022793E-004  0.5355158E+03  0.7818608E-02  0.1004903E+00
         -1   -1    0    0    0  501 -0.00000000000E+00  0.00000000000E+00  0.24859633923E+03  0.24859633923E+03  0.00000000000E+00 0. -1.
          1   -1    0    0  502    0  0.00000000000E+00 -0.00000000000E+00 -0.11615858827E+04  0.11615858827E+04  0.00000000000E+00 0.  1.
    9000007    2    1    2  502    0  0.25885322123E+03 -0.24484351340E+03 -0.51487102743E+03  0.74276054938E+03  0.39955941065E+03 0.  0.
    9000005    1    3    3    0    0  0.10052247952E+03  0.10812544141E+03 -0.12376263413E+03  0.19265012216E+03  0.99999687468E+00 0.  0.
          4    1    3    3  502    0  0.15833074171E+03 -0.35296895481E+03 -0.39110839329E+03  0.55011042722E+03  0.00000000000E+00 0.  1.
   -9000007    1    1    2    0  501 -0.25885322123E+03  0.24484351340E+03 -0.39811851608E+03  0.66742167259E+03  0.40000000000E+03 0. -1.
<mgrwt>
<rscale>  2 0.53551577E+03</rscale>
<asrwt>0</asrwt>
<pdfrwt beam="1">  1        1 0.17870552E+00 0.53551577E+03</pdfrwt>
<pdfrwt beam="2">  1       -1 0.38245591E-01 0.53551577E+03</pdfrwt>
<totfact> 0.78844365E+01</totfact>
</mgrwt>
</event>
<event>
 6    1  0.9022793E-004  0.4344416E+03  0.7818608E-02  0.1032466E+00
          2   -1    0    0  502    0  0.00000000000E+00  0.00000000000E+00  0.10161776438E+04  0.10161776438E+04  0.00000000000E+00 0.  1.
         -2   -1    0    0    0  501 -0.00000000000E+00 -0.00000000000E+00 -0.28452454363E+03  0.28452454363E+03  0.00000000000E+00 0. -1.
    9000007    2    1    2  502    0 -0.75813697711E+02  0.15188581131E+03 -0.17438832916E+02  0.43470233716E+03  0.39980619380E+03 0.  0.
    9000005    1    3    3    0    0 -0.17734123133E+03 -0.58536630198E+02 -0.62154613458E+02  0.19682643464E+03  0.99999687468E+00 0.  0.
          4    1    3    3  502    0  0.10152753362E+03  0.21042244150E+03  0.44715780542E+02  0.23787590252E+03  0.00000000000E+00 0.  1.
   -9000007    1    1    2    0  501  0.75813697711E+02 -0.15188581131E+03  0.74909193304E+03  0.86599985022E+03  0.40000000000E+03 0.  1.
<mgrwt>
<rscale>  2 0.43444159E+03</rscale>
<asrwt>0</asrwt>
<pdfrwt beam="1">  1        2 0.15633502E+00 0.43444159E+03</pdfrwt>
<pdfrwt beam="2">  1       -2 0.43773007E-01 0.43444159E+03</pdfrwt>
<totfact> 0.12680384E+02</totfact>
</mgrwt>
</event>
<event>
 6    1  0.9022793E-004  0.5008288E+03  0.7818608E-02  0.1013563E+00
          1   -1    0    0  502    0  0.00000000000E+00  0.00000000000E+00  0.63472769193E+03  0.63472769193E+03  0.00000000000E+00 0.  1.
         -1   -1    0    0    0  501 -0.00000000000E+00 -0.00000000000E+00 -0.47057442031E+03  0.47057442031E+03  0.00000000000E+00 0. -1.
    9000007    2    1    2  502    0 -0.23254277657E+03  0.19350096541E+03 -0.13923259476E+03  0.51916070399E+03  0.39827547573E+03 0.  0.
    9000005    1    3    3    0    0 -0.29431289936E+03  0.10496602026E+03  0.34759081406E+02  0.31439965310E+03  0.99999687468E+00 0.  0.
          4    1    3    3  502    0  0.61770122787E+02  0.88534945151E+02 -0.17399167617E+03  0.20476105088E+03  0.00000000000E+00 0.  1.
   -9000007    1    1    2    0  501  0.23254277657E+03 -0.19350096541E+03  0.30338586638E+03  0.58614140825E+03  0.40000000000E+03 0.  1.
<mgrwt>
<rscale>  2 0.50082881E+03</rscale>
<asrwt>0</asrwt>
<pdfrwt beam="1">  1        1 0.97650414E-01 0.50082881E+03</pdfrwt>
<pdfrwt beam="2">  1       -1 0.72396065E-01 0.50082881E+03</pdfrwt>
<totfact> 0.63552988E+01</totfact>
</mgrwt>
</event>
<event>
 6    1  0.9022793E-004  0.6641281E+03  0.7818608E-02  0.9780624E-01
          2   -1    0    0  502    0  0.00000000000E+00  0.00000000000E+00  0.54241875888E+03  0.54241875888E+03  0.00000000000E+00 0. -1.
         -2   -1    0    0    0  501 -0.00000000000E+00 -0.00000000000E+00 -0.89207321924E+03  0.89207321924E+03  0.00000000000E+00 0.  1.
    9000007    2    1    2  502    0 -0.51298537895E+03 -0.13375134157E+03  0.38511961432E+02  0.66526080910E+03  0.40005668670E+03 0.  0.
    9000005    1    3    3    0    0 -0.43328761496E+02  0.13374672931E+02  0.15331752251E+03  0.15988597859E+03  0.99999687468E+00 0.  0.
          4    1    3    3  502    0 -0.46965661745E+03 -0.14712601450E+03 -0.11480556108E+03  0.50537483051E+03  0.00000000000E+00 0.  1.
   -9000007    1    1    2    0  501  0.51298537895E+03  0.13375134157E+03 -0.38816642179E+03  0.76923116902E+03  0.40000000000E+03 0. -1.
<mgrwt>
<rscale>  2 0.66412807E+03</rscale>
<asrwt>0</asrwt>
<pdfrwt beam="1">  1        2 0.83449041E-01 0.66412807E+03</pdfrwt>
<pdfrwt beam="2">  1       -2 0.13724203E+00 0.66412807E+03</pdfrwt>
<totfact> 0.21613637E+01</totfact>
</mgrwt>
</event>
<event>
 6    1  0.9022793E-004  0.4501932E+03  0.7818608E-02  0.1027664E+00
         -2   -1    0    0    0  501 -0.00000000000E+00  0.00000000000E+00  0.67992777459E+02  0.67992777459E+02  0.00000000000E+00 0.  1.
          2   -1    0    0  502    0  0.00000000000E+00 -0.00000000000E+00 -0.31930757182E+04  0.31930757182E+04  0.00000000000E+00 0. -1.
    9000007    2    1    2  502    0  0.19984696944E+03 -0.52086256773E+02 -0.11422239087E+04  0.12277505839E+04  0.40005530783E+03 0.  0.
    9000005    1    3    3    0    0  0.15805812134E+03  0.30888084673E+02 -0.11209267864E+04  0.11324373289E+04  0.99999687468E+00 0.  0.
          4    1    3    3  502    0  0.41788848103E+02 -0.82974341446E+02 -0.21297122369E+02  0.95313255036E+02  0.00000000000E+00 0.  1.
   -9000007    1    1    2    0  501 -0.19984696944E+03  0.52086256773E+02 -0.19828590321E+04  0.20333179118E+04  0.40000000000E+03 0. -1.
<mgrwt>
<rscale>  2 0.45019319E+03</rscale>
<asrwt>0</asrwt>
<pdfrwt beam="1">  1        2 0.49124241E+00 0.45019319E+03</pdfrwt>
<pdfrwt beam="2">  1       -2 0.10460428E-01 0.45019319E+03</pdfrwt>
<totfact> 0.93553225E+01</totfact>
</mgrwt>
</event>
<event>
 6    1  0.9022793E-004  0.4189660E+03  0.7818608E-02  0.1037403E+00
         -2   -1    0    0    0  501 -0.00000000000E+00  0.00000000000E+00  0.19392597657E+03  0.19392597657E+03  0.00000000000E+00 0. -1.
          2   -1    0    0  502    0  0.00000000000E+00 -0.00000000000E+00 -0.90517748953E+03  0.90517748953E+03  0.00000000000E+00 0.  1.
    9000007    2    1    2  502    0  0.12211078003E+03 -0.79049730425E+01 -0.35342416072E+03  0.54863644146E+03  0.40139727991E+03 0.  0.
    9000005    1    3    3    0    0  0.54005701445E+02 -0.20445132926E+03 -0.18567023988E+03  0.28140966543E+03  0.99999687468E+00 0.  0.
          4    1    3    3  502    0  0.68105078581E+02  0.19654635622E+03 -0.16775392084E+03  0.26722677603E+03  0.00000000000E+00 0.  1.
   -9000007    1    1    2    0  501 -0.12211078003E+03  0.79049730425E+01 -0.35782735224E+03  0.55046702463E+03  0.40000000000E+03 0. -1.
<mgrwt>
<rscale>  2 0.41896602E+03</rscale>
<asrwt>0</asrwt>
<pdfrwt beam="1">  1        2 0.13925807E+00 0.41896602E+03</pdfrwt>
<pdfrwt beam="2">  1       -2 0.29834766E-01 0.41896602E+03</pdfrwt>
<totfact> 0.30957725E+02</totfact>
</mgrwt>
</event>
<event>
 6    1  0.9022793E-004  0.4366747E+03  0.7818608E-02  0.1031772E+00
          2   -1    0    0  502    0  0.00000000000E+00  0.00000000000E+00  0.26620965901E+04  0.26620965901E+04  0.00000000000E+00 0. -1.
         -2   -1    0    0    0  501 -0.00000000000E+00 -0.00000000000E+00 -0.84057214716E+02  0.84057214716E+02  0.00000000000E+00 0.  1.
    9000007    2    1    2  502    0 -0.21066611958E+02 -0.17101779895E+03  0.76394013321E+03  0.88050460142E+03  0.40248346089E+03 0.  0.
    9000005    1    3    3    0    0  0.13316910242E+03  0.22134102928E+02  0.50415818317E+03  0.52191991915E+03  0.99999687468E+00 0.  0.
          4    1    3    3  502    0 -0.15423571438E+03 -0.19315190188E+03  0.25978195004E+03  0.35858468227E+03  0.00000000000E+00 0.  1.
   -9000007    1    1    2    0  501  0.21066611958E+02  0.17101779895E+03  0.18140992422E+04  0.18656492034E+04  0.40000000000E+03 0. -1.
<mgrwt>
<rscale>  2 0.43667465E+03</rscale>
<asrwt>0</asrwt>
<pdfrwt beam="1">  1        2 0.40955326E+00 0.43667465E+03</pdfrwt>
<pdfrwt beam="2">  1       -2 0.12931881E-01 0.43667465E+03</pdfrwt>
<totfact> 0.13740863E+02</totfact>
</mgrwt>
</event>
<event>
 6    1  0.9022793E-004  0.4481303E+03  0.7818608E-02  0.1028281E+00
         -1   -1    0    0    0  501 -0.00000000000E+00  0.00000000000E+00  0.24621074107E+03  0.24621074107E+03  0.00000000000E+00 0.  1.
          1   -1    0    0  502    0  0.00000000000E+00 -0.00000000000E+00 -0.23259740788E+04  0.23259740788E+04  0.00000000000E+00 0. -1.
    9000007    2    1    2  502    0  0.11814891564E+03  0.16178368304E+03 -0.20768532157E+04  0.21248129441E+04  0.40171836078E+03 0.  0.
    9000005    1    3    3    0    0  0.22663839941E+03  0.16263421610E+03 -0.18751219160E+04  0.18957579097E+04  0.99999687468E+00 0.  0.
          4    1    3    3  502    0 -0.10848948377E+03 -0.85053305491E+00 -0.20173129972E+03  0.22905503440E+03  0.00000000000E+00 0.  1.
   -9000007    1    1    2    0  501 -0.11814891564E+03 -0.16178368304E+03 -0.29101219491E+01  0.44737187571E+03  0.40000000000E+03 0.  1.
<mgrwt>
<rscale>  2 0.44813030E+03</rscale>
<asrwt>0</asrwt>
<pdfrwt beam="1">  1        1 0.35784217E+00 0.44813030E+03</pdfrwt>
<pdfrwt beam="2">  1       -1 0.37878575E-01 0.44813030E+03</pdfrwt>
<totfact> 0.13400944E+01</totfact>
</mgrwt>
</event>
<event>
 6    1  0.9022793E-004  0.4607741E+03  0.7818608E-02  0.1024557E+00
          2   -1    0    0  502    0  0.00000000000E+00  0.00000000000E+00  0.17093432799E+04  0.17093432799E+04  0.00000000000E+00 0.  1.
         -2   -1    0    0    0  501 -0.00000000000E+00 -0.00000000000E+00 -0.13791556083E+03  0.13791556083E+03  0.00000000000E+00 0. -1.
    9000007    2    1    2  502    0  0.17890644896E+02 -0.22796252604E+03  0.49456175416E+03  0.67596583946E+03  0.40006436855E+03 0.  0.
    9000005    1    3    3    0    0  0.14788751324E+03 -0.21047498649E+03  0.12938064931E+03  0.28794233610E+03  0.99999687468E+00 0.  0.
          4    1    3    3  502    0 -0.12999686834E+03 -0.17487539546E+02  0.36518110485E+03  0.38802350336E+03  0.00000000000E+00 0.  1.
   -9000007    1    1    2    0  501 -0.17890644896E+02  0.22796252604E+03  0.10768659649E+04  0.11712930013E+04  0.40000000000E+03 0.  1.
<mgrwt>
<rscale>  2 0.46077406E+03</rscale>
<asrwt>0</asrwt>
<pdfrwt beam="1">  1        2 0.26297587E+00 0.46077406E+03</pdfrwt>
<pdfrwt beam="2">  1       -2 0.21217780E-01 0.46077406E+03</pdfrwt>
<totfact> 0.19550745E+02</totfact>
</mgrwt>
</event>
<event>
 6    1  0.9022793E-004  0.6104495E+03  0.7818608E-02  0.9883961E-01
          2   -1    0    0  502    0  0.00000000000E+00  0.00000000000E+00  0.25066878393E+04  0.25066878393E+04  0.00000000000E+00 0.  1.
         -2   -1    0    0    0  501 -0.00000000000E+00 -0.00000000000E+00 -0.14979709690E+03  0.14979709690E+03  0.00000000000E+00 0. -1.
    9000007    2    1    2  502    0 -0.22410078530E+03 -0.40379201081E+03  0.12931018952E+04  0.14297348144E+04  0.39844695770E+03 0.  0.
    9000005    1    3    3    0    0  0.81841026143E+02 -0.21900510309E+03  0.34740964125E+03  0.41875487766E+03  0.99999687468E+00 0.  0.
          4    1    3    3  502    0 -0.30594181144E+03 -0.18478690772E+03  0.94569225395E+03  0.10109799367E+04  0.00000000000E+00 0.  1.
   -9000007    1    1    2    0  501  0.22410078530E+03  0.40379201081E+03  0.10637888472E+04  0.12267501218E+04  0.40000000000E+03 0. -1.
<mgrwt>
<rscale>  2 0.61044953E+03</rscale>
<asrwt>0</asrwt>
<pdfrwt beam="1">  1        2 0.38564425E+00 0.61044953E+03</pdfrwt>
<pdfrwt beam="2">  1       -2 0.23045709E-01 0.61044953E+03</pdfrwt>
<totfact> 0.60768564E+01</totfact>
</mgrwt>
</event>
<event>
 6    1  0.9022793E-004  0.5629839E+03  0.7818608E-02  0.9985326E-01
         -2   -1    0    0    0  501 -0.00000000000E+00  0.00000000000E+00  0.50618937809E+03  0.50618937809E+03  0.00000000000E+00 0.  1.
          2   -1    0    0  502    0  0.00000000000E+00 -0.00000000000E+00 -0.62687048825E+03  0.62687048825E+03  0.00000000000E+00 0. -1.
    9000007    2    1    2  502    0 -0.65290348946E+02 -0.39073311208E+03 -0.41145228309E+02  0.56449927058E+03  0.40003912576E+03 0.  0.
    9000005    1    3    3    0    0  0.15825149789E+03 -0.12476872183E+03  0.45133755526E+02  0.20651592290E+03  0.99999687468E+00 0.  0.
          4    1    3    3  502    0 -0.22354184683E+03 -0.26596439025E+03 -0.86278983835E+02  0.35798334768E+03  0.00000000000E+00 0.  1.
   -9000007    1    1    2    0  501  0.65290348946E+02  0.39073311208E+03 -0.79535881852E+02  0.56856059575E+03  0.40000000000E+03 0.  1.
<mgrwt>
<rscale>  2 0.56298388E+03</rscale>
<asrwt>0</asrwt>
<pdfrwt beam="1">  1        2 0.96441614E-01 0.56298388E+03</pdfrwt>
<pdfrwt beam="2">  1       -2 0.77875289E-01 0.56298388E+03</pdfrwt>
<totfact> 0.70861006E+01</totfact>
</mgrwt>
</event>
<event>
 6    1  0.9022793E-004  0.5058153E+03  0.7818608E-02  0.1012272E+00
          2   -1    0    0  502    0  0.00000000000E+00  0.00000000000E+00  0.17298508033E+04  0.17298508033E+04  0.00000000000E+00 0.  1.
         -2   -1    0    0    0  501 -0.00000000000E+00 -0.00000000000E+00 -0.16482823934E+03  0.16482823934E+03  0.00000000000E+00 0. -1.
    9000007    2    1    2  502    0 -0.28715535091E+03  0.11596198446E+03  0.47885989717E+03  0.69649094551E+03  0.39985929858E+03 0.  0.
    9000005    1    3    3    0    0 -0.18175283250E+03  0.22047172583E+03  0.46714011002E+03  0.54759725747E+03  0.99999687468E+00 0.  0.
          4    1    3    3  502    0 -0.10540251841E+03 -0.10450974137E+03  0.11719787158E+02  0.14889368804E+03  0.00000000000E+00 0.  1.
   -9000007    1    1    2    0  501  0.28715535091E+03 -0.11596198446E+03  0.10861626668E+04  0.11981880971E+04  0.40000000000E+03 0.  1.
<mgrwt>
<rscale>  2 0.50581528E+03</rscale>
<asrwt>0</asrwt>
<pdfrwt beam="1">  1        2 0.26613088E+00 0.50581528E+03</pdfrwt>
<pdfrwt beam="2">  1       -2 0.25358192E-01 0.50581528E+03</pdfrwt>
<totfact> 0.13814051E+02</totfact>
</mgrwt>
</event>
<event>
 6    1  0.9022793E-004  0.4054806E+03  0.7818608E-02  0.1041898E+00
         -1   -1    0    0    0  501 -0.00000000000E+00  0.00000000000E+00  0.10544350926E+03  0.10544350926E+03  0.00000000000E+00 0.  1.
          1   -1    0    0  502    0  0.00000000000E+00 -0.00000000000E+00 -0.22534287101E+04  0.22534287101E+04  0.00000000000E+00 0. -1.
    9000007    2    1    2  502    0 -0.73330656390E+01 -0.59639440638E+02 -0.17304187248E+04  0.17775182836E+04  0.40200951313E+03 0.  0.
    9000005    1    3    3    0    0 -0.18057446325E+02  0.17047031300E+03 -0.60803085249E+03  0.63173468842E+03  0.99999687468E+00 0.  0.
          4    1    3    3  502    0  0.10724380686E+02 -0.23010975364E+03 -0.11223878723E+04  0.11457835951E+04  0.00000000000E+00 0.  1.
   -9000007    1    1    2    0  501  0.73330656390E+01  0.59639440638E+02 -0.41756647609E+03  0.58135393581E+03  0.40000000000E+03 0.  1.
<mgrwt>
<rscale>  2 0.40548056E+03</rscale>
<asrwt>0</asrwt>
<pdfrwt beam="1">  1        1 0.34668135E+00 0.40548056E+03</pdfrwt>
<pdfrwt beam="2">  1       -1 0.16222078E-01 0.40548056E+03</pdfrwt>
<totfact> 0.63430569E+01</totfact>
</mgrwt>
</event>
<event>
 6    1  0.9022793E-004  0.4264047E+03  0.7818608E-02  0.1035002E+00
          1   -1    0    0  502    0  0.00000000000E+00  0.00000000000E+00  0.81195991146E+03  0.81195991146E+03  0.00000000000E+00 0. -1.
         -1   -1    0    0    0  501 -0.00000000000E+00 -0.00000000000E+00 -0.23075301023E+03  0.23075301023E+03  0.00000000000E+00 0.  1.
    9000007    2    1    2  502    0 -0.13425696650E+03 -0.61315222379E+02  0.38029103861E+03  0.57138323516E+03  0.40009128686E+03 0.  0.
    9000005    1    3    3    0    0 -0.21859793914E+03  0.78747501611E+02  0.32351850089E+03  0.39831074354E+03  0.99999687468E+00 0.  0.
          4    1    3    3  502    0  0.84340972634E+02 -0.14006272399E+03  0.56772537716E+02  0.17307249162E+03  0.00000000000E+00 0.  1.
   -9000007    1    1    2    0  501  0.13425696650E+03  0.61315222379E+02  0.20091586262E+03  0.47132968653E+03  0.40000000000E+03 0.  1.
<mgrwt>
<rscale>  2 0.42640474E+03</rscale>
<asrwt>0</asrwt>
<pdfrwt beam="1">  1        1 0.12491691E+00 0.42640474E+03</pdfrwt>
<pdfrwt beam="2">  1       -1 0.35500464E-01 0.42640474E+03</pdfrwt>
<totfact> 0.17010499E+02</totfact>
</mgrwt>
</event>
<event>
 6    1  0.9022793E-004  0.4176033E+03  0.7818608E-02  0.1037849E+00
          1   -1    0    0  502    0  0.00000000000E+00  0.00000000000E+00  0.69197832806E+03  0.69197832806E+03  0.00000000000E+00 0.  1.
         -1   -1    0    0    0  501 -0.00000000000E+00 -0.00000000000E+00 -0.25979504420E+03  0.25979504420E+03  0.00000000000E+00 0. -1.
    9000007    2    1    2  502    0 -0.12453085427E+03 -0.12733180732E+02  0.29763366460E+03  0.51157606695E+03  0.39680499797E+03 0.  0.
    9000005    1    3    3    0    0 -0.13968109149E+03 -0.13593926399E+03  0.33002498829E+03  0.38328551199E+03  0.99999687468E+00 0.  0.
          4    1    3    3  502    0  0.15150237219E+02  0.12320608326E+03 -0.32391323694E+02  0.12829055495E+03  0.00000000000E+00 0.  1.
   -9000007    1    1    2    0  501  0.12453085427E+03  0.12733180732E+02  0.13454961926E+03  0.44019730531E+03  0.40000000000E+03 0.  1.
<mgrwt>
<rscale>  2 0.41760331E+03</rscale>
<asrwt>0</asrwt>
<pdfrwt beam="1">  1        1 0.10645820E+00 0.41760331E+03</pdfrwt>
<pdfrwt beam="2">  1       -1 0.39968468E-01 0.41760331E+03</pdfrwt>
<totfact> 0.17597032E+02</totfact>
</mgrwt>
</event>
<event>
 6    1  0.9022793E-004  0.4245481E+03  0.7818608E-02  0.1035596E+00
         -2   -1    0    0    0  501 -0.00000000000E+00  0.00000000000E+00  0.14259276659E+03  0.14259276659E+03  0.00000000000E+00 0.  1.
          2   -1    0    0  502    0  0.00000000000E+00 -0.00000000000E+00 -0.12658942795E+04  0.12658942795E+04  0.00000000000E+00 0. -1.
    9000007    2    1    2  502    0  0.98989064714E+02 -0.10001968746E+03 -0.58936643520E+03  0.72665903257E+03  0.40109572656E+03 0.  0.
    9000005    1    3    3    0    0  0.53656275674E+02  0.24266588985E+02 -0.59142199812E+03  0.59434740945E+03  0.99999687468E+00 0.  0.
          4    1    3    3  502    0  0.45332789041E+02 -0.12428627644E+03  0.20555629255E+01  0.13231162312E+03  0.00000000000E+00 0.  1.
   -9000007    1    1    2    0  501 -0.98989064714E+02  0.10001968746E+03 -0.53393507771E+03  0.68182801352E+03  0.40000000000E+03 0.  1.
<mgrwt>
<rscale>  2 0.42454815E+03</rscale>
<asrwt>0</asrwt>
<pdfrwt beam="1">  1        2 0.19475296E+00 0.42454815E+03</pdfrwt>
<pdfrwt beam="2">  1       -2 0.21937349E-01 0.42454815E+03</pdfrwt>
<totfact> 0.32458418E+02</totfact>
</mgrwt>
</event>
<event>
 6    1  0.9022793E-004  0.4118584E+03  0.7818608E-02  0.1039749E+00
          2   -1    0    0  502    0  0.00000000000E+00  0.00000000000E+00  0.58382274848E+03  0.58382274848E+03  0.00000000000E+00 0.  1.
         -2   -1    0    0    0  501 -0.00000000000E+00 -0.00000000000E+00 -0.30532233415E+03  0.30532233415E+03  0.00000000000E+00 0. -1.
    9000007    2    1    2  502    0  0.94500636509E+02  0.42165215631E+02  0.23662088583E+03  0.47385943320E+03  0.39729717230E+03 0.  0.
    9000005    1    3    3    0    0  0.17059881653E+03  0.18200517890E+03  0.12206767132E+03  0.27772532784E+03  0.99999687468E+00 0.  0.
          4    1    3    3  502    0 -0.76098180024E+02 -0.13983996327E+03  0.11455321451E+03  0.19613410536E+03  0.00000000000E+00 0.  1.
   -9000007    1    1    2    0  501 -0.94500636509E+02 -0.42165215631E+02  0.41879528496E+02  0.41528564942E+03  0.40000000000E+03 0. -1.
<mgrwt>
<rscale>  2 0.41185844E+03</rscale>
<asrwt>0</asrwt>
<pdfrwt beam="1">  1        2 0.89818884E-01 0.41185844E+03</pdfrwt>
<pdfrwt beam="2">  1       -2 0.46972667E-01 0.41185844E+03</pdfrwt>
<totfact> 0.22620190E+02</totfact>
</mgrwt>
</event>
<event>
 6    1  0.9022793E-004  0.4547015E+03  0.7818608E-02  0.1026329E+00
         -1   -1    0    0    0  501 -0.00000000000E+00  0.00000000000E+00  0.12125279365E+04  0.12125279365E+04  0.00000000000E+00 0.  1.
          1   -1    0    0  502    0  0.00000000000E+00 -0.00000000000E+00 -0.17947194997E+03  0.17947194997E+03  0.00000000000E+00 0. -1.
    9000007    2    1    2  502    0  0.43645837353E+02  0.21172515827E+03  0.67204398536E+03  0.81142933370E+03  0.40005242603E+03 0.  0.
    9000005    1    3    3    0    0 -0.62968965030E+02 -0.67318094063E+02  0.20159437745E+02  0.94362170753E+02  0.99999687468E+00 0.  0.
          4    1    3    3  502    0  0.10661480238E+03  0.27904325234E+03  0.65188454761E+03  0.71706716295E+03  0.00000000000E+00 0.  1.
   -9000007    1    1    2    0  501 -0.43645837353E+02 -0.21172515827E+03  0.36101200120E+03  0.58057055280E+03  0.40000000000E+03 0. -1.
<mgrwt>
<rscale>  2 0.45470152E+03</rscale>
<asrwt>0</asrwt>
<pdfrwt beam="1">  1        1 0.27611070E-01 0.45470152E+03</pdfrwt>
<pdfrwt beam="2">  1       -1 0.18654275E+00 0.45470152E+03</pdfrwt>
<totfact> 0.33842223E+01</totfact>
</mgrwt>
</event>
<event>
 6    1  0.9022793E-004  0.4281587E+03  0.7818608E-02  0.1034443E+00
          2   -1    0    0  502    0  0.00000000000E+00  0.00000000000E+00  0.18397558795E+04  0.18397558795E+04  0.00000000000E+00 0. -1.
         -2   -1    0    0    0  501 -0.00000000000E+00 -0.00000000000E+00 -0.12883811052E+03  0.12883811052E+03  0.00000000000E+00 0.  1.
    9000007    2    1    2  502    0  0.14726998997E+03  0.38117826665E+02  0.38723276893E+03  0.57744935411E+03  0.40044615191E+03 0.  0.
    9000005    1    3    3    0    0 -0.81290811296E+02  0.15006211579E+03  0.12148520149E+03  0.20949102313E+03  0.99999687468E+00 0.  0.
          4    1    3    3  502    0  0.22856080127E+03 -0.11194428912E+03  0.26574756744E+03  0.36795833098E+03  0.00000000000E+00 0.  1.
   -9000007    1    1    2    0  501 -0.14726998997E+03 -0.38117826665E+02  0.13236850000E+04  0.13911446359E+04  0.40000000000E+03 0.  1.
<mgrwt>
<rscale>  2 0.42815872E+03</rscale>
<asrwt>0</asrwt>
<pdfrwt beam="1">  1        2 0.28303935E+00 0.42815872E+03</pdfrwt>
<pdfrwt beam="2">  1       -2 0.19821249E-01 0.42815872E+03</pdfrwt>
<totfact> 0.18824247E+02</totfact>
</mgrwt>
</event>
<event>
 6    1  0.9022793E-004  0.4420630E+03  0.7818608E-02  0.1030116E+00
         -2   -1    0    0    0  501 -0.00000000000E+00  0.00000000000E+00  0.61360228350E+03  0.61360228350E+03  0.00000000000E+00 0. -1.
          2   -1    0    0  502    0  0.00000000000E+00 -0.00000000000E+00 -0.35931852686E+03  0.35931852686E+03  0.00000000000E+00 0.  1.
    9000007    2    1    2  502    0 -0.90190023301E+02  0.16547819340E+03 -0.36886852917E+02  0.44348942041E+03  0.39975611728E+03 0.  0.
    9000005    1    3    3    0    0  0.10280194501E+03  0.17165875363E+03 -0.11995115006E+03  0.23329004692E+03  0.99999687468E+00 0.  0.
          4    1    3    3  502    0 -0.19299196831E+03 -0.61805602298E+01  0.83064297143E+02  0.21019937350E+03  0.00000000000E+00 0.  1.
   -9000007    1    1    2    0  501  0.90190023301E+02 -0.16547819340E+03  0.29117060955E+03  0.52943138995E+03  0.40000000000E+03 0. -1.
<mgrwt>
<rscale>  2 0.44206303E+03</rscale>
<asrwt>0</asrwt>
<pdfrwt beam="1">  1        2 0.55279773E-01 0.44206303E+03</pdfrwt>
<pdfrwt beam="2">  1       -2 0.94400351E-01 0.44206303E+03</pdfrwt>
<totfact> 0.87419930E+01</totfact>
</mgrwt>
</event>
<event>
 6    1  0.9022793E-004  0.4411585E+03  0.7818608E-02  0.1030392E+00
         -1   -1    0    0    0  501 -0.00000000000E+00  0.00000000000E+00  0.83620002115E+02  0.83620002115E+02  0.00000000000E+00 0.  1.
          1   -1    0    0  502    0  0.00000000000E+00 -0.00000000000E+00 -0.25718092482E+04  0.25718092482E+04  0.00000000000E+00 0. -1.
    9000007    2    1    2  502    0 -0.18525042467E+03 -0.75973845480E+01 -0.16540699326E+04  0.17119619911E+04  0.40061337588E+03 0.  0.
    9000005    1    3    3    0    0 -0.17229783867E+02 -0.12849989025E+03 -0.12616411356E+04  0.12682856312E+04  0.99999687468E+00 0.  0.
          4    1    3    3  502    0 -0.16802064080E+03  0.12090250570E+03 -0.39242879694E+03  0.44367635985E+03  0.00000000000E+00 0.  1.
   -9000007    1    1    2    0  501  0.18525042467E+03  0.75973845480E+01 -0.83411931351E+03  0.94346725924E+03  0.40000000000E+03 0.  1.
<mgrwt>
<rscale>  2 0.44115850E+03</rscale>
<asrwt>0</asrwt>
<pdfrwt beam="1">  1        1 0.39566298E+00 0.44115850E+03</pdfrwt>
<pdfrwt beam="2">  1       -1 0.12864615E-01 0.44115850E+03</pdfrwt>
<totfact> 0.55905293E+01</totfact>
</mgrwt>
</event>
<event>
 6    1  0.9022793E-004  0.4773502E+03  0.7818608E-02  0.1019866E+00
          1   -1    0    0  502    0  0.00000000000E+00  0.00000000000E+00  0.10093925567E+04  0.10093925567E+04  0.00000000000E+00 0.  1.
         -1   -1    0    0    0  501 -0.00000000000E+00 -0.00000000000E+00 -0.23517719374E+03  0.23517719374E+03  0.00000000000E+00 0. -1.
    9000007    2    1    2  502    0 -0.23595782620E+03  0.11013573771E+03  0.26251783465E+03  0.54482669978E+03  0.40014315290E+03 0.  0.
    9000005    1    3    3    0    0 -0.32503624132E+03  0.14686465154E+03  0.12713842386E+03  0.37865942858E+03  0.99999687468E+00 0.  0.
          4    1    3    3  502    0  0.89078415119E+02 -0.36728913828E+02  0.13537941078E+03  0.16616727119E+03  0.00000000000E+00 0.  1.
   -9000007    1    1    2    0  501  0.23595782620E+03 -0.11013573771E+03  0.51169752829E+03  0.69974305064E+03  0.40000000000E+03 0.  1.
<mgrwt>
<rscale>  2 0.47735023E+03</rscale>
<asrwt>0</asrwt>
<pdfrwt beam="1">  1        1 0.15529116E+00 0.47735023E+03</pdfrwt>
<pdfrwt beam="2">  1       -1 0.36181107E-01 0.47735023E+03</pdfrwt>
<totfact> 0.11371695E+02</totfact>
</mgrwt>
</event>
<event>
 6    1  0.9022793E-004  0.3999380E+03  0.7818608E-02  0.1043801E+00
          1   -1    0    0  502    0  0.00000000000E+00  0.00000000000E+00  0.10086044303E+03  0.10086044303E+03  0.00000000000E+00 0.  1.
         -1   -1    0    0    0  501 -0.00000000000E+00 -0.00000000000E+00 -0.16314474725E+04  0.16314474725E+04  0.00000000000E+00 0. -1.
    9000007    2    1    2  502    0 -0.14597844734E+02 -0.19384487450E+00 -0.61989456567E+03  0.73753462566E+03  0.39934310667E+03 0.  0.
    9000005    1    3    3    0    0 -0.30640038895E+02 -0.18821154895E+03 -0.42722185996E+03  0.46784817704E+03  0.99999687468E+00 0.  0.
          4    1    3    3  502    0  0.16042194160E+02  0.18801770407E+03 -0.19267270571E+03  0.26968644861E+03  0.00000000000E+00 0.  1.
   -9000007    1    1    2    0  501  0.14597844734E+02  0.19384487450E+00 -0.91069246384E+03  0.99477328992E+03  0.40000000000E+03 0. -1.
<mgrwt>
<rscale>  2 0.39993797E+03</rscale>
<asrwt>0</asrwt>
<pdfrwt beam="1">  1        1 0.15516992E-01 0.39993797E+03</pdfrwt>
<pdfrwt beam="2">  1       -1 0.25099190E+00 0.39993797E+03</pdfrwt>
<totfact> 0.27252759E+01</totfact>
</mgrwt>
</event>
<event>
 6    1  0.9022793E-004  0.4412442E+03  0.7818608E-02  0.1030366E+00
          1   -1    0    0  502    0  0.00000000000E+00  0.00000000000E+00  0.75962119355E+03  0.75962119355E+03  0.00000000000E+00 0.  1.
         -1   -1    0    0    0  501 -0.00000000000E+00 -0.00000000000E+00 -0.31033801441E+03  0.31033801441E+03  0.00000000000E+00 0. -1.
    9000007    2    1    2  502    0  0.10230896598E+03  0.15089235113E+03  0.21255248546E+01  0.44291407886E+03  0.40364927504E+03 0.  0.
    9000005    1    3    3    0    0 -0.10894171423E+02  0.26535210745E+03 -0.56619916149E+02  0.27154601598E+03  0.99999687468E+00 0.  0.
          4    1    3    3  502    0  0.11320313740E+03 -0.11445975632E+03  0.58745441003E+02  0.17136806287E+03  0.00000000000E+00 0.  1.
   -9000007    1    1    2    0  501 -0.10230896598E+03 -0.15089235113E+03  0.44715765428E+03  0.62704512910E+03  0.40000000000E+03 0.  1.
<mgrwt>
<rscale>  2 0.44124423E+03</rscale>
<asrwt>0</asrwt>
<pdfrwt beam="1">  1        1 0.11686480E+00 0.44124423E+03</pdfrwt>
<pdfrwt beam="2">  1       -1 0.47744310E-01 0.44124423E+03</pdfrwt>
<totfact> 0.11019711E+02</totfact>
</mgrwt>
</event>
<event>
 6    1  0.9022793E-004  0.4490836E+03  0.7818608E-02  0.1027996E+00
         -2   -1    0    0    0  501 -0.00000000000E+00  0.00000000000E+00  0.62022023955E+02  0.62022023955E+02  0.00000000000E+00 0.  1.
          2   -1    0    0  502    0  0.00000000000E+00 -0.00000000000E+00 -0.32618180261E+04  0.32618180261E+04  0.00000000000E+00 0. -1.
    9000007    2    1    2  502    0  0.15112429326E+03 -0.13911639332E+03 -0.15052547130E+04  0.15706537783E+04  0.39870994135E+03 0.  0.
    9000005    1    3    3    0    0  0.15054104792E+03 -0.20048038960E+03 -0.14850235273E+04  0.15060381371E+04  0.99999687468E+00 0.  0.
          4    1    3    3  502    0  0.58324534047E+00  0.61363996285E+02 -0.20231185725E+02  0.64615641226E+02  0.00000000000E+00 0.  1.
   -9000007    1    1    2    0  501 -0.15112429326E+03  0.13911639332E+03 -0.16945412891E+04  0.17531862717E+04  0.40000000000E+03 0. -1.
<mgrwt>
<rscale>  2 0.44908359E+03</rscale>
<asrwt>0</asrwt>
<pdfrwt beam="1">  1        2 0.50181825E+00 0.44908359E+03</pdfrwt>
<pdfrwt beam="2">  1       -2 0.95418481E-02 0.44908359E+03</pdfrwt>
<totfact> 0.98216890E+01</totfact>
</mgrwt>
</event>
<event>
 6    1  0.9022793E-004  0.5978408E+03  0.7818608E-02  0.9909896E-01
         -2   -1    0    0    0  501 -0.00000000000E+00  0.00000000000E+00  0.90954233324E+03  0.90954233324E+03  0.00000000000E+00 0. -1.
          2   -1    0    0  502    0  0.00000000000E+00 -0.00000000000E+00 -0.39399786803E+03  0.39399786803E+03  0.00000000000E+00 0.  1.
    9000007    2    1    2  502    0  0.44325607994E+03  0.24234813619E+02  0.29135010214E+03  0.66531893005E+03  0.40087543960E+03 0.  0.
    9000005    1    3    3    0    0  0.17306348853E+03 -0.13810101775E+03 -0.19938525085E+02  0.22230925969E+03  0.99999687468E+00 0.  0.
          4    1    3    3  502    0  0.27019259141E+03  0.16233583137E+03  0.31128862723E+03  0.44300967037E+03  0.00000000000E+00 0.  1.
   -9000007    1    1    2    0  501 -0.44325607994E+03 -0.24234813619E+02  0.22419436307E+03  0.63822127121E+03  0.40000000000E+03 0. -1.
<mgrwt>
<rscale>  2 0.59784084E+03</rscale>
<asrwt>0</asrwt>
<pdfrwt beam="1">  1        2 0.60615057E-01 0.59784084E+03</pdfrwt>
<pdfrwt beam="2">  1       -2 0.13992959E+00 0.59784084E+03</pdfrwt>
<totfact> 0.29815724E+01</totfact>
</mgrwt>
</event>
<event>
 6    1  0.9022793E-004  0.4460549E+03  0.7818608E-02  0.1028905E+00
          2   -1    0    0  502    0  0.00000000000E+00  0.00000000000E+00  0.82583114843E+03  0.82583114843E+03  0.00000000000E+00 0.  1.
         -2   -1    0    0    0  501 -0.00000000000E+00 -0.00000000000E+00 -0.33632691866E+03  0.33632691866E+03  0.00000000000E+00 0. -1.
    9000007    2    1    2  502    0  0.71532404128E+02 -0.18560943989E+03 -0.64989081039E+02  0.45009726861E+03  0.39849243598E+03 0.  0.
    9000005    1    3    3    0    0 -0.36043020686E+02 -0.73947270510E+02 -0.21754347782E+03  0.23258001395E+03  0.99999687468E+00 0.  0.
          4    1    3    3  502    0  0.10757542481E+03 -0.11166216938E+03  0.15255439678E+03  0.21751725465E+03  0.00000000000E+00 0.  1.
   -9000007    1    1    2    0  501 -0.71532404128E+02  0.18560943989E+03  0.55449331080E+03  0.71206079849E+03  0.40000000000E+03 0.  1.
<mgrwt>
<rscale>  2 0.44605487E+03</rscale>
<asrwt>0</asrwt>
<pdfrwt beam="1">  1        2 0.12705095E+00 0.44605487E+03</pdfrwt>
<pdfrwt beam="2">  1       -2 0.51742603E-01 0.44605487E+03</pdfrwt>
<totfact> 0.12074491E+02</totfact>
</mgrwt>
</event>
<event>
 6    1  0.9022793E-004  0.4129091E+03  0.7818608E-02  0.1039399E+00
          1   -1    0    0  502    0  0.00000000000E+00  0.00000000000E+00  0.52084398883E+03  0.52084398883E+03  0.00000000000E+00 0. -1.
         -1   -1    0    0    0  501 -0.00000000000E+00 -0.00000000000E+00 -0.37465202223E+03  0.37465202223E+03  0.00000000000E+00 0.  1.
    9000007    2    1    2  502    0  0.10088156410E+03  0.20076037564E+02  0.23218993021E+03  0.47362424500E+03  0.39978447256E+03 0.  0.
    9000005    1    3    3    0    0  0.13890211162E+03  0.17191159975E+03  0.22727880462E+03  0.31702373691E+03  0.99999687468E+00 0.  0.
          4    1    3    3  502    0 -0.38020547521E+02 -0.15183556219E+03  0.49111255907E+01  0.15660050809E+03  0.00000000000E+00 0.  1.
   -9000007    1    1    2    0  501 -0.10088156410E+03 -0.20076037564E+02 -0.85997963612E+02  0.42187176607E+03  0.40000000000E+03 0.  1.
<mgrwt>
<rscale>  2 0.41290910E+03</rscale>
<asrwt>0</asrwt>
<pdfrwt beam="1">  1        1 0.80129845E-01 0.41290910E+03</pdfrwt>
<pdfrwt beam="2">  1       -1 0.57638773E-01 0.41290910E+03</pdfrwt>
<totfact> 0.13328441E+02</totfact>
</mgrwt>
</event>
<event>
 6    1  0.9022793E-004  0.4509847E+03  0.7818608E-02  0.1027429E+00
         -2   -1    0    0    0  501 -0.00000000000E+00  0.00000000000E+00  0.28219785296E+03  0.28219785296E+03  0.00000000000E+00 0. -1.
          2   -1    0    0  502    0  0.00000000000E+00 -0.00000000000E+00 -0.77992123437E+03  0.77992123437E+03  0.00000000000E+00 0.  1.
    9000007    2    1    2  502    0 -0.19311344498E+03  0.92524199711E+02 -0.39374726026E+03  0.59664667791E+03  0.39382334000E+03 0.  0.
    9000005    1    3    3    0    0 -0.66197728837E+02 -0.13466063769E+03 -0.36088300931E+02  0.15433402769E+03  0.99999687468E+00 0.  0.
          4    1    3    3  502    0 -0.12691571615E+03  0.22718483740E+03 -0.35765895933E+03  0.44231265021E+03  0.00000000000E+00 0.  1.
   -9000007    1    1    2    0  501  0.19311344498E+03 -0.92524199711E+02 -0.10397612114E+03  0.46547240942E+03  0.40000000000E+03 0. -1.
<mgrwt>
<rscale>  2 0.45098466E+03</rscale>
<asrwt>0</asrwt>
<pdfrwt beam="1">  1        2 0.11998788E+00 0.45098466E+03</pdfrwt>
<pdfrwt beam="2">  1       -2 0.43415055E-01 0.45098466E+03</pdfrwt>
<totfact> 0.18465264E+02</totfact>
</mgrwt>
</event>
<event>
 6    1  0.9022793E-004  0.4599065E+03  0.7818608E-02  0.1024808E+00
         -4   -1    0    0    0  501 -0.00000000000E+00  0.00000000000E+00  0.13938601095E+04  0.13938601095E+04  0.00000000000E+00 0.  1.
          4   -1    0    0  502    0  0.00000000000E+00 -0.00000000000E+00 -0.18708037142E+03  0.18708037142E+03  0.00000000000E+00 0. -1.
    9000007    2    1    2  502    0 -0.16168113544E+03 -0.15850525127E+03  0.26014876691E+03  0.52862166049E+03  0.40062298334E+03 0.  0.
    9000005    1    3    3    0    0 -0.90370151512E+02 -0.16002959116E+03 -0.65609721020E+02  0.19514576556E+03  0.99999687468E+00 0.  0.
          4    1    3    3  502    0 -0.71310983931E+02  0.15243398863E+01  0.32575848793E+03  0.33347589493E+03  0.00000000000E+00 0.  1.
   -9000007    1    1    2    0  501  0.16168113544E+03  0.15850525127E+03  0.94663097117E+03  0.10523188204E+04  0.40000000000E+03 0.  1.
<mgrwt>
<rscale>  2 0.45990645E+03</rscale>
<asrwt>0</asrwt>
<pdfrwt beam="1">  1        4 0.28781597E-01 0.45990645E+03</pdfrwt>
<pdfrwt beam="2">  1       -4 0.21444001E+00 0.45990645E+03</pdfrwt>
<totfact> 0.24584771E+00</totfact>
</mgrwt>
</event>
<event>
 6    1  0.9022793E-004  0.4665452E+03  0.7818608E-02  0.1022900E+00
          2   -1    0    0  502    0  0.00000000000E+00  0.00000000000E+00  0.34069239415E+04  0.34069239415E+04  0.00000000000E+00 0. -1.
         -2   -1    0    0    0  501 -0.00000000000E+00 -0.00000000000E+00 -0.73488255433E+02  0.73488255433E+02  0.00000000000E+00 0.  1.
    9000007    2    1    2  502    0  0.49423180091E+02  0.23556246768E+03  0.10368808552E+04  0.11368899722E+04  0.39933015660E+03 0.  0.
    9000005    1    3    3    0    0  0.67163683263E+02  0.30371315582E+03  0.10173069096E+04  0.10637983783E+04  0.99999687468E+00 0.  0.
          4    1    3    3  502    0 -0.17740503172E+02 -0.68150688147E+02  0.19573945644E+02  0.73091593879E+02  0.00000000000E+00 0.  1.
   -9000007    1    1    2    0  501 -0.49423180091E+02 -0.23556246768E+03  0.22965548308E+04  0.23435222247E+04  0.40000000000E+03 0. -1.
<mgrwt>
<rscale>  2 0.46654523E+03</rscale>
<asrwt>0</asrwt>
<pdfrwt beam="1">  1        2 0.52414202E+00 0.46654523E+03</pdfrwt>
<pdfrwt beam="2">  1       -2 0.11305888E-01 0.46654523E+03</pdfrwt>
<totfact> 0.59883237E+01</totfact>
</mgrwt>
</event>
<event>
 6    1  0.9022793E-004  0.5150097E+03  0.7818608E-02  0.1009934E+00
         -2   -1    0    0    0  501 -0.00000000000E+00  0.00000000000E+00  0.22017481689E+03  0.22017481689E+03  0.00000000000E+00 0.  1.
          2   -1    0    0  502    0  0.00000000000E+00 -0.00000000000E+00 -0.12392315540E+04  0.12392315540E+04  0.00000000000E+00 0. -1.
    9000007    2    1    2  502    0 -0.22448167330E+03  0.23309665026E+03 -0.63188735390E+03  0.81549162394E+03  0.40127159219E+03 0.  0.
    9000005    1    3    3    0    0 -0.58218562533E+02  0.30650289426E+03 -0.50583944108E+03  0.59431301968E+03  0.99999687468E+00 0.  0.
          4    1    3    3  502    0 -0.16626311077E+03 -0.73406244000E+02 -0.12604791282E+03  0.22117860427E+03  0.00000000000E+00 0.  1.
   -9000007    1    1    2    0  501  0.22448167330E+03 -0.23309665026E+03 -0.38716938317E+03  0.64391474690E+03  0.40000000000E+03 0.  1.
<mgrwt>
<rscale>  2 0.51500973E+03</rscale>
<asrwt>0</asrwt>
<pdfrwt beam="1">  1        2 0.19065101E+00 0.51500973E+03</pdfrwt>
<pdfrwt beam="2">  1       -2 0.33873048E-01 0.51500973E+03</pdfrwt>
<totfact> 0.15140871E+02</totfact>
</mgrwt>
</event>
<event>
 6    1  0.9022793E-004  0.5259225E+03  0.7818608E-02  0.1007226E+00
         -1   -1    0    0    0  501 -0.00000000000E+00  0.00000000000E+00  0.33792541897E+03  0.33792541897E+03  0.00000000000E+00 0.  1.
          1   -1    0    0  502    0  0.00000000000E+00 -0.00000000000E+00 -0.11256883013E+04  0.11256883013E+04  0.00000000000E+00 0. -1.
    9000007    2    1    2  502    0  0.24616416345E+03 -0.23814826922E+03 -0.77579216801E+03  0.93687403935E+03  0.39820608252E+03 0.  0.
    9000005    1    3    3    0    0 -0.72988460452E+02 -0.81564019535E+02 -0.41957267557E+03  0.43361530730E+03  0.99999687468E+00 0.  0.
          4    1    3    3  502    0  0.31915262390E+03 -0.15658424969E+03 -0.35621949244E+03  0.50325873205E+03  0.00000000000E+00 0.  1.
   -9000007    1    1    2    0  501 -0.24616416345E+03  0.23814826922E+03 -0.11970714365E+02  0.52673968096E+03  0.40000000000E+03 0.  1.
<mgrwt>
<rscale>  2 0.52592253E+03</rscale>
<asrwt>0</asrwt>
<pdfrwt beam="1">  1        1 0.17318281E+00 0.52592253E+03</pdfrwt>
<pdfrwt beam="2">  1       -1 0.51988527E-01 0.52592253E+03</pdfrwt>
<totfact> 0.47620972E+01</totfact>
</mgrwt>
</event>
<event>
 6    1  0.9022793E-004  0.4731355E+03  0.7818608E-02  0.1021039E+00
          2   -1    0    0  502    0  0.00000000000E+00  0.00000000000E+00  0.14396864308E+04  0.14396864308E+04  0.00000000000E+00 0.  1.
         -2   -1    0    0    0  501 -0.00000000000E+00 -0.00000000000E+00 -0.15676457595E+03  0.15676457595E+03  0.00000000000E+00 0. -1.
    9000007    2    1    2  502    0  0.22732293750E+03 -0.10989745816E+03  0.71357673921E+03  0.85624358316E+03  0.40026009261E+03 0.  0.
    9000005    1    3    3    0    0 -0.63397948507E+02  0.26950827946E+02 -0.50209111507E+01  0.69078625814E+02  0.99999687468E+00 0.  0.
          4    1    3    3  502    0  0.29072088600E+03 -0.13684828610E+03  0.71859765036E+03  0.78716495735E+03  0.00000000000E+00 0.  1.
   -9000007    1    1    2    0  501 -0.22732293750E+03  0.10989745816E+03  0.56934511559E+03  0.74020742354E+03  0.40000000000E+03 0.  1.
<mgrwt>
<rscale>  2 0.47313552E+03</rscale>
<asrwt>0</asrwt>
<pdfrwt beam="1">  1        2 0.22149021E+00 0.47313552E+03</pdfrwt>
<pdfrwt beam="2">  1       -2 0.24117628E-01 0.47313552E+03</pdfrwt>
<totfact> 0.21827423E+02</totfact>
</mgrwt>
</event>
<event>
 6    1  0.9022793E-004  0.4220596E+03  0.7818608E-02  0.1036398E+00
          2   -1    0    0  502    0  0.00000000000E+00  0.00000000000E+00  0.12886394783E+04  0.12886394783E+04  0.00000000000E+00 0.  1.
         -2   -1    0    0    0  501 -0.00000000000E+00 -0.00000000000E+00 -0.16106713745E+03  0.16106713745E+03  0.00000000000E+00 0. -1.
    9000007    2    1    2  502    0 -0.87686135566E+02 -0.10356154360E+03  0.29049358915E+03  0.51209545528E+03  0.39930111232E+03 0.  0.
    9000005    1    3    3    0    0 -0.30008840212E+02  0.87885843739E+02 -0.58585962617E+02  0.10980786415E+03  0.99999687468E+00 0.  0.
          4    1    3    3  502    0 -0.57677295353E+02 -0.19144738733E+03  0.34907955176E+03  0.40228759113E+03  0.00000000000E+00 0.  1.
   -9000007    1    1    2    0  501  0.87686135566E+02  0.10356154360E+03  0.83707875169E+03  0.93761116046E+03  0.40000000000E+03 0.  1.
<mgrwt>
<rscale>  2 0.42205962E+03</rscale>
<asrwt>0</asrwt>
<pdfrwt beam="1">  1        2 0.19825222E+00 0.42205962E+03</pdfrwt>
<pdfrwt beam="2">  1       -2 0.24779560E-01 0.42205962E+03</pdfrwt>
<totfact> 0.25405879E+02</totfact>
</mgrwt>
</event>
<event>
 6    1  0.9022793E-004  0.4273672E+03  0.7818608E-02  0.1034695E+00
         -1   -1    0    0    0  501 -0.00000000000E+00  0.00000000000E+00  0.90339133237E+02  0.90339133237E+02  0.00000000000E+00 0. -1.
          1   -1    0    0  502    0  0.00000000000E+00 -0.00000000000E+00 -0.20276301939E+04  0.20276301939E+04  0.00000000000E+00 0.  1.
    9000007    2    1    2  502    0 -0.22939884920E+02  0.15012225959E+03 -0.10245720769E+04  0.11099421081E+04  0.39894938433E+03 0.  0.
    9000005    1    3    3    0    0 -0.13848713215E+03  0.11606274721E+03 -0.17389525070E+03  0.25077839873E+03  0.99999687468E+00 0.  0.
          4    1    3    3  502    0  0.11554724723E+03  0.34059512377E+02 -0.85067682625E+03  0.85916370934E+03  0.00000000000E+00 0.  1.
   -9000007    1    1    2    0  501  0.22939884920E+02 -0.15012225959E+03 -0.91271898367E+03  0.10080272190E+04  0.40000000000E+03 0.  1.
<mgrwt>
<rscale>  2 0.42736724E+03</rscale>
<asrwt>0</asrwt>
<pdfrwt beam="1">  1        1 0.31194310E+00 0.42736724E+03</pdfrwt>
<pdfrwt beam="2">  1       -1 0.13898329E-01 0.42736724E+03</pdfrwt>
<totfact> 0.11415555E+02</totfact>
</mgrwt>
</event>
<event>
 6    1  0.9022793E-004  0.5380507E+03  0.7818608E-02  0.1004298E+00
         -2   -1    0    0    0  501 -0.00000000000E+00  0.00000000000E+00  0.30771288232E+03  0.30771288232E+03  0.00000000000E+00 0.  1.
          2   -1    0    0  502    0  0.00000000000E+00 -0.00000000000E+00 -0.97728720523E+03  0.97728720523E+03  0.00000000000E+00 0. -1.
    9000007    2    1    2  502    0 -0.31614648647E+03  0.17271982465E+03 -0.21049746683E+03  0.57751701459E+03  0.39929435241E+03 0.  0.
    9000005    1    3    3    0    0 -0.31728241951E+03  0.67539643357E+02 -0.29815123880E+03  0.44059607164E+03  0.99999687468E+00 0.  0.
          4    1    3    3  502    0  0.11359330370E+01  0.10518018129E+03  0.87653771963E+02  0.13692094295E+03  0.00000000000E+00 0.  1.
   -9000007    1    1    2    0  501  0.31614648647E+03 -0.17271982465E+03 -0.45907685608E+03  0.70748307296E+03  0.40000000000E+03 0.  1.
<mgrwt>
<rscale>  2 0.53805073E+03</rscale>
<asrwt>0</asrwt>
<pdfrwt beam="1">  1        2 0.15035188E+00 0.53805073E+03</pdfrwt>
<pdfrwt beam="2">  1       -2 0.47340444E-01 0.53805073E+03</pdfrwt>
<totfact> 0.11357362E+02</totfact>
</mgrwt>
</event>
<event>
 6    1  0.9022793E-004  0.5109308E+03  0.7818608E-02  0.1010965E+00
         -2   -1    0    0    0  501 -0.00000000000E+00  0.00000000000E+00  0.25829258175E+03  0.25829258175E+03  0.00000000000E+00 0. -1.
          2   -1    0    0  502    0  0.00000000000E+00 -0.00000000000E+00 -0.10156914546E+04  0.10156914546E+04  0.00000000000E+00 0.  1.
    9000007    2    1    2  502    0  0.28039862291E+03  0.15003125025E+03 -0.42339947312E+03  0.66350196223E+03  0.39979366712E+03 0.  0.
    9000005    1    3    3    0    0  0.74679122501E+02  0.54771494077E+01  0.74555009279E+02  0.10567128231E+03  0.99999687468E+00 0.  0.
          4    1    3    3  502    0  0.20571950041E+03  0.14455410085E+03 -0.49795448240E+03  0.55783067992E+03  0.00000000000E+00 0.  1.
   -9000007    1    1    2    0  501 -0.28039862291E+03 -0.15003125025E+03 -0.33399939968E+03  0.61048207408E+03  0.40000000000E+03 0. -1.
<mgrwt>
<rscale>  2 0.51093076E+03</rscale>
<asrwt>0</asrwt>
<pdfrwt beam="1">  1        2 0.15626022E+00 0.51093076E+03</pdfrwt>
<pdfrwt beam="2">  1       -2 0.39737320E-01 0.51093076E+03</pdfrwt>
<totfact> 0.15201485E+02</totfact>
</mgrwt>
</event>
<event>
 6    1  0.9022793E-004  0.5997072E+03  0.7818608E-02  0.9906014E-01
         -1   -1    0    0    0  501 -0.00000000000E+00  0.00000000000E+00  0.32269748414E+03  0.32269748414E+03  0.00000000000E+00 0. -1.
          1   -1    0    0  502    0  0.00000000000E+00 -0.00000000000E+00 -0.11514018887E+04  0.11514018887E+04  0.00000000000E+00 0.  1.
    9000007    2    1    2  502    0  0.44178596592E+03 -0.63719961835E+02 -0.28264746015E+03  0.66328912392E+03  0.40103341750E+03 0.  0.
    9000005    1    3    3    0    0  0.81334251789E+02 -0.20793543089E+01  0.10337611838E+03  0.13155685491E+03  0.99999687468E+00 0.  0.
          4    1    3    3  502    0  0.36045171413E+03 -0.61640607526E+02 -0.38602357854E+03  0.53173226901E+03  0.00000000000E+00 0.  1.
   -9000007    1    1    2    0  501 -0.44178596592E+03  0.63719961835E+02 -0.54605694442E+03  0.81081024893E+03  0.40000000000E+03 0.  1.
<mgrwt>
<rscale>  2 0.59970721E+03</rscale>
<asrwt>0</asrwt>
<pdfrwt beam="1">  1        1 0.17713875E+00 0.59970721E+03</pdfrwt>
<pdfrwt beam="2">  1       -1 0.49645767E-01 0.59970721E+03</pdfrwt>
<totfact> 0.49252036E+01</totfact>
</mgrwt>
</event>
<event>
 6    1  0.9022793E-004  0.4649099E+03  0.7818608E-02  0.1023367E+00
         -1   -1    0    0    0  501 -0.00000000000E+00  0.00000000000E+00  0.21447195097E+03  0.21447195097E+03  0.00000000000E+00 0.  1.
          1   -1    0    0  502    0  0.00000000000E+00 -0.00000000000E+00 -0.13013618358E+04  0.13013618358E+04  0.00000000000E+00 0. -1.
    9000007    2    1    2  502    0  0.14677483551E+03  0.18554324165E+03 -0.90359774166E+03  0.10162688194E+04  0.40043012846E+03 0.  0.
    9000005    1    3    3    0    0  0.48913658118E+02  0.90091959639E+02 -0.86930601134E+03  0.87533025110E+03  0.99999687468E+00 0.  0.
          4    1    3    3  502    0  0.97861177392E+02  0.95451282008E+02 -0.34291730317E+02  0.14093856834E+03  0.00000000000E+00 0.  1.
   -9000007    1    1    2    0  501 -0.14677483551E+03 -0.18554324165E+03 -0.18329214320E+03  0.49956496736E+03  0.40000000000E+03 0.  1.
<mgrwt>
<rscale>  2 0.46490991E+03</rscale>
<asrwt>0</asrwt>
<pdfrwt beam="1">  1        1 0.20020951E+00 0.46490991E+03</pdfrwt>
<pdfrwt beam="2">  1       -1 0.32995685E-01 0.46490991E+03</pdfrwt>
<totfact> 0.82293671E+01</totfact>
</mgrwt>
</event>
<event>
 6    1  0.9022793E-004  0.7345632E+03  0.7818608E-02  0.9659884E-01
         -2   -1    0    0    0  501 -0.00000000000E+00  0.00000000000E+00  0.43489862369E+03  0.43489862369E+03  0.00000000000E+00 0. -1.
          2   -1    0    0  502    0  0.00000000000E+00 -0.00000000000E+00 -0.19192439724E+04  0.19192439724E+04  0.00000000000E+00 0.  1.
    9000007    2    1    2  502    0 -0.59576262306E+03  0.16409931417E+03 -0.14410377350E+04  0.16167571898E+04  0.39427448439E+03 0.  0.
    9000005    1    3    3    0    0 -0.34713831690E+03  0.29182081004E+03 -0.88977484422E+03  0.99868146555E+03  0.99999687468E+00 0.  0.
          4    1    3    3  502    0 -0.24862430615E+03 -0.12772149588E+03 -0.55126289082E+03  0.61807572426E+03  0.00000000000E+00 0.  1.
   -9000007    1    1    2    0  501  0.59576262306E+03 -0.16409931417E+03 -0.43307613621E+02  0.73738540624E+03  0.40000000000E+03 0. -1.
<mgrwt>
<rscale>  2 0.73456319E+03</rscale>
<asrwt>0</asrwt>
<pdfrwt beam="1">  1        2 0.29526831E+00 0.73456319E+03</pdfrwt>
<pdfrwt beam="2">  1       -2 0.66907480E-01 0.73456319E+03</pdfrwt>
<totfact> 0.15728442E+01</totfact>
</mgrwt>
</event>
<event>
 6    1  0.9022793E-004  0.4447907E+03  0.7818608E-02  0.1029287E+00
          1   -1    0    0  502    0  0.00000000000E+00  0.00000000000E+00  0.67413057301E+03  0.67413057301E+03  0.00000000000E+00 0. -1.
         -1   -1    0    0    0  501 -0.00000000000E+00 -0.00000000000E+00 -0.37285034447E+03  0.37285034447E+03  0.00000000000E+00 0.  1.
    9000007    2    1    2  502    0 -0.85245886942E+02 -0.17476116186E+03 -0.90891848317E+02  0.45401611009E+03  0.40007621173E+03 0.  0.
    9000005    1    3    3    0    0 -0.17588886868E+03 -0.26072902062E+03 -0.32717493165E+02  0.31620871378E+03  0.99999687468E+00 0.  0.
          4    1    3    3  502    0  0.90642981742E+02  0.85967858759E+02 -0.58174355153E+02  0.13780739630E+03  0.00000000000E+00 0.  1.
   -9000007    1    1    2    0  501  0.85245886942E+02  0.17476116186E+03  0.39217207686E+03  0.59296480739E+03  0.40000000000E+03 0. -1.
<mgrwt>
<rscale>  2 0.44479075E+03</rscale>
<asrwt>0</asrwt>
<pdfrwt beam="1">  1        1 0.10371240E+00 0.44479075E+03</pdfrwt>
<pdfrwt beam="2">  1       -1 0.57361592E-01 0.44479075E+03</pdfrwt>
<totfact> 0.93106051E+01</totfact>
</mgrwt>
</event>
<event>
 6    1  0.9022793E-004  0.4283873E+03  0.7818608E-02  0.1034371E+00
         -2   -1    0    0    0  501 -0.00000000000E+00  0.00000000000E+00  0.20919806944E+03  0.20919806944E+03  0.00000000000E+00 0.  1.
          2   -1    0    0  502    0  0.00000000000E+00 -0.00000000000E+00 -0.10507352969E+04  0.10507352969E+04  0.00000000000E+00 0. -1.
    9000007    2    1    2  502    0 -0.60435057247E+02  0.14085300226E+03 -0.16480180016E+03  0.45901963629E+03  0.40005928158E+03 0.  0.
    9000005    1    3    3    0    0 -0.18080133952E+03  0.91747796671E+02 -0.23573236772E+03  0.31093010750E+03  0.99999687468E+00 0.  0.
          4    1    3    3  502    0  0.12036628227E+03  0.49105205592E+02  0.70930567563E+02  0.14808952879E+03  0.00000000000E+00 0.  1.
   -9000007    1    1    2    0  501  0.60435057247E+02 -0.14085300226E+03 -0.67673542728E+03  0.80091373001E+03  0.40000000000E+03 0. -1.
<mgrwt>
<rscale>  2 0.42838730E+03</rscale>
<asrwt>0</asrwt>
<pdfrwt beam="1">  1        2 0.16165159E+00 0.42838730E+03</pdfrwt>
<pdfrwt beam="2">  1       -2 0.32184318E-01 0.42838730E+03</pdfrwt>
<totfact> 0.21748066E+02</totfact>
</mgrwt>
</event>
<event>
 6    1  0.9022793E-004  0.4216775E+03  0.7818608E-02  0.1036522E+00
          1   -1    0    0  502    0  0.00000000000E+00  0.00000000000E+00  0.52311484436E+03  0.52311484436E+03  0.00000000000E+00 0.  1.
         -1   -1    0    0    0  501 -0.00000000000E+00 -0.00000000000E+00 -0.33998083526E+03  0.33998083526E+03  0.00000000000E+00 0. -1.
    9000007    2    1    2  502    0 -0.10833769150E+03 -0.78480702423E+02  0.85313283692E+02  0.43012319739E+03  0.39978911004E+03 0.  0.
    9000005    1    3    3    0    0  0.52475361400E+02 -0.11646298164E+03 -0.11400620309E+03  0.17121829337E+03  0.99999687468E+00 0.  0.
          4    1    3    3  502    0 -0.16081305289E+03  0.37982279220E+02  0.19931948678E+03  0.25890490402E+03  0.00000000000E+00 0.  1.
   -9000007    1    1    2    0  501  0.10833769150E+03  0.78480702423E+02  0.97820725414E+02  0.43297248223E+03  0.40000000000E+03 0.  1.
<mgrwt>
<rscale>  2 0.42167751E+03</rscale>
<asrwt>0</asrwt>
<pdfrwt beam="1">  1        1 0.80479206E-01 0.42167751E+03</pdfrwt>
<pdfrwt beam="2">  1       -1 0.52304744E-01 0.42167751E+03</pdfrwt>
<totfact> 0.15933949E+02</totfact>
</mgrwt>
</event>
<event>
 6    1  0.9022793E-004  0.4334224E+03  0.7818608E-02  0.1032784E+00
          1   -1    0    0  502    0  0.00000000000E+00  0.00000000000E+00  0.21246240489E+04  0.21246240489E+04  0.00000000000E+00 0.  1.
         -1   -1    0    0    0  501 -0.00000000000E+00 -0.00000000000E+00 -0.92018024853E+02  0.92018024853E+02  0.00000000000E+00 0. -1.
    9000007    2    1    2  502    0  0.15188737556E+03 -0.69850650617E+02  0.12352801770E+04  0.13090753298E+04  0.39976520023E+03 0.  0.
    9000005    1    3    3    0    0  0.22276577230E+03  0.70876911103E+02  0.43908452016E+03  0.49743777669E+03  0.99999687468E+00 0.  0.
          4    1    3    3  502    0 -0.70878396741E+02 -0.14072756172E+03  0.79619565683E+03  0.81163755316E+03  0.00000000000E+00 0.  1.
   -9000007    1    1    2    0  501 -0.15188737556E+03  0.69850650617E+02  0.79732584705E+03  0.90756674389E+03  0.40000000000E+03 0.  1.
<mgrwt>
<rscale>  2 0.43342239E+03</rscale>
<asrwt>0</asrwt>
<pdfrwt beam="1">  1        1 0.32686520E+00 0.43342239E+03</pdfrwt>
<pdfrwt beam="2">  1       -1 0.14156621E-01 0.43342239E+03</pdfrwt>
<totfact> 0.95559539E+01</totfact>
</mgrwt>
</event>
<event>
 6    1  0.9022793E-004  0.6386923E+03  0.7818608E-02  0.9828232E-01
          1   -1    0    0  502    0  0.00000000000E+00  0.00000000000E+00  0.37864093870E+03  0.37864093870E+03  0.00000000000E+00 0.  1.
         -1   -1    0    0    0  501 -0.00000000000E+00 -0.00000000000E+00 -0.10885561080E+04  0.10885561080E+04  0.00000000000E+00 0. -1.
    9000007    2    1    2  502    0  0.15339684286E+03 -0.47349726785E+03 -0.28060223809E+03  0.69775579036E+03  0.40049378634E+03 0.  0.
    9000005    1    3    3    0    0  0.10264455762E+02 -0.54297367978E+02 -0.24745870358E+03  0.25355546374E+03  0.99999687468E+00 0.  0.
          4    1    3    3  502    0  0.14313238710E+03 -0.41919989987E+03 -0.33143534511E+02  0.44420032662E+03  0.00000000000E+00 0.  1.
   -9000007    1    1    2    0  501 -0.15339684286E+03  0.47349726785E+03 -0.42931293125E+03  0.76944125637E+03  0.40000000000E+03 0. -1.
<mgrwt>
<rscale>  2 0.63869229E+03</rscale>
<asrwt>0</asrwt>
<pdfrwt beam="1">  1        1 0.58252452E-01 0.63869229E+03</pdfrwt>
<pdfrwt beam="2">  1       -1 0.16747017E+00 0.63869229E+03</pdfrwt>
<totfact> 0.17249353E+01</totfact>
</mgrwt>
</event>
<event>
 6    1  0.9022793E-004  0.4465641E+03  0.7818608E-02  0.1028752E+00
          2   -1    0    0  502    0  0.00000000000E+00  0.00000000000E+00  0.14043379499E+04  0.14043379499E+04  0.00000000000E+00 0.  1.
         -2   -1    0    0    0  501 -0.00000000000E+00 -0.00000000000E+00 -0.20760114155E+03  0.20760114155E+03  0.00000000000E+00 0. -1.
    9000007    2    1    2  502    0 -0.16320374455E+03 -0.11219262865E+03  0.14551552349E+03  0.46988443518E+03  0.40049215560E+03 0.  0.
    9000005    1    3    3    0    0  0.63707213489E+02 -0.10023329317E+03 -0.85117071867E+02  0.14612062834E+03  0.99999687468E+00 0.  0.
          4    1    3    3  502    0 -0.22691095804E+03 -0.11959335485E+02  0.23063259535E+03  0.32376380684E+03  0.00000000000E+00 0.  1.
   -9000007    1    1    2    0  501  0.16320374455E+03  0.11219262865E+03  0.10512212848E+04  0.11420546562E+04  0.40000000000E+03 0. -1.
<mgrwt>
<rscale>  2 0.44656414E+03</rscale>
<asrwt>0</asrwt>
<pdfrwt beam="1">  1        2 0.21605199E+00 0.44656414E+03</pdfrwt>
<pdfrwt beam="2">  1       -2 0.31938638E-01 0.44656414E+03</pdfrwt>
<totfact> 0.13745062E+02</totfact>
</mgrwt>
</event>
<event>
 6    1  0.9022793E-004  0.5873859E+03  0.7818608E-02  0.9931928E-01
          2   -1    0    0  502    0  0.00000000000E+00  0.00000000000E+00  0.54654544134E+03  0.54654544134E+03  0.00000000000E+00 0. -1.
         -2   -1    0    0    0  501 -0.00000000000E+00 -0.00000000000E+00 -0.71358517737E+03  0.71358517737E+03  0.00000000000E+00 0.  1.
    9000007    2    1    2  502    0  0.36813246534E+03 -0.22288969301E+03  0.13048324369E+03  0.60155545159E+03  0.39955194552E+03 0.  0.
    9000005    1    3    3    0    0  0.30232512354E+02 -0.96827432968E+02  0.20912599239E+03  0.23243114521E+03  0.99999687468E+00 0.  0.
          4    1    3    3  502    0  0.33789995299E+03 -0.12606226004E+03 -0.78642748705E+02  0.36912430638E+03  0.00000000000E+00 0.  1.
   -9000007    1    1    2    0  501 -0.36813246534E+03  0.22288969301E+03 -0.29752297972E+03  0.65857516712E+03  0.40000000000E+03 0.  1.
<mgrwt>
<rscale>  2 0.58738587E+03</rscale>
<asrwt>0</asrwt>
<pdfrwt beam="1">  1        2 0.84083914E-01 0.58738587E+03</pdfrwt>
<pdfrwt beam="2">  1       -2 0.10978233E+00 0.58738587E+03</pdfrwt>
<totfact> 0.37576205E+01</totfact>
</mgrwt>
</event>
<event>
 6    1  0.9022793E-004  0.4253874E+03  0.7818608E-02  0.1035327E+00
         -2   -1    0    0    0  501 -0.00000000000E+00  0.00000000000E+00  0.26620248095E+03  0.26620248095E+03  0.00000000000E+00 0.  1.
          2   -1    0    0  502    0  0.00000000000E+00 -0.00000000000E+00 -0.89621954141E+03  0.89621954141E+03  0.00000000000E+00 0. -1.
    9000007    2    1    2  502    0  0.14325093811E+03  0.25368661927E+02 -0.29234459111E+02  0.42614480938E+03  0.39947508644E+03 0.  0.
    9000005    1    3    3    0    0 -0.12301914682E+03 -0.70859635906E+02 -0.68419885666E+01  0.14213589021E+03  0.99999687468E+00 0.  0.
          4    1    3    3  502    0  0.26627008493E+03  0.96228297833E+02 -0.22392470545E+02  0.28400891917E+03  0.00000000000E+00 0.  1.
   -9000007    1    1    2    0  501 -0.14325093811E+03 -0.25368661927E+02 -0.60078260135E+03  0.73627721299E+03  0.40000000000E+03 0. -1.
<mgrwt>
<rscale>  2 0.42538741E+03</rscale>
<asrwt>0</asrwt>
<pdfrwt beam="1">  1        2 0.13787993E+00 0.42538741E+03</pdfrwt>
<pdfrwt beam="2">  1       -2 0.40954227E-01 0.42538741E+03</pdfrwt>
<totfact> 0.17251748E+02</totfact>
</mgrwt>
</event>
<event>
 6    1  0.9022793E-004  0.5472738E+03  0.7818608E-02  0.1002127E+00
         -2   -1    0    0    0  501 -0.00000000000E+00  0.00000000000E+00  0.49714313096E+03  0.49714313096E+03  0.00000000000E+00 0. -1.
          2   -1    0    0  502    0  0.00000000000E+00 -0.00000000000E+00 -0.89589498307E+03  0.89589498307E+03  0.00000000000E+00 0.  1.
    9000007    2    1    2  502    0  0.35700142679E+03  0.11975799317E+03  0.19974688247E+03  0.58063874737E+03  0.39427216772E+03 0.  0.
    9000005    1    3    3    0    0  0.23266392593E+03  0.21112977011E+03 -0.16929771521E+02  0.31463613813E+03  0.99999687468E+00 0.  0.
          4    1    3    3  502    0  0.12433750085E+03 -0.91371776943E+02  0.21667665399E+03  0.26600260924E+03  0.00000000000E+00 0.  1.
   -9000007    1    1    2    0  501 -0.35700142679E+03 -0.11975799317E+03 -0.59849873458E+03  0.81239936666E+03  0.40000000000E+03 0.  1.
<mgrwt>
<rscale>  2 0.54727382E+03</rscale>
<asrwt>0</asrwt>
<pdfrwt beam="1">  1        2 0.13783000E+00 0.54727382E+03</pdfrwt>
<pdfrwt beam="2">  1       -2 0.76483559E-01 0.54727382E+03</pdfrwt>
<totfact> 0.46694768E+01</totfact>
</mgrwt>
</event>
<event>
 6    1  0.9022793E-004  0.5888876E+03  0.7818608E-02  0.9928733E-01
         -1   -1    0    0    0  501 -0.00000000000E+00  0.00000000000E+00  0.35864042214E+03  0.35864042214E+03  0.00000000000E+00 0. -1.
          1   -1    0    0  502    0  0.00000000000E+00 -0.00000000000E+00 -0.12002561109E+04  0.12002561109E+04  0.00000000000E+00 0.  1.
    9000007    2    1    2  502    0 -0.11077763826E+03 -0.41793442536E+03 -0.77088334023E+02  0.59378361467E+03  0.39961919469E+03 0.  0.
    9000005    1    3    3    0    0 -0.15007430505E+03  0.13588335611E+02  0.12854767625E+02  0.15123883412E+03  0.99999687468E+00 0.  0.
          4    1    3    3  502    0  0.39296666787E+02 -0.43152276097E+03 -0.89943101648E+02  0.44254478055E+03  0.00000000000E+00 0.  1.
   -9000007    1    1    2    0  501  0.11077763826E+03  0.41793442536E+03 -0.76452735470E+03  0.96511291833E+03  0.40000000000E+03 0.  1.
<mgrwt>
<rscale>  2 0.58888758E+03</rscale>
<asrwt>0</asrwt>
<pdfrwt beam="1">  1        1 0.18465479E+00 0.58888758E+03</pdfrwt>
<pdfrwt beam="2">  1       -1 0.55175449E-01 0.58888758E+03</pdfrwt>
<totfact> 0.37187470E+01</totfact>
</mgrwt>
</event>
<event>
 6    1  0.9022793E-004  0.4599206E+03  0.7818608E-02  0.1024804E+00
          2   -1    0    0  502    0  0.00000000000E+00  0.00000000000E+00  0.30307779970E+04  0.30307779970E+04  0.00000000000E+00 0. -1.
         -2   -1    0    0    0  501 -0.00000000000E+00 -0.00000000000E+00 -0.70039509537E+02  0.70039509537E+02  0.00000000000E+00 0.  1.
    9000007    2    1    2  502    0  0.10004755433E+03  0.20369630857E+03  0.13884685081E+04  0.14626677615E+04  0.40006309903E+03 0.  0.
    9000005    1    3    3    0    0  0.11046391995E+01 -0.10002534817E+03  0.65590188524E+03  0.66348667926E+03  0.99999687468E+00 0.  0.
          4    1    3    3  502    0  0.98942915133E+02  0.30372165674E+03  0.73256662286E+03  0.79918108221E+03  0.00000000000E+00 0.  1.
   -9000007    1    1    2    0  501 -0.10004755433E+03 -0.20369630857E+03  0.15722699793E+04  0.16381497450E+04  0.40000000000E+03 0. -1.
<mgrwt>
<rscale>  2 0.45992058E+03</rscale>
<asrwt>0</asrwt>
<pdfrwt beam="1">  1        2 0.46627344E+00 0.45992058E+03</pdfrwt>
<pdfrwt beam="2">  1       -2 0.10775312E-01 0.45992058E+03</pdfrwt>
<totfact> 0.11200615E+02</totfact>
</mgrwt>
</event>
<event>
 6    1  0.9022793E-004  0.1393810E+04  0.7818608E-02  0.8958312E-01
         -1   -1    0    0    0  501 -0.00000000000E+00  0.00000000000E+00  0.10511011143E+04  0.10511011143E+04  0.00000000000E+00 0.  1.
          1   -1    0    0  502    0  0.00000000000E+00 -0.00000000000E+00 -0.20946150186E+04  0.20946150186E+04  0.00000000000E+00 0. -1.
    9000007    2    1    2  502    0  0.12118659363E+04 -0.56039069628E+03  0.17648606037E+02  0.13939391342E+04  0.40012255193E+03 0.  0.
    9000005    1    3    3    0    0 -0.69231454255E+01 -0.59646858071E+02 -0.44628203065E+02  0.74822149948E+02  0.99999687468E+00 0.  0.
          4    1    3    3  502    0  0.12187890817E+04 -0.50074383820E+03  0.62276809101E+02  0.13191169843E+04  0.00000000000E+00 0.  1.
   -9000007    1    1    2    0  501 -0.12118659363E+04  0.56039069628E+03 -0.10611625103E+04  0.17517769987E+04  0.40000000000E+03 0. -1.
<mgrwt>
<rscale>  2 0.13938098E+04</rscale>
<asrwt>0</asrwt>
<pdfrwt beam="1">  1        1 0.32224847E+00 0.13938098E+04</pdfrwt>
<pdfrwt beam="2">  1       -1 0.16170786E+00 0.13938098E+04</pdfrwt>
<totfact> 0.69965327E-01</totfact>
</mgrwt>
</event>
<event>
 6    1  0.9022793E-004  0.4088995E+03  0.7818608E-02  0.1040741E+00
          2   -1    0    0  502    0  0.00000000000E+00  0.00000000000E+00  0.18467544760E+04  0.18467544760E+04  0.00000000000E+00 0.  1.
         -2   -1    0    0    0  501 -0.00000000000E+00 -0.00000000000E+00 -0.10475717697E+03  0.10475717697E+03  0.00000000000E+00 0. -1.
    9000007    2    1    2  502    0  0.39443159375E+02  0.77152371906E+02  0.51079580653E+03  0.65406594450E+03  0.39922631735E+03 0.  0.
    9000005    1    3    3    0    0  0.13531329634E+03 -0.95622723022E+02  0.38678863921E+03  0.42078479623E+03  0.99999687468E+00 0.  0.
          4    1    3    3  502    0 -0.95870136963E+02  0.17277509493E+03  0.12400716733E+03  0.23328114827E+03  0.00000000000E+00 0.  1.
   -9000007    1    1    2    0  501 -0.39443159375E+02 -0.77152371906E+02  0.12312014925E+04  0.12974457085E+04  0.40000000000E+03 0.  1.
<mgrwt>
<rscale>  2 0.40889949E+03</rscale>
<asrwt>0</asrwt>
<pdfrwt beam="1">  1        2 0.28411605E+00 0.40889949E+03</pdfrwt>
<pdfrwt beam="2">  1       -2 0.16116490E-01 0.40889949E+03</pdfrwt>
<totfact> 0.26647573E+02</totfact>
</mgrwt>
</event>
<event>
 6    1  0.9022793E-004  0.4278539E+03  0.7818608E-02  0.1034540E+00
         -1   -1    0    0    0  501 -0.00000000000E+00  0.00000000000E+00  0.20605640127E+03  0.20605640127E+03  0.00000000000E+00 0.  1.
          1   -1    0    0  502    0  0.00000000000E+00 -0.00000000000E+00 -0.13277476105E+04  0.13277476105E+04  0.00000000000E+00 0. -1.
    9000007    2    1    2  502    0  0.12380230361E+03  0.90757930869E+02 -0.10014812221E+04  0.10888158621E+04  0.39873717010E+03 0.  0.
    9000005    1    3    3    0    0  0.20042175997E+03 -0.23728446874E+02 -0.88707593634E+03  0.90974536981E+03  0.99999687468E+00 0.  0.
          4    1    3    3  502    0 -0.76619456362E+02  0.11448637774E+03 -0.11440528580E+03  0.17907049227E+03  0.00000000000E+00 0.  1.
   -9000007    1    1    2    0  501 -0.12380230361E+03 -0.90757930869E+02 -0.12020998712E+03  0.44498814973E+03  0.40000000000E+03 0.  1.
<mgrwt>
<rscale>  2 0.42785393E+03</rscale>
<asrwt>0</asrwt>
<pdfrwt beam="1">  1        1 0.20426886E+00 0.42785393E+03</pdfrwt>
<pdfrwt beam="2">  1       -1 0.31700986E-01 0.42785393E+03</pdfrwt>
<totfact> 0.85091838E+01</totfact>
</mgrwt>
</event>
<event>
 6    1  0.9022793E-004  0.4246757E+03  0.7818608E-02  0.1035555E+00
         -2   -1    0    0    0  501 -0.00000000000E+00  0.00000000000E+00  0.43973366198E+03  0.43973366198E+03  0.00000000000E+00 0.  1.
          2   -1    0    0  502    0  0.00000000000E+00 -0.00000000000E+00 -0.42004291994E+03  0.42004291994E+03  0.00000000000E+00 0. -1.
    9000007    2    1    2  502    0 -0.83528042459E+02 -0.11684699240E+03  0.75866404809E+02  0.43107405266E+03  0.39929810166E+03 0.  0.
    9000005    1    3    3    0    0 -0.18785020228E+03 -0.21018899135E+03  0.28707802719E+02  0.28335886878E+03  0.99999687468E+00 0.  0.
          4    1    3    3  502    0  0.10432215983E+03  0.93341998949E+02  0.47158602090E+02  0.14771518388E+03  0.00000000000E+00 0.  1.
   -9000007    1    1    2    0  501  0.83528042459E+02  0.11684699240E+03 -0.56175662773E+02  0.42870252927E+03  0.40000000000E+03 0.  1.
<mgrwt>
<rscale>  2 0.42467567E+03</rscale>
<asrwt>0</asrwt>
<pdfrwt beam="1">  1        2 0.64621987E-01 0.42467567E+03</pdfrwt>
<pdfrwt beam="2">  1       -2 0.67651333E-01 0.42467567E+03</pdfrwt>
<totfact> 0.15478113E+02</totfact>
</mgrwt>
</event>
<event>
 6    1  0.9022793E-004  0.5717555E+03  0.7818608E-02  0.9965801E-01
          1   -1    0    0  502    0  0.00000000000E+00  0.00000000000E+00  0.89824510320E+03  0.89824510320E+03  0.00000000000E+00 0. -1.
         -1   -1    0    0    0  501 -0.00000000000E+00 -0.00000000000E+00 -0.40992569961E+03  0.40992569961E+03  0.00000000000E+00 0.  1.
    9000007    2    1    2  502    0  0.37050523315E+03  0.17257280290E+03  0.46319265780E+03  0.73573141436E+03  0.39962204110E+03 0.  0.
    9000005    1    3    3    0    0  0.53634715086E+02  0.19844351662E+03  0.33477423106E+03  0.39285022302E+03  0.99999687468E+00 0.  0.
          4    1    3    3  502    0  0.31687051807E+03 -0.25870713713E+02  0.12841842674E+03  0.34288119134E+03  0.00000000000E+00 0.  1.
   -9000007    1    1    2    0  501 -0.37050523315E+03 -0.17257280290E+03  0.25126745796E+02  0.57243938845E+03  0.40000000000E+03 0. -1.
<mgrwt>
<rscale>  2 0.57175550E+03</rscale>
<asrwt>0</asrwt>
<pdfrwt beam="1">  1        1 0.13819155E+00 0.57175550E+03</pdfrwt>
<pdfrwt beam="2">  1       -1 0.63065492E-01 0.57175550E+03</pdfrwt>
<totfact> 0.48609805E+01</totfact>
</mgrwt>
</event>
<event>
 6    1  0.9022793E-004  0.4254682E+03  0.7818608E-02  0.1035301E+00
         -2   -1    0    0    0  501 -0.00000000000E+00  0.00000000000E+00  0.17540590414E+03  0.17540590414E+03  0.00000000000E+00 0.  1.
          2   -1    0    0  502    0  0.00000000000E+00 -0.00000000000E+00 -0.15390953108E+04  0.15390953108E+04  0.00000000000E+00 0. -1.
    9000007    2    1    2  502    0 -0.16441415045E+02  0.14459847267E+03 -0.11736979404E+04  0.12483726965E+04  0.39961042985E+03 0.  0.
    9000005    1    3    3    0    0 -0.15599445162E+03  0.18101864290E+03 -0.44067639298E+03  0.50129701907E+03  0.99999687468E+00 0.  0.
          4    1    3    3  502    0  0.13955303658E+03 -0.36420170221E+02 -0.73302154741E+03  0.74707567741E+03  0.00000000000E+00 0.  1.
   -9000007    1    1    2    0  501  0.16441415045E+02 -0.14459847267E+03 -0.18999146624E+03  0.46612851841E+03  0.40000000000E+03 0.  1.
<mgrwt>
<rscale>  2 0.42546824E+03</rscale>
<asrwt>0</asrwt>
<pdfrwt beam="1">  1        2 0.23678389E+00 0.42546824E+03</pdfrwt>
<pdfrwt beam="2">  1       -2 0.26985524E-01 0.42546824E+03</pdfrwt>
<totfact> 0.15836421E+02</totfact>
</mgrwt>
</event>
<event>
 6    1  0.9022793E-004  0.4159197E+03  0.7818608E-02  0.1038403E+00
         -2   -1    0    0    0  501 -0.00000000000E+00  0.00000000000E+00  0.41587766754E+03  0.41587766754E+03  0.00000000000E+00 0. -1.
          2   -1    0    0  502    0  0.00000000000E+00 -0.00000000000E+00 -0.51648832687E+03  0.51648832687E+03  0.00000000000E+00 0.  1.
    9000007    2    1    2  502    0 -0.10607161380E+03  0.37548450813E+02 -0.25601124425E+03  0.48873279546E+03  0.40082030234E+03 0.  0.
    9000005    1    3    3    0    0 -0.51138505262E+02  0.21982292920E+03 -0.13046799538E+03  0.26069170438E+03  0.99999687468E+00 0.  0.
          4    1    3    3  502    0 -0.54933108542E+02 -0.18227447838E+03 -0.12554324887E+03  0.22804109108E+03  0.00000000000E+00 0.  1.
   -9000007    1    1    2    0  501  0.10607161380E+03 -0.37548450813E+02  0.15540058492E+03  0.44363319894E+03  0.40000000000E+03 0. -1.
<mgrwt>
<rscale>  2 0.41591973E+03</rscale>
<asrwt>0</asrwt>
<pdfrwt beam="1">  1        2 0.79459743E-01 0.41591973E+03</pdfrwt>
<pdfrwt beam="2">  1       -2 0.63981179E-01 0.41591973E+03</pdfrwt>
<totfact> 0.13814478E+02</totfact>
</mgrwt>
</event>
<event>
 6    1  0.9022793E-004  0.5096113E+03  0.7818608E-02  0.1011300E+00
         -1   -1    0    0    0  501 -0.00000000000E+00  0.00000000000E+00  0.20685020647E+03  0.20685020647E+03  0.00000000000E+00 0. -1.
          1   -1    0    0  502    0  0.00000000000E+00 -0.00000000000E+00 -0.14056590698E+04  0.14056590698E+04  0.00000000000E+00 0.  1.
    9000007    2    1    2  502    0  0.66941464779E+02 -0.30908220751E+03 -0.33558324514E+03  0.60992689132E+03  0.39922641148E+03 0.  0.
    9000005    1    3    3    0    0  0.96380406752E+02 -0.20265578468E+03  0.31486903570E+02  0.22660753509E+03  0.99999687468E+00 0.  0.
          4    1    3    3  502    0 -0.29438941973E+02 -0.10642642283E+03 -0.36707014871E+03  0.38331935623E+03  0.00000000000E+00 0.  1.
   -9000007    1    1    2    0  501 -0.66941464779E+02  0.30908220751E+03 -0.86322561816E+03  0.10025823849E+04  0.40000000000E+03 0.  1.
<mgrwt>
<rscale>  2 0.50961127E+03</rscale>
<asrwt>0</asrwt>
<pdfrwt beam="1">  1        1 0.21625524E+00 0.50961127E+03</pdfrwt>
<pdfrwt beam="2">  1       -1 0.31823109E-01 0.50961127E+03</pdfrwt>
<totfact> 0.73765936E+01</totfact>
</mgrwt>
</event>
<event>
 6    1  0.9022793E-004  0.4322865E+03  0.7818608E-02  0.1033140E+00
         -2   -1    0    0    0  501 -0.00000000000E+00  0.00000000000E+00  0.66593855986E+02  0.66593855986E+02  0.00000000000E+00 0.  1.
          2   -1    0    0  502    0  0.00000000000E+00 -0.00000000000E+00 -0.36135881052E+04  0.36135881052E+04  0.00000000000E+00 0. -1.
    9000007    2    1    2  502    0 -0.12334880389E+03  0.10792546115E+03 -0.90371325667E+03  0.10017874350E+04  0.40002197686E+03 0.  0.
    9000005    1    3    3    0    0 -0.14493995644E+03  0.18720898362E+03 -0.88684224422E+03  0.91790247883E+03  0.99999687468E+00 0.  0.
          4    1    3    3  502    0  0.21591152550E+02 -0.79283522462E+02 -0.16871012446E+02  0.83884956121E+02  0.00000000000E+00 0.  1.
   -9000007    1    1    2    0  501  0.12334880389E+03 -0.10792546115E+03 -0.26432809926E+04  0.26783945263E+04  0.40000000000E+03 0. -1.
<mgrwt>
<rscale>  2 0.43228651E+03</rscale>
<asrwt>0</asrwt>
<pdfrwt beam="1">  1        2 0.55593677E+00 0.43228651E+03</pdfrwt>
<pdfrwt beam="2">  1       -2 0.10245206E-01 0.43228651E+03</pdfrwt>
<totfact> 0.51432415E+01</totfact>
</mgrwt>
</event>
<event>
 6    1  0.9022793E-004  0.5052279E+03  0.7818608E-02  0.1012423E+00
         -2   -1    0    0    0  501 -0.00000000000E+00  0.00000000000E+00  0.32959116036E+03  0.32959116036E+03  0.00000000000E+00 0. -1.
          2   -1    0    0  502    0  0.00000000000E+00 -0.00000000000E+00 -0.17082281099E+04  0.17082281099E+04  0.00000000000E+00 0.  1.
    9000007    2    1    2  502    0  0.10348246299E+03 -0.29095882832E+03 -0.14425755671E+04  0.15284531870E+04  0.39972392730E+03 0.  0.
    9000005    1    3    3    0    0 -0.13635962022E+03 -0.99097993169E+02 -0.28782802925E+03  0.33355709060E+03  0.99999687468E+00 0.  0.
          4    1    3    3  502    0  0.23984208321E+03 -0.19186083515E+03 -0.11547475379E+04  0.11948960964E+04  0.00000000000E+00 0.  1.
   -9000007    1    1    2    0  501 -0.10348246299E+03  0.29095882832E+03  0.63938617614E+02  0.50936608323E+03  0.40000000000E+03 0. -1.
<mgrwt>
<rscale>  2 0.50522791E+03</rscale>
<asrwt>0</asrwt>
<pdfrwt beam="1">  1        2 0.26280433E+00 0.50522791E+03</pdfrwt>
<pdfrwt beam="2">  1       -2 0.50706332E-01 0.50522791E+03</pdfrwt>
<totfact> 0.37923118E+01</totfact>
</mgrwt>
</event>
<event>
 6    1  0.9022793E-004  0.4835830E+03  0.7818608E-02  0.1018155E+00
          1   -1    0    0  502    0  0.00000000000E+00  0.00000000000E+00  0.97419248070E+03  0.97419248070E+03  0.00000000000E+00 0. -1.
         -1   -1    0    0    0  501 -0.00000000000E+00 -0.00000000000E+00 -0.42992693606E+03  0.42992693606E+03  0.00000000000E+00 0.  1.
    9000007    2    1    2  502    0  0.12877079215E+03  0.23926405334E+03  0.73870906396E+03  0.88293088432E+03  0.40005832221E+03 0.  0.
    9000005    1    3    3    0    0  0.29970010290E+02  0.49687826574E+02  0.64818379699E+03  0.65077670234E+03  0.99999687468E+00 0.  0.
          4    1    3    3  502    0  0.98800781865E+02  0.18957622677E+03  0.90525266970E+02  0.23215418198E+03  0.00000000000E+00 0.  1.
   -9000007    1    1    2    0  501 -0.12877079215E+03 -0.23926405334E+03 -0.19444351933E+03  0.52118853244E+03  0.40000000000E+03 0.  1.
<mgrwt>
<rscale>  2 0.48358302E+03</rscale>
<asrwt>0</asrwt>
<pdfrwt beam="1">  1        1 0.14987577E+00 0.48358302E+03</pdfrwt>
<pdfrwt beam="2">  1       -1 0.66142606E-01 0.48358302E+03</pdfrwt>
<totfact> 0.38993447E+01</totfact>
</mgrwt>
</event>
<event>
 6    1  0.9022793E-004  0.4040323E+03  0.7818608E-02  0.1042392E+00
         -1   -1    0    0    0  501 -0.00000000000E+00  0.00000000000E+00  0.10869131669E+03  0.10869131669E+03  0.00000000000E+00 0. -1.
          1   -1    0    0  502    0  0.00000000000E+00 -0.00000000000E+00 -0.15909726867E+04  0.15909726867E+04  0.00000000000E+00 0.  1.
    9000007    2    1    2  502    0  0.27049261242E+02  0.35071601130E+02 -0.54282663072E+03  0.67763812950E+03  0.40320094716E+03 0.  0.
    9000005    1    3    3    0    0  0.21213173688E+03 -0.15844326207E+00 -0.23369415594E+03  0.31561663044E+03  0.99999687468E+00 0.  0.
          4    1    3    3  502    0 -0.18508247564E+03  0.35230044393E+02 -0.30913247478E+03  0.36202149906E+03  0.00000000000E+00 0.  1.
   -9000007    1    1    2    0  501 -0.27049261242E+02 -0.35071601130E+02 -0.93945473928E+03  0.10220258739E+04  0.40000000000E+03 0.  1.
<mgrwt>
<rscale>  2 0.40403233E+03</rscale>
<asrwt>0</asrwt>
<pdfrwt beam="1">  1        1 0.24476501E+00 0.40403233E+03</pdfrwt>
<pdfrwt beam="2">  1       -1 0.16721742E-01 0.40403233E+03</pdfrwt>
<totfact> 0.16522454E+02</totfact>
</mgrwt>
</event>
<event>
 6    1  0.9022793E-004  0.4017736E+03  0.7818608E-02  0.1043167E+00
         -1   -1    0    0    0  501 -0.00000000000E+00  0.00000000000E+00  0.67561420381E+02  0.67561420381E+02  0.00000000000E+00 0.  1.
          1   -1    0    0  502    0  0.00000000000E+00 -0.00000000000E+00 -0.24008962222E+04  0.24008962222E+04  0.00000000000E+00 0. -1.
    9000007    2    1    2  502    0  0.84930127549E+01 -0.38098547910E+02 -0.10803903754E+04  0.11526334270E+04  0.39974594827E+03 0.  0.
    9000005    1    3    3    0    0  0.76714290971E+02 -0.20299286265E+03 -0.49092763997E+03  0.53675146241E+03  0.99999687468E+00 0.  0.
          4    1    3    3  502    0 -0.68221278216E+02  0.16489431474E+03 -0.58946273540E+03  0.61588196455E+03  0.00000000000E+00 0.  1.
   -9000007    1    1    2    0  501 -0.84930127549E+01  0.38098547910E+02 -0.12529444265E+04  0.13158242156E+04  0.40000000000E+03 0. -1.
<mgrwt>
<rscale>  2 0.40177358E+03</rscale>
<asrwt>0</asrwt>
<pdfrwt beam="1">  1        1 0.36936864E+00 0.40177358E+03</pdfrwt>
<pdfrwt beam="2">  1       -1 0.10394065E-01 0.40177358E+03</pdfrwt>
<totfact> 0.10285204E+02</totfact>
</mgrwt>
</event>
<event>
 6    1  0.9022793E-004  0.4014516E+03  0.7818608E-02  0.1043278E+00
         -1   -1    0    0    0  501 -0.00000000000E+00  0.00000000000E+00  0.16580295761E+03  0.16580295761E+03  0.00000000000E+00 0.  1.
          1   -1    0    0  502    0  0.00000000000E+00 -0.00000000000E+00 -0.12204449852E+04  0.12204449852E+04  0.00000000000E+00 0. -1.
    9000007    2    1    2  502    0 -0.12114090773E+02 -0.35086499166E+02 -0.83975853176E+03  0.93066838840E+03  0.39946394566E+03 0.  0.
    9000005    1    3    3    0    0  0.53523597285E+02 -0.12507168095E+03 -0.80140292665E+03  0.81286859435E+03  0.99999687468E+00 0.  0.
          4    1    3    3  502    0 -0.65637688058E+02  0.89985181786E+02 -0.38355605109E+02  0.11779979405E+03  0.00000000000E+00 0.  1.
   -9000007    1    1    2    0  501  0.12114090773E+02  0.35086499166E+02 -0.21488349582E+03  0.45557955441E+03  0.40000000000E+03 0.  1.
<mgrwt>
<rscale>  2 0.40145161E+03</rscale>
<asrwt>0</asrwt>
<pdfrwt beam="1">  1        1 0.18776077E+00 0.40145161E+03</pdfrwt>
<pdfrwt beam="2">  1       -1 0.25508147E-01 0.40145161E+03</pdfrwt>
<totfact> 0.14730470E+02</totfact>
</mgrwt>
</event>
<event>
 6    1  0.9022793E-004  0.5044425E+03  0.7818608E-02  0.1012626E+00
         -1   -1    0    0    0  501 -0.00000000000E+00  0.00000000000E+00  0.68241438501E+03  0.68241438501E+03  0.00000000000E+00 0.  1.
          1   -1    0    0  502    0  0.00000000000E+00 -0.00000000000E+00 -0.43171817146E+03  0.43171817146E+03  0.00000000000E+00 0. -1.
    9000007    2    1    2  502    0  0.13832439241E+03  0.27236422537E+03 -0.80048169199E+02  0.51188032067E+03  0.40286206634E+03 0.  0.
    9000005    1    3    3    0    0  0.26617197019E+03  0.24403470672E+03 -0.11010913907E+03  0.37752546709E+03  0.99999687468E+00 0.  0.
          4    1    3    3  502    0 -0.12784757778E+03  0.28329518656E+02  0.30060969873E+02  0.13435485358E+03  0.00000000000E+00 0.  1.
   -9000007    1    1    2    0  501 -0.13832439241E+03 -0.27236422537E+03  0.33074438275E+03  0.60225223580E+03  0.40000000000E+03 0.  1.
<mgrwt>
<rscale>  2 0.50444250E+03</rscale>
<asrwt>0</asrwt>
<pdfrwt beam="1">  1        1 0.66418180E-01 0.50444250E+03</pdfrwt>
<pdfrwt beam="2">  1       -1 0.10498683E+00 0.50444250E+03</pdfrwt>
<totfact> 0.48287756E+01</totfact>
</mgrwt>
</event>
<event>
 6    1  0.9022793E-004  0.5998683E+03  0.7818608E-02  0.9905679E-01
          2   -1    0    0  502    0  0.00000000000E+00  0.00000000000E+00  0.49215374773E+03  0.49215374773E+03  0.00000000000E+00 0.  1.
         -2   -1    0    0    0  501 -0.00000000000E+00 -0.00000000000E+00 -0.73551108698E+03  0.73551108698E+03  0.00000000000E+00 0. -1.
    9000007    2    1    2  502    0 -0.39077636943E+03 -0.21679915594E+03 -0.74476828448E+02  0.60458484639E+03  0.40033485184E+03 0.  0.
    9000005    1    3    3    0    0  0.38913901095E+02  0.45209431148E+02  0.59008377015E+02  0.83911697128E+02  0.99999687468E+00 0.  0.
          4    1    3    3  502    0 -0.42969027052E+03 -0.26200858708E+03 -0.13348520546E+03  0.52067314927E+03  0.00000000000E+00 0.  1.
   -9000007    1    1    2    0  501  0.39077636943E+03  0.21679915594E+03 -0.16888051080E+03  0.62307998832E+03  0.40000000000E+03 0. -1.
<mgrwt>
<rscale>  2 0.59986833E+03</rscale>
<asrwt>0</asrwt>
<pdfrwt beam="1">  1        2 0.75715961E-01 0.59986833E+03</pdfrwt>
<pdfrwt beam="2">  1       -2 0.11315555E+00 0.59986833E+03</pdfrwt>
<totfact> 0.39400776E+01</totfact>
</mgrwt>
</event>
<event>
 6    1  0.9022793E-004  0.4039421E+03  0.7818608E-02  0.1042423E+00
         -2   -1    0    0    0  501 -0.00000000000E+00  0.00000000000E+00  0.81050038097E+02  0.81050038097E+02  0.00000000000E+00 0.  1.
          2   -1    0    0  502    0  0.00000000000E+00 -0.00000000000E+00 -0.27232202045E+04  0.27232202045E+04  0.00000000000E+00 0. -1.
    9000007    2    1    2  502    0  0.14796537597E+02 -0.55130314751E+02 -0.60486270880E+03  0.72728204669E+03  0.39977742534E+03 0.  0.
    9000005    1    3    3    0    0 -0.80948800419E+02  0.12832206050E+03 -0.43126037024E+03  0.45717148472E+03  0.99999687468E+00 0.  0.
          4    1    3    3  502    0  0.95745338016E+02 -0.18345237525E+03 -0.17360233856E+03  0.27011056197E+03  0.00000000000E+00 0.  1.
   -9000007    1    1    2    0  501 -0.14796537597E+02  0.55130314751E+02 -0.20373074576E+04  0.20769881959E+04  0.40000000000E+03 0. -1.
<mgrwt>
<rscale>  2 0.40394215E+03</rscale>
<asrwt>0</asrwt>
<pdfrwt beam="1">  1        2 0.41895688E+00 0.40394215E+03</pdfrwt>
<pdfrwt beam="2">  1       -2 0.12469239E-01 0.40394215E+03</pdfrwt>
<totfact> 0.13554173E+02</totfact>
</mgrwt>
</event>
<event>
 6    1  0.9022793E-004  0.4286981E+03  0.7818608E-02  0.1034272E+00
          2   -1    0    0  502    0  0.00000000000E+00  0.00000000000E+00  0.16666737616E+03  0.16666737616E+03  0.00000000000E+00 0. -1.
         -2   -1    0    0    0  501 -0.00000000000E+00 -0.00000000000E+00 -0.11081272377E+04  0.11081272377E+04  0.00000000000E+00 0.  1.
    9000007    2    1    2  502    0 -0.34031516524E+01  0.15747581002E+03 -0.42480088828E+03  0.60267356312E+03  0.39742850529E+03 0.  0.
    9000005    1    3    3    0    0 -0.14403807423E+03  0.21740245699E+03 -0.19068531811E+03  0.32306761780E+03  0.99999687468E+00 0.  0.
          4    1    3    3  502    0  0.14063492258E+03 -0.59926646966E+02 -0.23411557016E+03  0.27960594532E+03  0.00000000000E+00 0.  1.
   -9000007    1    1    2    0  501  0.34031516524E+01 -0.15747581002E+03 -0.51665897321E+03  0.67212105069E+03  0.40000000000E+03 0. -1.
<mgrwt>
<rscale>  2 0.42869810E+03</rscale>
<asrwt>0</asrwt>
<pdfrwt beam="1">  1        2 0.25641134E-01 0.42869810E+03</pdfrwt>
<pdfrwt beam="2">  1       -2 0.17048112E+00 0.42869810E+03</pdfrwt>
<totfact> 0.46649025E+01</totfact>
</mgrwt>
</event>
<event>
 6    1  0.9022793E-004  0.4095140E+03  0.7818608E-02  0.1040534E+00
         -2   -1    0    0    0  501 -0.00000000000E+00  0.00000000000E+00  0.79736517764E+02  0.79736517764E+02  0.00000000000E+00 0.  1.
          2   -1    0    0  502    0  0.00000000000E+00 -0.00000000000E+00 -0.22013153084E+04  0.22013153084E+04  0.00000000000E+00 0. -1.
    9000007    2    1    2  502    0 -0.36057304027E+02 -0.78146039653E+02 -0.82089396665E+03  0.91753140313E+03  0.40073686948E+03 0.  0.
    9000005    1    3    3    0    0 -0.15391167463E+03  0.10907514256E+03 -0.37655216091E+03  0.42116353141E+03  0.99999687468E+00 0.  0.
          4    1    3    3  502    0  0.11785437061E+03 -0.18722118222E+03 -0.44434180574E+03  0.49636787172E+03  0.00000000000E+00 0.  1.
   -9000007    1    1    2    0  501  0.36057304027E+02  0.78146039653E+02 -0.13006848240E+04  0.13635204231E+04  0.40000000000E+03 0.  1.
<mgrwt>
<rscale>  2 0.40951397E+03</rscale>
<asrwt>0</asrwt>
<pdfrwt beam="1">  1        2 0.33866392E+00 0.40951397E+03</pdfrwt>
<pdfrwt beam="2">  1       -2 0.12267156E-01 0.40951397E+03</pdfrwt>
<totfact> 0.27080739E+02</totfact>
</mgrwt>
</event>
<event>
 6    1  0.9022793E-004  0.4643032E+03  0.7818608E-02  0.1023541E+00
          2   -1    0    0  502    0  0.00000000000E+00  0.00000000000E+00  0.35954468827E+04  0.35954468827E+04  0.00000000000E+00 0.  1.
         -2   -1    0    0    0  501 -0.00000000000E+00 -0.00000000000E+00 -0.64010162034E+02  0.64010162034E+02  0.00000000000E+00 0. -1.
    9000007    2    1    2  502    0  0.88682165778E+02 -0.21866046244E+03  0.13049956383E+04  0.13850962955E+04  0.39975143213E+03 0.  0.
    9000005    1    3    3    0    0  0.94081069882E+02  0.56844109681E+02  0.98719002923E+02  0.14774620823E+03  0.99999687468E+00 0.  0.
          4    1    3    3  502    0 -0.53989041041E+01 -0.27550457213E+03  0.12062766354E+04  0.12373500873E+04  0.00000000000E+00 0.  1.
   -9000007    1    1    2    0  501 -0.88682165778E+02  0.21866046244E+03  0.22264410824E+04  0.22743607492E+04  0.40000000000E+03 0.  1.
<mgrwt>
<rscale>  2 0.46430325E+03</rscale>
<asrwt>0</asrwt>
<pdfrwt beam="1">  1        2 0.55314552E+00 0.46430325E+03</pdfrwt>
<pdfrwt beam="2">  1       -2 0.98477201E-02 0.46430325E+03</pdfrwt>
<totfact> 0.55948892E+01</totfact>
</mgrwt>
</event>
<event>
 6    1  0.9022793E-004  0.4249361E+03  0.7818608E-02  0.1035472E+00
         -2   -1    0    0    0  501 -0.00000000000E+00  0.00000000000E+00  0.21953070898E+03  0.21953070898E+03  0.00000000000E+00 0.  1.
          2   -1    0    0  502    0  0.00000000000E+00 -0.00000000000E+00 -0.18335444772E+04  0.18335444772E+04  0.00000000000E+00 0. -1.
    9000007    2    1    2  502    0  0.25990022464E+02  0.13928356876E+03 -0.45237015181E+02  0.42791799543E+03  0.40123812066E+03 0.  0.
    9000005    1    3    3    0    0  0.13621639033E+03 -0.57600115289E+02 -0.11974447789E+03  0.19029560756E+03  0.99999687468E+00 0.  0.
          4    1    3    3  502    0 -0.11022636787E+03  0.19688368405E+03  0.74507462711E+02  0.23762238787E+03  0.00000000000E+00 0.  1.
   -9000007    1    1    2    0  501 -0.25990022464E+02 -0.13928356876E+03 -0.15687767531E+04  0.16251571908E+04  0.40000000000E+03 0. -1.
<mgrwt>
<rscale>  2 0.42493614E+03</rscale>
<asrwt>0</asrwt>
<pdfrwt beam="1">  1        2 0.28208378E+00 0.42493614E+03</pdfrwt>
<pdfrwt beam="2">  1       -2 0.33773954E-01 0.42493614E+03</pdfrwt>
<totfact> 0.72782098E+01</totfact>
</mgrwt>
</event>
<event>
 6    1  0.9022793E-004  0.8342652E+03  0.7818608E-02  0.9511702E-01
          2   -1    0    0  502    0  0.00000000000E+00  0.00000000000E+00  0.23471404690E+04  0.23471404690E+04  0.00000000000E+00 0. -1.
         -2   -1    0    0    0  501 -0.00000000000E+00 -0.00000000000E+00 -0.33393224773E+03  0.33393224773E+03  0.00000000000E+00 0.  1.
    9000007    2    1    2  502    0  0.59375361324E+03 -0.42865370721E+03  0.14550566936E+04  0.16771700911E+04  0.39927707037E+03 0.  0.
    9000005    1    3    3    0    0  0.22047689091E+03  0.46707072118E+02  0.47453188687E+03  0.52533143982E+03  0.99999687468E+00 0.  0.
          4    1    3    3  502    0  0.37327672234E+03 -0.47536077933E+03  0.98052480673E+03  0.11518386513E+04  0.00000000000E+00 0.  1.
   -9000007    1    1    2    0  501 -0.59375361324E+03  0.42865370721E+03  0.55815152771E+03  0.10039026257E+04  0.40000000000E+03 0. -1.
<mgrwt>
<rscale>  2 0.83426518E+03</rscale>
<asrwt>0</asrwt>
<pdfrwt beam="1">  1        2 0.36109852E+00 0.83426518E+03</pdfrwt>
<pdfrwt beam="2">  1       -2 0.51374193E-01 0.83426518E+03</pdfrwt>
<totfact> 0.15720021E+01</totfact>
</mgrwt>
</event>
<event>
 6    1  0.9022793E-004  0.4097135E+03  0.7818608E-02  0.1040467E+00
          2   -1    0    0  502    0  0.00000000000E+00  0.00000000000E+00  0.18278129629E+03  0.18278129629E+03  0.00000000000E+00 0.  1.
         -2   -1    0    0    0  501 -0.00000000000E+00 -0.00000000000E+00 -0.94198788996E+03  0.94198788996E+03  0.00000000000E+00 0. -1.
    9000007    2    1    2  502    0 -0.54656820724E+02 -0.66452622226E+02 -0.46911479938E+03  0.62321503347E+03  0.40115453867E+03 0.  0.
    9000005    1    3    3    0    0  0.11515987063E+03 -0.97483467567E+01 -0.42276546309E+03  0.43827897832E+03  0.99999687468E+00 0.  0.
          4    1    3    3  502    0 -0.16981669135E+03 -0.56704275469E+02 -0.46349336293E+02  0.18493605515E+03  0.00000000000E+00 0.  1.
   -9000007    1    1    2    0  501  0.54656820724E+02  0.66452622226E+02 -0.29009179429E+03  0.50155415278E+03  0.40000000000E+03 0.  1.
<mgrwt>
<rscale>  2 0.40971351E+03</rscale>
<asrwt>0</asrwt>
<pdfrwt beam="1">  1        2 0.28120200E-01 0.40971351E+03</pdfrwt>
<pdfrwt beam="2">  1       -2 0.14492121E+00 0.40971351E+03</pdfrwt>
<totfact> 0.64873010E+01</totfact>
</mgrwt>
</event>
<event>
 6    1  0.9022793E-004  0.5347280E+03  0.7818608E-02  0.1005092E+00
          1   -1    0    0  502    0  0.00000000000E+00  0.00000000000E+00  0.51173409348E+03  0.51173409348E+03  0.00000000000E+00 0.  1.
         -1   -1    0    0    0  501 -0.00000000000E+00 -0.00000000000E+00 -0.77309351369E+03  0.77309351369E+03  0.00000000000E+00 0. -1.
    9000007    2    1    2  502    0 -0.20154703855E+03  0.29211994246E+03  0.20758235924E+03  0.57358808208E+03  0.39994697461E+03 0.  0.
    9000005    1    3    3    0    0 -0.26857837837E+03  0.60623259323E+02  0.35861999902E+02  0.27766275935E+03  0.99999687468E+00 0.  0.
          4    1    3    3  502    0  0.67031339811E+02  0.23149668314E+03  0.17172035934E+03  0.29592532273E+03  0.00000000000E+00 0.  1.
   -9000007    1    1    2    0  501  0.20154703855E+03 -0.29211994246E+03 -0.46894177945E+03  0.71123952509E+03  0.40000000000E+03 0.  1.
<mgrwt>
<rscale>  2 0.53472802E+03</rscale>
<asrwt>0</asrwt>
<pdfrwt beam="1">  1        1 0.78728323E-01 0.53472802E+03</pdfrwt>
<pdfrwt beam="2">  1       -1 0.11893746E+00 0.53472802E+03</pdfrwt>
<totfact> 0.28524569E+01</totfact>
</mgrwt>
</event>
<event>
 6    1  0.9022793E-004  0.4142067E+03  0.7818608E-02  0.1038968E+00
         -2   -1    0    0    0  501 -0.00000000000E+00  0.00000000000E+00  0.40074869361E+03  0.40074869361E+03  0.00000000000E+00 0. -1.
          2   -1    0    0  502    0  0.00000000000E+00 -0.00000000000E+00 -0.44900853833E+03  0.44900853833E+03  0.00000000000E+00 0.  1.
    9000007    2    1    2  502    0 -0.16972890569E+02  0.10499944159E+03  0.67501268263E+02  0.41997403423E+03  0.40063550325E+03 0.  0.
    9000005    1    3    3    0    0 -0.16814570429E+03  0.13691835495E+03  0.13053968873E+03  0.25310318868E+03  0.99999687468E+00 0.  0.
          4    1    3    3  502    0  0.15117281372E+03 -0.31918913362E+02 -0.63038420463E+02  0.16687084555E+03  0.00000000000E+00 0.  1.
   -9000007    1    1    2    0  501  0.16972890569E+02 -0.10499944159E+03 -0.11576111299E+03  0.42978319770E+03  0.40000000000E+03 0.  1.
<mgrwt>
<rscale>  2 0.41420668E+03</rscale>
<asrwt>0</asrwt>
<pdfrwt beam="1">  1        2 0.69078236E-01 0.41420668E+03</pdfrwt>
<pdfrwt beam="2">  1       -2 0.61653645E-01 0.41420668E+03</pdfrwt>
<totfact> 0.17513871E+02</totfact>
</mgrwt>
</event>
<event>
 6    1  0.9022793E-004  0.4854172E+03  0.7818608E-02  0.1017657E+00
         -2   -1    0    0    0  501 -0.00000000000E+00  0.00000000000E+00  0.15685897317E+03  0.15685897317E+03  0.00000000000E+00 0. -1.
          2   -1    0    0  502    0  0.00000000000E+00 -0.00000000000E+00 -0.15271774820E+04  0.15271774820E+04  0.00000000000E+00 0.  1.
    9000007    2    1    2  502    0  0.27450248880E+03  0.16769184652E+02 -0.79288951199E+03  0.92967774190E+03  0.39999262950E+03 0.  0.
    9000005    1    3    3    0    0  0.18182897823E+02  0.18023622288E+03 -0.28167723817E+03  0.33490115006E+03  0.99999687468E+00 0.  0.
          4    1    3    3  502    0  0.25631959097E+03 -0.16346703823E+03 -0.51121227382E+03  0.59477659185E+03  0.00000000000E+00 0.  1.
   -9000007    1    1    2    0  501 -0.27450248880E+03 -0.16769184652E+02 -0.57742899687E+03  0.75435871330E+03  0.40000000000E+03 0.  1.
<mgrwt>
<rscale>  2 0.48541722E+03</rscale>
<asrwt>0</asrwt>
<pdfrwt beam="1">  1        2 0.23495038E+00 0.48541722E+03</pdfrwt>
<pdfrwt beam="2">  1       -2 0.24132150E-01 0.48541722E+03</pdfrwt>
<totfact> 0.19491529E+02</totfact>
</mgrwt>
</event>
<event>
 6    1  0.9022793E-004  0.4649572E+03  0.7818608E-02  0.1023353E+00
         -1   -1    0    0    0  501 -0.00000000000E+00  0.00000000000E+00  0.14151264529E+03  0.14151264529E+03  0.00000000000E+00 0. -1.
          1   -1    0    0  502    0  0.00000000000E+00 -0.00000000000E+00 -0.15915393822E+04  0.15915393822E+04  0.00000000000E+00 0.  1.
    9000007    2    1    2  502    0  0.76582944411E+02 -0.22400015284E+03 -0.89882782010E+03  0.10120379765E+04  0.40036033748E+03 0.  0.
    9000005    1    3    3    0    0 -0.34563077624E+02  0.13474413657E+02  0.29491143088E+02  0.47401410027E+02  0.99999687468E+00 0.  0.
          4    1    3    3  502    0  0.11114602203E+03 -0.23747456650E+03 -0.92831896319E+03  0.96463656647E+03  0.00000000000E+00 0.  1.
   -9000007    1    1    2    0  501 -0.76582944411E+02  0.22400015284E+03 -0.55119891681E+03  0.72101405100E+03  0.40000000000E+03 0. -1.
<mgrwt>
<rscale>  2 0.46495717E+03</rscale>
<asrwt>0</asrwt>
<pdfrwt beam="1">  1        1 0.24485222E+00 0.46495717E+03</pdfrwt>
<pdfrwt beam="2">  1       -1 0.21771175E-01 0.46495717E+03</pdfrwt>
<totfact> 0.10606089E+02</totfact>
</mgrwt>
</event>
<event>
 6    1  0.9022793E-004  0.4021088E+03  0.7818608E-02  0.1043052E+00
         -1   -1    0    0    0  501 -0.00000000000E+00  0.00000000000E+00  0.21975464223E+03  0.21975464223E+03  0.00000000000E+00 0. -1.
          1   -1    0    0  502    0  0.00000000000E+00 -0.00000000000E+00 -0.83940550071E+03  0.83940550071E+03  0.00000000000E+00 0.  1.
    9000007    2    1    2  502    0 -0.22831925425E+02 -0.25077144612E+02 -0.49634826281E+03  0.63921527739E+03  0.40135322704E+03 0.  0.
    9000005    1    3    3    0    0  0.11501836980E+03  0.15003581742E+02  0.65951410352E+01  0.11618445996E+03  0.99999687468E+00 0.  0.
          4    1    3    3  502    0 -0.13785029522E+03 -0.40080726354E+02 -0.50294340384E+03  0.52303081744E+03  0.00000000000E+00 0.  1.
   -9000007    1    1    2    0  501  0.22831925425E+02  0.25077144612E+02 -0.12330259566E+03  0.41994486555E+03  0.40000000000E+03 0. -1.
<mgrwt>
<rscale>  2 0.40210876E+03</rscale>
<asrwt>0</asrwt>
<pdfrwt beam="1">  1        1 0.12913930E+00 0.40210876E+03</pdfrwt>
<pdfrwt beam="2">  1       -1 0.33808407E-01 0.40210876E+03</pdfrwt>
<totfact> 0.17628750E+02</totfact>
</mgrwt>
</event>
<event>
 6    1  0.9022793E-004  0.4395114E+03  0.7818608E-02  0.1030897E+00
         -4   -1    0    0    0  501 -0.00000000000E+00  0.00000000000E+00  0.78110076850E+03  0.78110076850E+03  0.00000000000E+00 0.  1.
          4   -1    0    0  502    0  0.00000000000E+00 -0.00000000000E+00 -0.27924300068E+03  0.27924300068E+03  0.00000000000E+00 0. -1.
    9000007    2    1    2  502    0 -0.37240206556E+02  0.17841172563E+03  0.43020085792E+03  0.61497617992E+03  0.39988166610E+03 0.  0.
    9000005    1    3    3    0    0  0.12611006290E+03  0.23354082834E+03  0.23453124534E+03  0.35419058641E+03  0.99999687468E+00 0.  0.
          4    1    3    3  502    0 -0.16335026945E+03 -0.55129102711E+02  0.19566961258E+03  0.26078559352E+03  0.00000000000E+00 0.  1.
   -9000007    1    1    2    0  501  0.37240206556E+02 -0.17841172563E+03  0.71656909898E+02  0.44536758926E+03  0.40000000000E+03 0.  1.
<mgrwt>
<rscale>  2 0.43951137E+03</rscale>
<asrwt>0</asrwt>
<pdfrwt beam="1">  1        4 0.42960462E-01 0.43951137E+03</pdfrwt>
<pdfrwt beam="2">  1       -4 0.12016935E+00 0.43951137E+03</pdfrwt>
<totfact> 0.54036246E+00</totfact>
</mgrwt>
</event>
<event>
 6    1  0.9022793E-004  0.4530142E+03  0.7818608E-02  0.1026827E+00
          1   -1    0    0  502    0  0.00000000000E+00  0.00000000000E+00  0.54627679347E+03  0.54627679347E+03  0.00000000000E+00 0. -1.
         -1   -1    0    0    0  501 -0.00000000000E+00 -0.00000000000E+00 -0.37574998583E+03  0.37574998583E+03  0.00000000000E+00 0.  1.
    9000007    2    1    2  502    0  0.19041520928E+03 -0.95966775338E+02  0.78652526421E+02  0.45952439287E+03  0.39938562047E+03 0.  0.
    9000005    1    3    3    0    0  0.19579603870E+03 -0.23468185909E+03  0.94236345472E+02  0.31983300730E+03  0.99999687468E+00 0.  0.
          4    1    3    3  502    0 -0.53808294259E+01  0.13871508375E+03 -0.15583819050E+02  0.13969138557E+03  0.00000000000E+00 0.  1.
   -9000007    1    1    2    0  501 -0.19041520928E+03  0.95966775338E+02  0.91874281218E+02  0.46250238642E+03  0.40000000000E+03 0. -1.
<mgrwt>
<rscale>  2 0.45301420E+03</rscale>
<asrwt>0</asrwt>
<pdfrwt beam="1">  1        1 0.84042583E-01 0.45301420E+03</pdfrwt>
<pdfrwt beam="2">  1       -1 0.57807690E-01 0.45301420E+03</pdfrwt>
<totfact> 0.12361234E+02</totfact>
</mgrwt>
</event>
<event>
 6    1  0.9022793E-004  0.5699421E+03  0.7818608E-02  0.9969807E-01
          2   -1    0    0  502    0  0.00000000000E+00  0.00000000000E+00  0.79191190282E+03  0.79191190282E+03  0.00000000000E+00 0.  1.
         -2   -1    0    0    0  501 -0.00000000000E+00 -0.00000000000E+00 -0.41019191881E+03  0.41019191881E+03  0.00000000000E+00 0. -1.
    9000007    2    1    2  502    0 -0.30207002883E+03  0.27148259728E+03  0.18939370034E+03  0.60049057182E+03  0.39971220919E+03 0.  0.
    9000005    1    3    3    0    0 -0.27456432590E+03  0.13926499649E+03 -0.62992794883E+02  0.31424417338E+03  0.99999687468E+00 0.  0.
          4    1    3    3  502    0 -0.27505702937E+02  0.13221760079E+03  0.25238649522E+03  0.28624639844E+03  0.00000000000E+00 0.  1.
   -9000007    1    1    2    0  501  0.30207002883E+03 -0.27148259728E+03  0.19232628368E+03  0.60161324980E+03  0.40000000000E+03 0. -1.
<mgrwt>
<rscale>  2 0.56994211E+03</rscale>
<asrwt>0</asrwt>
<pdfrwt beam="1">  1        2 0.12183260E+00 0.56994211E+03</pdfrwt>
<pdfrwt beam="2">  1       -2 0.63106449E-01 0.56994211E+03</pdfrwt>
<totfact> 0.83431188E+01</totfact>
</mgrwt>
</event>
<event>
 6    1  0.9022793E-004  0.4330433E+03  0.7818608E-02  0.1032903E+00
          4   -1    0    0  502    0  0.00000000000E+00  0.00000000000E+00  0.31483410291E+03  0.31483410291E+03  0.00000000000E+00 0. -1.
         -4   -1    0    0    0  501 -0.00000000000E+00 -0.00000000000E+00 -0.12331908917E+04  0.12331908917E+04  0.00000000000E+00 0.  1.
    9000007    2    1    2  502    0 -0.54839499876E+02  0.15440290836E+03 -0.10161131820E+04  0.11048501518E+04  0.40169668979E+03 0.  0.
    9000005    1    3    3    0    0 -0.11472989953E+03  0.10579615593E+03 -0.99694542472E+02  0.18519119376E+03  0.99999687468E+00 0.  0.
          4    1    3    3  502    0  0.59890399651E+02  0.48606752431E+02 -0.91641863949E+03  0.91965895807E+03  0.00000000000E+00 0.  1.
   -9000007    1    1    2    0  501  0.54839499876E+02 -0.15440290836E+03  0.97756393183E+02  0.44317484277E+03  0.40000000000E+03 0. -1.
<mgrwt>
<rscale>  2 0.43304331E+03</rscale>
<asrwt>0</asrwt>
<pdfrwt beam="1">  1        4 0.48436016E-01 0.43304331E+03</pdfrwt>
<pdfrwt beam="2">  1       -4 0.18972168E+00 0.43304331E+03</pdfrwt>
<totfact> 0.12560157E+00</totfact>
</mgrwt>
</event>
<event>
 6    1  0.9022793E-004  0.4505952E+03  0.7818608E-02  0.1027545E+00
         -1   -1    0    0    0  501 -0.00000000000E+00  0.00000000000E+00  0.22114771795E+03  0.22114771795E+03  0.00000000000E+00 0.  1.
          1   -1    0    0  502    0  0.00000000000E+00 -0.00000000000E+00 -0.93399969655E+03  0.93399969655E+03  0.00000000000E+00 0. -1.
    9000007    2    1    2  502    0 -0.15158688460E+03  0.14180581399E+03 -0.28102667098E+03  0.53099954038E+03  0.39987129131E+03 0.  0.
    9000005    1    3    3    0    0  0.73410711240E+02 -0.71362974142E+02 -0.17624041561E+03  0.20382220363E+03  0.99999687468E+00 0.  0.
          4    1    3    3  502    0 -0.22499759584E+03  0.21316878813E+03 -0.10478625537E+03  0.32717733675E+03  0.00000000000E+00 0.  1.
   -9000007    1    1    2    0  501  0.15158688460E+03 -0.14180581399E+03 -0.43182530763E+03  0.62414787412E+03  0.40000000000E+03 0. -1.
<mgrwt>
<rscale>  2 0.45059515E+03</rscale>
<asrwt>0</asrwt>
<pdfrwt beam="1">  1        1 0.14369226E+00 0.45059515E+03</pdfrwt>
<pdfrwt beam="2">  1       -1 0.34022726E-01 0.45059515E+03</pdfrwt>
<totfact> 0.14544939E+02</totfact>
</mgrwt>
</event>
<event>
 6    1  0.9022793E-004  0.4231110E+03  0.7818608E-02  0.1036059E+00
          2   -1    0    0  502    0  0.00000000000E+00  0.00000000000E+00  0.17185325574E+04  0.17185325574E+04  0.00000000000E+00 0. -1.
         -2   -1    0    0    0  501 -0.00000000000E+00 -0.00000000000E+00 -0.11611900821E+03  0.11611900821E+03  0.00000000000E+00 0.  1.
    9000007    2    1    2  502    0  0.15861407297E+02 -0.13889683080E+03  0.50592490928E+03  0.65913837926E+03  0.39869722262E+03 0.  0.
    9000005    1    3    3    0    0 -0.63011241220E+02  0.12794104307E+03  0.14470608569E+03  0.20317524025E+03  0.99999687468E+00 0.  0.
          4    1    3    3  502    0  0.78872648517E+02 -0.26683787387E+03  0.36121882360E+03  0.45596313901E+03  0.00000000000E+00 0.  1.
   -9000007    1    1    2    0  501 -0.15861407297E+02  0.13889683080E+03  0.10964886399E+04  0.11755131863E+04  0.40000000000E+03 0.  1.
<mgrwt>
<rscale>  2 0.42311097E+03</rscale>
<asrwt>0</asrwt>
<pdfrwt beam="1">  1        2 0.26438961E+00 0.42311097E+03</pdfrwt>
<pdfrwt beam="2">  1       -2 0.17864464E-01 0.42311097E+03</pdfrwt>
<totfact> 0.26150977E+02</totfact>
</mgrwt>
</event>
<event>
 6    1  0.9022793E-004  0.5527242E+03  0.7818608E-02  0.1000865E+00
          1   -1    0    0  502    0  0.00000000000E+00  0.00000000000E+00  0.35684191515E+03  0.35684191515E+03  0.00000000000E+00 0. -1.
         -1   -1    0    0    0  501 -0.00000000000E+00 -0.00000000000E+00 -0.85659607954E+03  0.85659607954E+03  0.00000000000E+00 0.  1.
    9000007    2    1    2  502    0  0.35316571016E+03 -0.14319683300E+03 -0.23588229418E+03  0.60118011136E+03  0.40068156655E+03 0.  0.
    9000005    1    3    3    0    0  0.61014078381E+02  0.96450746568E+02 -0.18849105148E+03  0.22035276435E+03  0.99999687468E+00 0.  0.
          4    1    3    3  502    0  0.29215163178E+03 -0.23964757957E+03 -0.47391242700E+02  0.38082734701E+03  0.00000000000E+00 0.  1.
   -9000007    1    1    2    0  501 -0.35316571016E+03  0.14319683300E+03 -0.26387187020E+03  0.61225788333E+03  0.40000000000E+03 0. -1.
<mgrwt>
<rscale>  2 0.55272424E+03</rscale>
<asrwt>0</asrwt>
<pdfrwt beam="1">  1        1 0.54898756E-01 0.55272424E+03</pdfrwt>
<pdfrwt beam="2">  1       -1 0.13178401E+00 0.55272424E+03</pdfrwt>
<totfact> 0.35684412E+01</totfact>
</mgrwt>
</event>
<event>
 6    1  0.9022793E-004  0.4442728E+03  0.7818608E-02  0.1029444E+00
          1   -1    0    0  502    0  0.00000000000E+00  0.00000000000E+00  0.63051503085E+03  0.63051503085E+03  0.00000000000E+00 0.  1.
         -1   -1    0    0    0  501 -0.00000000000E+00 -0.00000000000E+00 -0.36822403641E+03  0.36822403641E+03  0.00000000000E+00 0. -1.
    9000007    2    1    2  502    0 -0.17768588273E+03 -0.76282835675E+02 -0.62170967941E+02  0.44858735276E+03  0.39996754851E+03 0.  0.
    9000005    1    3    3    0    0  0.22608028347E+02 -0.20489409052E+03 -0.33300488651E+02  0.20881243693E+03  0.99999687468E+00 0.  0.
          4    1    3    3  502    0 -0.20029391108E+03  0.12861125485E+03 -0.28870479290E+02  0.23977491583E+03  0.00000000000E+00 0.  1.
   -9000007    1    1    2    0  501  0.17768588273E+03  0.76282835675E+02  0.32446196237E+03  0.55015171450E+03  0.40000000000E+03 0.  1.
<mgrwt>
<rscale>  2 0.44427285E+03</rscale>
<asrwt>0</asrwt>
<pdfrwt beam="1">  1        1 0.97002313E-01 0.44427285E+03</pdfrwt>
<pdfrwt beam="2">  1       -1 0.56649852E-01 0.44427285E+03</pdfrwt>
<totfact> 0.10511673E+02</totfact>
</mgrwt>
</event>
<event>
 6    1  0.9022793E-004  0.4887759E+03  0.7818608E-02  0.1016751E+00
         -1   -1    0    0    0  501 -0.00000000000E+00  0.00000000000E+00  0.13788080803E+03  0.13788080803E+03  0.00000000000E+00 0. -1.
          1   -1    0    0  502    0  0.00000000000E+00 -0.00000000000E+00 -0.17340252395E+04  0.17340252395E+04  0.00000000000E+00 0.  1.
    9000007    2    1    2  502    0 -0.81745861566E+02  0.26885260325E+03 -0.82413627389E+03  0.95814420573E+03  0.39984448584E+03 0.  0.
    9000005    1    3    3    0    0 -0.62016206055E+02  0.35181706795E+03 -0.78862732749E+03  0.86576863004E+03  0.99999687468E+00 0.  0.
          4    1    3    3  502    0 -0.19729655511E+02 -0.82964464691E+02 -0.35508946405E+02  0.92375575683E+02  0.00000000000E+00 0.  1.
   -9000007    1    1    2    0  501  0.81745861566E+02 -0.26885260325E+03 -0.77200815759E+03  0.91376184181E+03  0.40000000000E+03 0.  1.
<mgrwt>
<rscale>  2 0.48877593E+03</rscale>
<asrwt>0</asrwt>
<pdfrwt beam="1">  1        1 0.26677310E+00 0.48877593E+03</pdfrwt>
<pdfrwt beam="2">  1       -1 0.21212433E-01 0.48877593E+03</pdfrwt>
<totfact> 0.88680951E+01</totfact>
</mgrwt>
</event>
<event>
 6    1  0.9022793E-004  0.5789891E+03  0.7818608E-02  0.9949982E-01
         -2   -1    0    0    0  501 -0.00000000000E+00  0.00000000000E+00  0.17225219624E+03  0.17225219624E+03  0.00000000000E+00 0.  1.
          2   -1    0    0  502    0  0.00000000000E+00 -0.00000000000E+00 -0.21027289528E+04  0.21027289528E+04  0.00000000000E+00 0. -1.
    9000007    2    1    2  502    0  0.41835835025E+03  0.17335347120E+02 -0.12755130035E+04  0.14007376239E+04  0.39976023482E+03 0.  0.
    9000005    1    3    3    0    0  0.27335122844E+03 -0.15312582479E+03 -0.47113023734E+03  0.56580306895E+03  0.99999687468E+00 0.  0.
          4    1    3    3  502    0  0.14500712181E+03  0.17046117191E+03 -0.80438276615E+03  0.83493455491E+03  0.00000000000E+00 0.  1.
   -9000007    1    1    2    0  501 -0.41835835025E+03 -0.17335347120E+02 -0.65496375307E+03  0.87424352518E+03  0.40000000000E+03 0.  1.
<mgrwt>
<rscale>  2 0.57898906E+03</rscale>
<asrwt>0</asrwt>
<pdfrwt beam="1">  1        2 0.32349677E+00 0.57898906E+03</pdfrwt>
<pdfrwt beam="2">  1       -2 0.26500337E-01 0.57898906E+03</pdfrwt>
<totfact> 0.79439338E+01</totfact>
</mgrwt>
</event>
<event>
 6    1  0.9022793E-004  0.7526730E+03  0.7818608E-02  0.9631166E-01
          2   -1    0    0  502    0  0.00000000000E+00  0.00000000000E+00  0.48652850428E+03  0.48652850428E+03  0.00000000000E+00 0. -1.
         -2   -1    0    0    0  501 -0.00000000000E+00 -0.00000000000E+00 -0.14810157807E+04  0.14810157807E+04  0.00000000000E+00 0.  1.
    9000007    2    1    2  502    0  0.21588961419E+03  0.59974951975E+03 -0.95217473754E+03  0.12138214162E+04  0.40052201899E+03 0.  0.
    9000005    1    3    3    0    0 -0.49756717593E+02 -0.61056907381E+00  0.82578217917E+01  0.50450920257E+02  0.99999687468E+00 0.  0.
          4    1    3    3  502    0  0.26564633178E+03  0.60036008882E+03 -0.96043255933E+03  0.11633704960E+04  0.00000000000E+00 0.  1.
   -9000007    1    1    2    0  501 -0.21588961419E+03 -0.59974951975E+03 -0.42312538866E+02  0.75372286876E+03  0.40000000000E+03 0. -1.
<mgrwt>
<rscale>  2 0.75267305E+03</rscale>
<asrwt>0</asrwt>
<pdfrwt beam="1">  1        2 0.74850538E-01 0.75267305E+03</pdfrwt>
<pdfrwt beam="2">  1       -2 0.22784858E+00 0.75267305E+03</pdfrwt>
<totfact> 0.57405609E+00</totfact>
</mgrwt>
</event>
<event>
 6    1  0.9022793E-004  0.4162016E+03  0.7818608E-02  0.1038310E+00
          2   -1    0    0  502    0  0.00000000000E+00  0.00000000000E+00  0.72393300494E+03  0.72393300494E+03  0.00000000000E+00 0. -1.
         -2   -1    0    0    0  501 -0.00000000000E+00 -0.00000000000E+00 -0.25473534536E+03  0.25473534536E+03  0.00000000000E+00 0.  1.
    9000007    2    1    2  502    0  0.52805072665E+02 -0.10339121883E+03  0.35496204027E+03  0.54677959547E+03  0.39936418988E+03 0.  0.
    9000005    1    3    3    0    0 -0.69884307032E+02  0.13125723433E+03  0.15641182308E+03  0.21581922140E+03  0.99999687468E+00 0.  0.
          4    1    3    3  502    0  0.12268937970E+03 -0.23464845316E+03  0.19855021719E+03  0.33096037407E+03  0.00000000000E+00 0.  1.
   -9000007    1    1    2    0  501 -0.52805072665E+02  0.10339121883E+03  0.11423561931E+03  0.43188875483E+03  0.40000000000E+03 0.  1.
<mgrwt>
<rscale>  2 0.41620165E+03</rscale>
<asrwt>0</asrwt>
<pdfrwt beam="1">  1        2 0.11137431E+00 0.41620165E+03</pdfrwt>
<pdfrwt beam="2">  1       -2 0.39190053E-01 0.41620165E+03</pdfrwt>
<totfact> 0.24838871E+02</totfact>
</mgrwt>
</event>
<event>
 6    1  0.9022793E-004  0.4190854E+03  0.7818608E-02  0.1037364E+00
         -2   -1    0    0    0  501 -0.00000000000E+00  0.00000000000E+00  0.15559219308E+03  0.15559219308E+03  0.00000000000E+00 0.  1.
          2   -1    0    0  502    0  0.00000000000E+00 -0.00000000000E+00 -0.11396220240E+04  0.11396220240E+04  0.00000000000E+00 0. -1.
    9000007    2    1    2  502    0 -0.99660286900E+02  0.74650660107E+02 -0.55529759645E+03  0.69578430232E+03  0.40031922373E+03 0.  0.
    9000005    1    3    3    0    0 -0.21562328807E+03  0.11175875320E+03 -0.51178389937E+03  0.56648669969E+03  0.99999687468E+00 0.  0.
          4    1    3    3  502    0  0.11596300117E+03 -0.37108093096E+02 -0.43513697085E+02  0.12929760263E+03  0.00000000000E+00 0.  1.
   -9000007    1    1    2    0  501  0.99660286900E+02 -0.74650660107E+02 -0.42873223449E+03  0.59942991477E+03  0.40000000000E+03 0.  1.
<mgrwt>
<rscale>  2 0.41908542E+03</rscale>
<asrwt>0</asrwt>
<pdfrwt beam="1">  1        2 0.17532646E+00 0.41908542E+03</pdfrwt>
<pdfrwt beam="2">  1       -2 0.23937261E-01 0.41908542E+03</pdfrwt>
<totfact> 0.32953195E+02</totfact>
</mgrwt>
</event>
<event>
 6    1  0.9022793E-004  0.6437296E+03  0.7818608E-02  0.9818617E-01
         -2   -1    0    0    0  501 -0.00000000000E+00  0.00000000000E+00  0.42137416009E+03  0.42137416009E+03  0.00000000000E+00 0.  1.
          2   -1    0    0  502    0  0.00000000000E+00 -0.00000000000E+00 -0.10157718805E+04  0.10157718805E+04  0.00000000000E+00 0. -1.
    9000007    2    1    2  502    0  0.36126126734E+03  0.35224287064E+03 -0.42537000754E+03  0.77144707641E+03  0.39950745323E+03 0.  0.
    9000005    1    3    3    0    0  0.25913556045E+03  0.42680799085E+03 -0.40594701619E+03  0.64351400893E+03  0.99999687468E+00 0.  0.
          4    1    3    3  502    0  0.10212570690E+03 -0.74565120209E+02 -0.19422991347E+02  0.12793306748E+03  0.00000000000E+00 0.  1.
   -9000007    1    1    2    0  501 -0.36126126734E+03 -0.35224287064E+03 -0.16902771286E+03  0.66569896418E+03  0.40000000000E+03 0.  1.
<mgrwt>
<rscale>  2 0.64372960E+03</rscale>
<asrwt>0</asrwt>
<pdfrwt beam="1">  1        2 0.15627259E+00 0.64372960E+03</pdfrwt>
<pdfrwt beam="2">  1       -2 0.64826795E-01 0.64372960E+03</pdfrwt>
<totfact> 0.55409933E+01</totfact>
</mgrwt>
</event>
<event>
 6    1  0.9022793E-004  0.4164989E+03  0.7818608E-02  0.1038212E+00
         -1   -1    0    0    0  501 -0.00000000000E+00  0.00000000000E+00  0.36894885309E+03  0.36894885309E+03  0.00000000000E+00 0.  1.
          1   -1    0    0  502    0  0.00000000000E+00 -0.00000000000E+00 -0.51364763539E+03  0.51364763539E+03  0.00000000000E+00 0. -1.
    9000007    2    1    2  502    0  0.10565315260E+03 -0.49448430059E+02 -0.20070312136E+03  0.46218690024E+03  0.39965891951E+03 0.  0.
    9000005    1    3    3    0    0 -0.94004000684E+02 -0.13649311040E+03 -0.17798102516E+03  0.24319820444E+03  0.99999687468E+00 0.  0.
          4    1    3    3  502    0  0.19965715329E+03  0.87044680343E+02 -0.22722096206E+02  0.21898869581E+03  0.00000000000E+00 0.  1.
   -9000007    1    1    2    0  501 -0.10565315260E+03  0.49448430059E+02  0.56004339065E+02  0.42040958824E+03  0.40000000000E+03 0.  1.
<mgrwt>
<rscale>  2 0.41649887E+03</rscale>
<asrwt>0</asrwt>
<pdfrwt beam="1">  1        1 0.79022713E-01 0.41649887E+03</pdfrwt>
<pdfrwt beam="2">  1       -1 0.56761362E-01 0.41649887E+03</pdfrwt>
<totfact> 0.13985454E+02</totfact>
</mgrwt>
</event>
<event>
 6    1  0.9022793E-004  0.4628929E+03  0.7818608E-02  0.1023946E+00
          2   -1    0    0  502    0  0.00000000000E+00  0.00000000000E+00  0.45903998876E+03  0.45903998876E+03  0.00000000000E+00 0.  1.
         -2   -1    0    0    0  501 -0.00000000000E+00 -0.00000000000E+00 -0.59935806153E+03  0.59935806153E+03  0.00000000000E+00 0. -1.
    9000007    2    1    2  502    0 -0.17443235724E+03  0.15487398590E+03 -0.31903502539E+03  0.56205910570E+03  0.39964295579E+03 0.  0.
    9000005    1    3    3    0    0  0.87410207893E+02  0.14794237646E+03 -0.22639767495E+03  0.28422596365E+03  0.99999687468E+00 0.  0.
          4    1    3    3  502    0 -0.26184256514E+03  0.69316094464E+01 -0.92637350446E+02  0.27783314206E+03  0.00000000000E+00 0.  1.
   -9000007    1    1    2    0  501  0.17443235724E+03 -0.15487398590E+03  0.17871695262E+03  0.49633894459E+03  0.40000000000E+03 0.  1.
<mgrwt>
<rscale>  2 0.46289286E+03</rscale>
<asrwt>0</asrwt>
<pdfrwt beam="1">  1        2 0.70621537E-01 0.46289286E+03</pdfrwt>
<pdfrwt beam="2">  1       -2 0.92208932E-01 0.46289286E+03</pdfrwt>
<totfact> 0.70131224E+01</totfact>
</mgrwt>
</event>
<event>
 6    1  0.9022793E-004  0.5023502E+03  0.7818608E-02  0.1013167E+00
          2   -1    0    0  502    0  0.00000000000E+00  0.00000000000E+00  0.65367062311E+03  0.65367062311E+03  0.00000000000E+00 0. -1.
         -2   -1    0    0    0  501 -0.00000000000E+00 -0.00000000000E+00 -0.60494493971E+03  0.60494493971E+03  0.00000000000E+00 0.  1.
    9000007    2    1    2  502    0 -0.38517385958E+02  0.30163136865E+03  0.40290105878E+03  0.64387556242E+03  0.39972666304E+03 0.  0.
    9000005    1    3    3    0    0  0.12931128991E+03  0.57689137167E+02  0.29767160542E+03  0.32963438976E+03  0.99999687468E+00 0.  0.
          4    1    3    3  502    0 -0.16782867586E+03  0.24394223148E+03  0.10522945335E+03  0.31424117266E+03  0.00000000000E+00 0.  1.
   -9000007    1    1    2    0  501  0.38517385958E+02 -0.30163136865E+03 -0.35417537538E+03  0.61474000040E+03  0.40000000000E+03 0.  1.
<mgrwt>
<rscale>  2 0.50235023E+03</rscale>
<asrwt>0</asrwt>
<pdfrwt beam="1">  1        2 0.10056471E+00 0.50235023E+03</pdfrwt>
<pdfrwt beam="2">  1       -2 0.93068452E-01 0.50235023E+03</pdfrwt>
<totfact> 0.45224230E+01</totfact>
</mgrwt>
</event>
<event>
 6    1  0.9022793E-004  0.4079320E+03  0.7818608E-02  0.1041067E+00
          2   -1    0    0  502    0  0.00000000000E+00  0.00000000000E+00  0.19641132487E+03  0.19641132487E+03  0.00000000000E+00 0.  1.
         -2   -1    0    0    0  501 -0.00000000000E+00 -0.00000000000E+00 -0.96581838771E+03  0.96581838771E+03  0.00000000000E+00 0. -1.
    9000007    2    1    2  502    0 -0.73810133203E+01  0.80577652063E+02 -0.18094913714E+03  0.44610823708E+03  0.39965326420E+03 0.  0.
    9000005    1    3    3    0    0 -0.14854765505E+02  0.22722273212E+03 -0.19338562463E+03  0.29874710686E+03  0.99999687468E+00 0.  0.
          4    1    3    3  502    0  0.74737521843E+01 -0.14664508006E+03  0.12436487490E+02  0.14736113021E+03  0.00000000000E+00 0.  1.
   -9000007    1    1    2    0  501  0.73810133203E+01 -0.80577652063E+02 -0.58845792569E+03  0.71612147550E+03  0.40000000000E+03 0. -1.
<mgrwt>
<rscale>  2 0.40793204E+03</rscale>
<asrwt>0</asrwt>
<pdfrwt beam="1">  1        2 0.30217127E-01 0.40793204E+03</pdfrwt>
<pdfrwt beam="2">  1       -2 0.14858744E+00 0.40793204E+03</pdfrwt>
<totfact> 0.56104827E+01</totfact>
</mgrwt>
</event>
<event>
 6    1  0.9022793E-004  0.5136241E+03  0.7818608E-02  0.1010283E+00
         -1   -1    0    0    0  501 -0.00000000000E+00  0.00000000000E+00  0.17331524182E+03  0.17331524182E+03  0.00000000000E+00 0.  1.
          1   -1    0    0  502    0  0.00000000000E+00 -0.00000000000E+00 -0.20237746284E+04  0.20237746284E+04  0.00000000000E+00 0. -1.
    9000007    2    1    2  502    0 -0.36860891896E+01  0.32375813098E+03 -0.37695726428E+03  0.63630756026E+03  0.39743882237E+03 0.  0.
    9000005    1    3    3    0    0  0.16564843972E+03  0.28821453227E+03 -0.29669322869E+03  0.44557254644E+03  0.99999687468E+00 0.  0.
          4    1    3    3  502    0 -0.16933452891E+03  0.35543598704E+02 -0.80264035590E+02  0.19073501383E+03  0.00000000000E+00 0.  1.
   -9000007    1    1    2    0  501  0.36860891896E+01 -0.32375813098E+03 -0.14735021223E+04  0.15607823099E+04  0.40000000000E+03 0. -1.
<mgrwt>
<rscale>  2 0.51362413E+03</rscale>
<asrwt>0</asrwt>
<pdfrwt beam="1">  1        1 0.31134991E+00 0.51362413E+03</pdfrwt>
<pdfrwt beam="2">  1       -1 0.26663886E-01 0.51362413E+03</pdfrwt>
<totfact> 0.38637636E+01</totfact>
</mgrwt>
</event>
<event>
 6    1  0.9022793E-004  0.4476714E+03  0.7818608E-02  0.1028419E+00
         -2   -1    0    0    0  501 -0.00000000000E+00  0.00000000000E+00  0.90629655395E+02  0.90629655395E+02  0.00000000000E+00 0. -1.
          2   -1    0    0  502    0  0.00000000000E+00 -0.00000000000E+00 -0.25483110521E+04  0.25483110521E+04  0.00000000000E+00 0.  1.
    9000007    2    1    2  502    0 -0.89592164078E+02 -0.17993311223E+03 -0.74902281793E+03  0.87261208021E+03  0.40001747463E+03 0.  0.
    9000005    1    3    3    0    0  0.27578031550E+02 -0.12364250690E+03 -0.15464269502E+02  0.12762507968E+03  0.99999687468E+00 0.  0.
          4    1    3    3  502    0 -0.11717019563E+03 -0.56290605329E+02 -0.73355854843E+03  0.74498700053E+03  0.00000000000E+00 0.  1.
   -9000007    1    1    2    0  501  0.89592164078E+02  0.17993311223E+03 -0.17086585787E+04  0.17663286273E+04  0.40000000000E+03 0.  1.
<mgrwt>
<rscale>  2 0.44767139E+03</rscale>
<asrwt>0</asrwt>
<pdfrwt beam="1">  1        2 0.39204778E+00 0.44767139E+03</pdfrwt>
<pdfrwt beam="2">  1       -2 0.13943026E-01 0.44767139E+03</pdfrwt>
<totfact> 0.14035612E+02</totfact>
</mgrwt>
</event>
<event>
 6    1  0.9022793E-004  0.4558856E+03  0.7818608E-02  0.1025981E+00
          2   -1    0    0  502    0  0.00000000000E+00  0.00000000000E+00  0.65079425354E+03  0.65079425354E+03  0.00000000000E+00 0.  1.
         -2   -1    0    0    0  501 -0.00000000000E+00 -0.00000000000E+00 -0.33011563267E+03  0.33011563267E+03  0.00000000000E+00 0. -1.
    9000007    2    1    2  502    0  0.19311157625E+03 -0.10119753262E+03  0.71885282936E+02  0.46184231210E+03  0.40074656063E+03 0.  0.
    9000005    1    3    3    0    0  0.63723910184E+02 -0.45343988272E+02 -0.16704292176E+03  0.18444823584E+03  0.99999687468E+00 0.  0.
          4    1    3    3  502    0  0.12938766607E+03 -0.55853544351E+02  0.23892820469E+03  0.27739407626E+03  0.00000000000E+00 0.  1.
   -9000007    1    1    2    0  501 -0.19311157625E+03  0.10119753262E+03  0.24879333793E+03  0.51906757411E+03  0.40000000000E+03 0.  1.
<mgrwt>
<rscale>  2 0.45588563E+03</rscale>
<asrwt>0</asrwt>
<pdfrwt beam="1">  1        2 0.10012219E+00 0.45588563E+03</pdfrwt>
<pdfrwt beam="2">  1       -2 0.50787021E-01 0.45588563E+03</pdfrwt>
<totfact> 0.16927325E+02</totfact>
</mgrwt>
</event>
<event>
 6    1  0.9022793E-004  0.4585870E+03  0.7818608E-02  0.1025192E+00
         -3   -1    0    0    0  501 -0.00000000000E+00  0.00000000000E+00  0.72902950722E+03  0.72902950722E+03  0.00000000000E+00 0.  1.
          3   -1    0    0  502    0  0.00000000000E+00 -0.00000000000E+00 -0.34695474892E+03  0.34695474892E+03  0.00000000000E+00 0. -1.
    9000007    2    1    2  502    0 -0.21782597983E+03  0.54274884983E+02  0.41188773775E+03  0.61632923945E+03  0.39977031188E+03 0.  0.
    9000005    1    3    3    0    0 -0.33280871922E+03  0.61510952176E+02  0.26619425245E+03  0.43058752984E+03  0.99999687468E+00 0.  0.
          4    1    3    3  502    0  0.11498273939E+03 -0.72360671930E+01  0.14569348530E+03  0.18574170960E+03  0.00000000000E+00 0.  1.
   -9000007    1    1    2    0  501  0.21782597983E+03 -0.54274884983E+02 -0.29812979442E+02  0.45965501669E+03  0.40000000000E+03 0. -1.
<mgrwt>
<rscale>  2 0.45858702E+03</rscale>
<asrwt>0</asrwt>
<pdfrwt beam="1">  1        3 0.53377654E-01 0.45858702E+03</pdfrwt>
<pdfrwt beam="2">  1       -3 0.11215839E+00 0.45858702E+03</pdfrwt>
<totfact> 0.60288891E+00</totfact>
</mgrwt>
</event>
<event>
 6    1  0.9022793E-004  0.6497230E+03  0.7818608E-02  0.9807299E-01
         -1   -1    0    0    0  501 -0.00000000000E+00  0.00000000000E+00  0.68377702797E+03  0.68377702797E+03  0.00000000000E+00 0. -1.
          1   -1    0    0  502    0  0.00000000000E+00 -0.00000000000E+00 -0.65758043706E+03  0.65758043706E+03  0.00000000000E+00 0.  1.
    9000007    2    1    2  502    0 -0.49670802195E+03 -0.12449939915E+03 -0.15276102716E+03  0.66738061934E+03  0.39980245145E+03 0.  0.
    9000005    1    3    3    0    0 -0.21227077938E+03 -0.23069198761E+03  0.26809433911E+02  0.31463855877E+03  0.99999687468E+00 0.  0.
          4    1    3    3  502    0 -0.28443724257E+03  0.10619258846E+03 -0.17957046107E+03  0.35274206057E+03  0.00000000000E+00 0.  1.
   -9000007    1    1    2    0  501  0.49670802195E+03  0.12449939915E+03  0.17895761806E+03  0.67397684569E+03  0.40000000000E+03 0. -1.
<mgrwt>
<rscale>  2 0.64972298E+03</rscale>
<asrwt>0</asrwt>
<pdfrwt beam="1">  1        1 0.10116622E+00 0.64972298E+03</pdfrwt>
<pdfrwt beam="2">  1       -1 0.10519647E+00 0.64972298E+03</pdfrwt>
<totfact> 0.26315057E+01</totfact>
</mgrwt>
</event>
<event>
 6    1  0.9022793E-004  0.5124583E+03  0.7818608E-02  0.1010577E+00
         -2   -1    0    0    0  501 -0.00000000000E+00  0.00000000000E+00  0.41210010111E+03  0.41210010111E+03  0.00000000000E+00 0.  1.
          2   -1    0    0  502    0  0.00000000000E+00 -0.00000000000E+00 -0.71447822755E+03  0.71447822755E+03  0.00000000000E+00 0. -1.
    9000007    2    1    2  502    0  0.25911291576E+01  0.32043180450E+03  0.34014129761E+02  0.51351796841E+03  0.39982557143E+03 0.  0.
    9000005    1    3    3    0    0 -0.12508811295E+03  0.28539126607E+03 -0.97899166887E+02  0.32661974469E+03  0.99999687468E+00 0.  0.
          4    1    3    3  502    0  0.12767924211E+03  0.35040538436E+02  0.13191329665E+03  0.18689822372E+03  0.00000000000E+00 0.  1.
   -9000007    1    1    2    0  501 -0.25911291576E+01 -0.32043180450E+03 -0.33639225620E+03  0.61306036026E+03  0.40000000000E+03 0. -1.
<mgrwt>
<rscale>  2 0.51245828E+03</rscale>
<asrwt>0</asrwt>
<pdfrwt beam="1">  1        2 0.10991973E+00 0.51245828E+03</pdfrwt>
<pdfrwt beam="2">  1       -2 0.63400016E-01 0.51245828E+03</pdfrwt>
<totfact> 0.94745909E+01</totfact>
</mgrwt>
</event>
<event>
 6    1  0.9022793E-004  0.4324867E+03  0.7818608E-02  0.1033077E+00
         -1   -1    0    0    0  501 -0.00000000000E+00  0.00000000000E+00  0.16008657283E+03  0.16008657283E+03  0.00000000000E+00 0. -1.
          1   -1    0    0  502    0  0.00000000000E+00 -0.00000000000E+00 -0.13886486082E+04  0.13886486082E+04  0.00000000000E+00 0.  1.
    9000007    2    1    2  502    0 -0.26256341929E+02  0.15514768936E+03 -0.92581816526E+03  0.10229842401E+04  0.40570590256E+03 0.  0.
    9000005    1    3    3    0    0  0.17836354826E+03  0.14367033587E+03 -0.52602930112E+03  0.57372689181E+03  0.99999687468E+00 0.  0.
          4    1    3    3  502    0 -0.20461989019E+03  0.11477353492E+02 -0.39978886414E+03  0.44925734830E+03  0.00000000000E+00 0.  1.
   -9000007    1    1    2    0  501  0.26256341929E+02 -0.15514768936E+03 -0.30274387012E+03  0.52575094094E+03  0.40000000000E+03 0. -1.
<mgrwt>
<rscale>  2 0.43248667E+03</rscale>
<asrwt>0</asrwt>
<pdfrwt beam="1">  1        1 0.21363825E+00 0.43248667E+03</pdfrwt>
<pdfrwt beam="2">  1       -1 0.24628703E-01 0.43248667E+03</pdfrwt>
<totfact> 0.11888132E+02</totfact>
</mgrwt>
</event>
<event>
 6    1  0.9022793E-004  0.4654735E+03  0.7818608E-02  0.1023206E+00
          2   -1    0    0  502    0  0.00000000000E+00  0.00000000000E+00  0.21350487211E+04  0.21350487211E+04  0.00000000000E+00 0. -1.
         -2   -1    0    0    0  501 -0.00000000000E+00 -0.00000000000E+00 -0.13358927727E+03  0.13358927727E+03  0.00000000000E+00 0.  1.
    9000007    2    1    2  502    0 -0.20664255469E+03 -0.12968264520E+03  0.15518219735E+04  0.16192593811E+04  0.39284955381E+03 0.  0.
    9000005    1    3    3    0    0 -0.19687374167E+03 -0.37415855661E+02  0.14993177591E+04  0.15126513012E+04  0.99999687468E+00 0.  0.
          4    1    3    3  502    0 -0.97688130231E+01 -0.92266789540E+02  0.52504214421E+02  0.10660807986E+03  0.00000000000E+00 0.  1.
   -9000007    1    1    2    0  501  0.20664255469E+03  0.12968264520E+03  0.44963747037E+03  0.64937861733E+03  0.40000000000E+03 0.  1.
<mgrwt>
<rscale>  2 0.46547350E+03</rscale>
<asrwt>0</asrwt>
<pdfrwt beam="1">  1        2 0.32846901E+00 0.46547350E+03</pdfrwt>
<pdfrwt beam="2">  1       -2 0.20552198E-01 0.46547350E+03</pdfrwt>
<totfact> 0.12200202E+02</totfact>
</mgrwt>
</event>
<event>
 6    1  0.9022793E-004  0.4006539E+03  0.7818608E-02  0.1043553E+00
          1   -1    0    0  502    0  0.00000000000E+00  0.00000000000E+00  0.33045372511E+03  0.33045372511E+03  0.00000000000E+00 0.  1.
         -1   -1    0    0    0  501 -0.00000000000E+00 -0.00000000000E+00 -0.62740745719E+03  0.62740745719E+03  0.00000000000E+00 0. -1.
    9000007    2    1    2  502    0 -0.80203980042E+01  0.15414226879E+02  0.79001018687E+02  0.40864000664E+03  0.40055407737E+03 0.  0.
    9000005    1    3    3    0    0 -0.10005472258E+02 -0.16805651680E+03 -0.59704175386E+02  0.17863003910E+03  0.99999687468E+00 0.  0.
          4    1    3    3  502    0  0.19850742537E+01  0.18347074368E+03  0.13870519407E+03  0.23000996754E+03  0.00000000000E+00 0.  1.
   -9000007    1    1    2    0  501  0.80203980042E+01 -0.15414226879E+02 -0.37595475076E+03  0.54922117566E+03  0.40000000000E+03 0. -1.
<mgrwt>
<rscale>  2 0.40065391E+03</rscale>
<asrwt>0</asrwt>
<pdfrwt beam="1">  1        1 0.50839035E-01 0.40065391E+03</pdfrwt>
<pdfrwt beam="2">  1       -1 0.96524224E-01 0.40065391E+03</pdfrwt>
<totfact> 0.83787454E+01</totfact>
</mgrwt>
</event>
<event>
 6    1  0.9022793E-004  0.5706766E+03  0.7818608E-02  0.9968182E-01
         -2   -1    0    0    0  501 -0.00000000000E+00  0.00000000000E+00  0.63108616731E+03  0.63108616731E+03  0.00000000000E+00 0. -1.
          2   -1    0    0  502    0  0.00000000000E+00 -0.00000000000E+00 -0.57399671750E+03  0.57399671750E+03  0.00000000000E+00 0.  1.
    9000007    2    1    2  502    0  0.25288554204E+03  0.31903379990E+03 -0.16290432732E+03  0.59342045762E+03  0.39984541614E+03 0.  0.
    9000005    1    3    3    0    0  0.74644952507E+02  0.23241543485E+03  0.10033400600E+03  0.26392558808E+03  0.99999687468E+00 0.  0.
          4    1    3    3  502    0  0.17824058953E+03  0.86618365054E+02 -0.26323833332E+03  0.32949486954E+03  0.00000000000E+00 0.  1.
   -9000007    1    1    2    0  501 -0.25288554204E+03 -0.31903379990E+03  0.21999377713E+03  0.61166242718E+03  0.40000000000E+03 0.  1.
<mgrwt>
<rscale>  2 0.57067665E+03</rscale>
<asrwt>0</asrwt>
<pdfrwt beam="1">  1        2 0.88307187E-01 0.57067665E+03</pdfrwt>
<pdfrwt beam="2">  1       -2 0.97090180E-01 0.57067665E+03</pdfrwt>
<totfact> 0.47584281E+01</totfact>
</mgrwt>
</event>
<event>
 6    1  0.9022793E-004  0.6712741E+03  0.7818608E-02  0.9767659E-01
         -1   -1    0    0    0  501 -0.00000000000E+00  0.00000000000E+00  0.93095590271E+03  0.93095590271E+03  0.00000000000E+00 0.  1.
          1   -1    0    0  502    0  0.00000000000E+00 -0.00000000000E+00 -0.85616942856E+03  0.85616942856E+03  0.00000000000E+00 0. -1.
    9000007    2    1    2  502    0  0.53567431190E+03 -0.60123109540E+02  0.62650799303E+03  0.91824191497E+03  0.40011772313E+03 0.  0.
    9000005    1    3    3    0    0 -0.15476520059E+02 -0.76412994613E+02 -0.71152027135E+01  0.78294920157E+02  0.99999687468E+00 0.  0.
          4    1    3    3  502    0  0.55115083196E+03  0.16289885073E+02  0.63362319574E+03  0.83994699482E+03  0.00000000000E+00 0.  1.
   -9000007    1    1    2    0  501 -0.53567431190E+03  0.60123109540E+02 -0.55172151888E+03  0.86888341630E+03  0.40000000000E+03 0. -1.
<mgrwt>
<rscale>  2 0.67127405E+03</rscale>
<asrwt>0</asrwt>
<pdfrwt beam="1">  1        1 0.13171837E+00 0.67127405E+03</pdfrwt>
<pdfrwt beam="2">  1       -1 0.14322399E+00 0.67127405E+03</pdfrwt>
<totfact> 0.81627268E+00</totfact>
</mgrwt>
</event>
<event>
 6    1  0.9022793E-004  0.4211012E+03  0.7818608E-02  0.1036708E+00
          1   -1    0    0  502    0  0.00000000000E+00  0.00000000000E+00  0.19672413665E+04  0.19672413665E+04  0.00000000000E+00 0.  1.
         -1   -1    0    0    0  501 -0.00000000000E+00 -0.00000000000E+00 -0.17066603426E+03  0.17066603426E+03  0.00000000000E+00 0. -1.
    9000007    2    1    2  502    0 -0.45373455710E+01 -0.13146656537E+03  0.16404912221E+03  0.45195192337E+03  0.40005547268E+03 0.  0.
    9000005    1    3    3    0    0  0.82426202315E+02 -0.21832353578E+03  0.21649148420E+03  0.31832186200E+03  0.99999687468E+00 0.  0.
          4    1    3    3  502    0 -0.86963547886E+02  0.86856970408E+02 -0.52442361991E+02  0.13363006137E+03  0.00000000000E+00 0.  1.
   -9000007    1    1    2    0  501  0.45373455710E+01  0.13146656537E+03  0.16325262101E+04  0.16859554774E+04  0.40000000000E+03 0.  1.
<mgrwt>
<rscale>  2 0.42110122E+03</rscale>
<asrwt>0</asrwt>
<pdfrwt beam="1">  1        1 0.30265250E+00 0.42110122E+03</pdfrwt>
<pdfrwt beam="2">  1       -1 0.26256314E-01 0.42110122E+03</pdfrwt>
<totfact> 0.44033935E+01</totfact>
</mgrwt>
</event>
<event>
 6    1  0.9022793E-004  0.5412827E+03  0.7818608E-02  0.1003532E+00
          1   -1    0    0  502    0  0.00000000000E+00  0.00000000000E+00  0.55802878921E+03  0.55802878921E+03  0.00000000000E+00 0.  1.
         -1   -1    0    0    0  501 -0.00000000000E+00 -0.00000000000E+00 -0.56346950461E+03  0.56346950461E+03  0.00000000000E+00 0. -1.
    9000007    2    1    2  502    0 -0.36207356233E+03  0.52704074517E+02 -0.14915770832E+03  0.56066894539E+03  0.39777714913E+03 0.  0.
    9000005    1    3    3    0    0 -0.59351740900E+02 -0.15628643578E+03 -0.83967581994E+02  0.18708189110E+03  0.99999687468E+00 0.  0.
          4    1    3    3  502    0 -0.30272182143E+03  0.20899051030E+03 -0.65190126322E+02  0.37358705429E+03  0.00000000000E+00 0.  1.
   -9000007    1    1    2    0  501  0.36207356233E+03 -0.52704074517E+02  0.14371699292E+03  0.56082934843E+03  0.40000000000E+03 0.  1.
<mgrwt>
<rscale>  2 0.54128271E+03</rscale>
<asrwt>0</asrwt>
<pdfrwt beam="1">  1        1 0.85850582E-01 0.54128271E+03</pdfrwt>
<pdfrwt beam="2">  1       -1 0.86687617E-01 0.54128271E+03</pdfrwt>
<totfact> 0.51993945E+01</totfact>
</mgrwt>
</event>
<event>
 6    1  0.9022793E-004  0.4281957E+03  0.7818608E-02  0.1034431E+00
         -2   -1    0    0    0  501 -0.00000000000E+00  0.00000000000E+00  0.25170552915E+03  0.25170552915E+03  0.00000000000E+00 0.  1.
          2   -1    0    0  502    0  0.00000000000E+00 -0.00000000000E+00 -0.72925429563E+03  0.72925429563E+03  0.00000000000E+00 0. -1.
    9000007    2    1    2  502    0 -0.14439590356E+03 -0.37843723182E+02 -0.22311270246E+03  0.48394872327E+03  0.40267203082E+03 0.  0.
    9000005    1    3    3    0    0  0.67443600246E+02 -0.19605102953E+02  0.84576470049E+02  0.10994170526E+03  0.99999687468E+00 0.  0.
          4    1    3    3  502    0 -0.21183950380E+03 -0.18238620229E+02 -0.30768917251E+03  0.37400701801E+03  0.00000000000E+00 0.  1.
   -9000007    1    1    2    0  501  0.14439590356E+03  0.37843723182E+02 -0.25443606401E+03  0.49701110150E+03  0.40000000000E+03 0.  1.
<mgrwt>
<rscale>  2 0.42819572E+03</rscale>
<asrwt>0</asrwt>
<pdfrwt beam="1">  1        2 0.11219297E+00 0.42819572E+03</pdfrwt>
<pdfrwt beam="2">  1       -2 0.38723928E-01 0.42819572E+03</pdfrwt>
<totfact> 0.25162008E+02</totfact>
</mgrwt>
</event>
<event>
 6    1  0.9022793E-004  0.4108666E+03  0.7818608E-02  0.1040081E+00
         -1   -1    0    0    0  501 -0.00000000000E+00  0.00000000000E+00  0.14460526011E+04  0.14460526011E+04  0.00000000000E+00 0.  1.
          1   -1    0    0  502    0  0.00000000000E+00 -0.00000000000E+00 -0.12114275669E+03  0.12114275669E+03  0.00000000000E+00 0. -1.
    9000007    2    1    2  502    0 -0.73416526421E+02 -0.55296095685E+02  0.81253555745E+03  0.91070845426E+03  0.40090923161E+03 0.  0.
    9000005    1    3    3    0    0 -0.20528522579E+03  0.17143271858E+02  0.22870629620E+03  0.30780429759E+03  0.99999687468E+00 0.  0.
          4    1    3    3  502    0  0.13186869937E+03 -0.72439367543E+02  0.58382926125E+03  0.60290415667E+03  0.00000000000E+00 0.  1.
   -9000007    1    1    2    0  501  0.73416526421E+02  0.55296095685E+02  0.51237428692E+03  0.65648690349E+03  0.40000000000E+03 0. -1.
<mgrwt>
<rscale>  2 0.41086659E+03</rscale>
<asrwt>0</asrwt>
<pdfrwt beam="1">  1        1 0.18637348E-01 0.41086659E+03</pdfrwt>
<pdfrwt beam="2">  1       -1 0.22246962E+00 0.41086659E+03</pdfrwt>
<totfact> 0.32582215E+01</totfact>
</mgrwt>
</event>
<event>
 6    1  0.9022793E-004  0.4870977E+03  0.7818608E-02  0.1017203E+00
          2   -1    0    0  502    0  0.00000000000E+00  0.00000000000E+00  0.99941444619E+03  0.99941444619E+03  0.00000000000E+00 0. -1.
         -2   -1    0    0    0  501 -0.00000000000E+00 -0.00000000000E+00 -0.44090920489E+03  0.44090920489E+03  0.00000000000E+00 0.  1.
    9000007    2    1    2  502    0 -0.10188430949E+03  0.25920986117E+03 -0.21010902767E+03  0.53019285877E+03  0.39923489243E+03 0.  0.
    9000005    1    3    3    0    0  0.81042618835E+02 -0.58559559216E+02  0.13238801606E+02  0.10086324358E+03  0.99999687468E+00 0.  0.
          4    1    3    3  502    0 -0.18292692833E+03  0.31776942039E+03 -0.22334782927E+03  0.42932961519E+03  0.00000000000E+00 0.  1.
   -9000007    1    1    2    0  501  0.10188430949E+03 -0.25920986117E+03  0.76861426897E+03  0.91013079231E+03  0.40000000000E+03 0. -1.
<mgrwt>
<rscale>  2 0.48709775E+03</rscale>
<asrwt>0</asrwt>
<pdfrwt beam="1">  1        2 0.15375607E+00 0.48709775E+03</pdfrwt>
<pdfrwt beam="2">  1       -2 0.67832186E-01 0.48709775E+03</pdfrwt>
<totfact> 0.52409586E+01</totfact>
</mgrwt>
</event>
<event>
 6    1  0.9022793E-004  0.7694195E+03  0.7818608E-02  0.9605367E-01
          1   -1    0    0  502    0  0.00000000000E+00  0.00000000000E+00  0.25482066205E+04  0.25482066205E+04  0.00000000000E+00 0.  1.
         -1   -1    0    0    0  501 -0.00000000000E+00 -0.00000000000E+00 -0.23318717492E+03  0.23318717492E+03  0.00000000000E+00 0. -1.
    9000007    2    1    2  502    0  0.60316563123E+03  0.26113477489E+03  0.12421889819E+04  0.14611796638E+04  0.40001549223E+03 0.  0.
    9000005    1    3    3    0    0  0.38785215772E+03  0.63695339253E+02  0.36412212306E+03  0.53579129610E+03  0.99999687468E+00 0.  0.
          4    1    3    3  502    0  0.21531347351E+03  0.19743943564E+03  0.87806685880E+03  0.92538836774E+03  0.00000000000E+00 0.  1.
   -9000007    1    1    2    0  501 -0.60316563123E+03 -0.26113477489E+03  0.10728304637E+04  0.13202141316E+04  0.40000000000E+03 0. -1.
<mgrwt>
<rscale>  2 0.76941949E+03</rscale>
<asrwt>0</asrwt>
<pdfrwt beam="1">  1        1 0.39203177E+00 0.76941949E+03</pdfrwt>
<pdfrwt beam="2">  1       -1 0.35874952E-01 0.76941949E+03</pdfrwt>
<totfact> 0.97843530E+00</totfact>
</mgrwt>
</event>
<event>
 6    1  0.9022793E-004  0.4387510E+03  0.7818608E-02  0.1031131E+00
         -2   -1    0    0    0  501 -0.00000000000E+00  0.00000000000E+00  0.55022640846E+03  0.55022640846E+03  0.00000000000E+00 0. -1.
          2   -1    0    0  502    0  0.00000000000E+00 -0.00000000000E+00 -0.36693056017E+03  0.36693056017E+03  0.00000000000E+00 0.  1.
    9000007    2    1    2  502    0  0.17573043076E+03  0.21763046959E+02 -0.69915894774E+01  0.44012015299E+03  0.40286728862E+03 0.  0.
    9000005    1    3    3    0    0 -0.11070645354E+03 -0.42463943547E+02  0.68606678140E+02  0.13699263351E+03  0.99999687468E+00 0.  0.
          4    1    3    3  502    0  0.28643688430E+03  0.64226990505E+02 -0.75598267617E+02  0.30312751948E+03  0.00000000000E+00 0.  1.
   -9000007    1    1    2    0  501 -0.17573043076E+03 -0.21763046959E+02  0.19028743777E+03  0.47703681564E+03  0.40000000000E+03 0.  1.
<mgrwt>
<rscale>  2 0.43875095E+03</rscale>
<asrwt>0</asrwt>
<pdfrwt beam="1">  1        2 0.56450856E-01 0.43875095E+03</pdfrwt>
<pdfrwt beam="2">  1       -2 0.84650216E-01 0.43875095E+03</pdfrwt>
<totfact> 0.10961761E+02</totfact>
</mgrwt>
</event>
<event>
 6    1  0.9022793E-004  0.5711851E+03  0.7818608E-02  0.9967060E-01
         -2   -1    0    0    0  501 -0.00000000000E+00  0.00000000000E+00  0.11538142448E+03  0.11538142448E+03  0.00000000000E+00 0. -1.
          2   -1    0    0  502    0  0.00000000000E+00 -0.00000000000E+00 -0.31074548106E+04  0.31074548106E+04  0.00000000000E+00 0.  1.
    9000007    2    1    2  502    0  0.39941989601E+03  0.82457219197E+02 -0.19794485716E+04  0.20601907769E+04  0.39979237548E+03 0.  0.
    9000005    1    3    3    0    0  0.28919639124E+03 -0.14113260713E+03 -0.11045418742E+04  0.11504636967E+04  0.99999687468E+00 0.  0.
          4    1    3    3  502    0  0.11022350477E+03  0.22358982632E+03 -0.87490669736E+03  0.90972708024E+03  0.00000000000E+00 0.  1.
   -9000007    1    1    2    0  501 -0.39941989601E+03 -0.82457219197E+02 -0.10126248146E+04  0.11626454582E+04  0.40000000000E+03 0.  1.
<mgrwt>
<rscale>  2 0.57118509E+03</rscale>
<asrwt>0</asrwt>
<pdfrwt beam="1">  1        2 0.47806990E+00 0.57118509E+03</pdfrwt>
<pdfrwt beam="2">  1       -2 0.17750991E-01 0.57118509E+03</pdfrwt>
<totfact> 0.42743522E+01</totfact>
</mgrwt>
</event>
<event>
 6    1  0.9022793E-004  0.6157163E+03  0.7818608E-02  0.9873326E-01
         -2   -1    0    0    0  501 -0.00000000000E+00  0.00000000000E+00  0.66674633242E+03  0.66674633242E+03  0.00000000000E+00 0. -1.
          2   -1    0    0  502    0  0.00000000000E+00 -0.00000000000E+00 -0.70810215570E+03  0.70810215570E+03  0.00000000000E+00 0.  1.
    9000007    2    1    2  502    0  0.30852490648E+03  0.35196894396E+03 -0.32580533585E+03  0.69662929006E+03  0.40009185879E+03 0.  0.
    9000005    1    3    3    0    0  0.44863951023E+02 -0.30718618868E+02 -0.21105590435E+03  0.21794954095E+03  0.99999687468E+00 0.  0.
          4    1    3    3  502    0  0.26366095545E+03  0.38268756282E+03 -0.11474943150E+03  0.47867974910E+03  0.00000000000E+00 0.  1.
   -9000007    1    1    2    0  501 -0.30852490648E+03 -0.35196894396E+03  0.28444951256E+03  0.67821919807E+03  0.40000000000E+03 0. -1.
<mgrwt>
<rscale>  2 0.61571625E+03</rscale>
<asrwt>0</asrwt>
<pdfrwt beam="1">  1        2 0.10893879E+00 0.61571625E+03</pdfrwt>
<pdfrwt beam="2">  1       -2 0.10257636E+00 0.61571625E+03</pdfrwt>
<totfact> 0.32210063E+01</totfact>
</mgrwt>
</event>
<event>
 6    1  0.9022793E-004  0.4317299E+03  0.7818608E-02  0.1033315E+00
          2   -1    0    0  502    0  0.00000000000E+00  0.00000000000E+00  0.94665317681E+03  0.94665317681E+03  0.00000000000E+00 0.  1.
         -2   -1    0    0    0  501 -0.00000000000E+00 -0.00000000000E+00 -0.21046308262E+03  0.21046308262E+03  0.00000000000E+00 0. -1.
    9000007    2    1    2  502    0 -0.15964033531E+03  0.32588866887E+02  0.22104864243E+03  0.48486795245E+03  0.39960900653E+03 0.  0.
    9000005    1    3    3    0    0 -0.29402143102E+03  0.27514810607E+02  0.17186814648E+03  0.34168015229E+03  0.99999687468E+00 0.  0.
          4    1    3    3  502    0  0.13438109572E+03  0.50740562804E+01  0.49180495947E+02  0.14318780016E+03  0.00000000000E+00 0.  1.
   -9000007    1    1    2    0  501  0.15964033531E+03 -0.32588866887E+02  0.51514145177E+03  0.67224830698E+03  0.40000000000E+03 0.  1.
<mgrwt>
<rscale>  2 0.43172987E+03</rscale>
<asrwt>0</asrwt>
<pdfrwt beam="1">  1        2 0.14563895E+00 0.43172987E+03</pdfrwt>
<pdfrwt beam="2">  1       -2 0.32378936E-01 0.43172987E+03</pdfrwt>
<totfact> 0.24981931E+02</totfact>
</mgrwt>
</event>
<event>
 6    1  0.9022793E-004  0.4809457E+03  0.7818608E-02  0.1018876E+00
          2   -1    0    0  502    0  0.00000000000E+00  0.00000000000E+00  0.18617705965E+04  0.18617705965E+04  0.00000000000E+00 0. -1.
         -2   -1    0    0    0  501 -0.00000000000E+00 -0.00000000000E+00 -0.23256898768E+03  0.23256898768E+03  0.00000000000E+00 0.  1.
    9000007    2    1    2  502    0 -0.42470350940E+02  0.26455236725E+03  0.15288253126E+04  0.16025397402E+04  0.39879204671E+03 0.  0.
    9000005    1    3    3    0    0  0.89784041270E+02  0.20656851169E+03  0.13679063840E+04  0.13863262962E+04  0.99999687468E+00 0.  0.
          4    1    3    3  502    0 -0.13225439221E+03  0.57983855559E+02  0.16091892861E+03  0.21621344396E+03  0.00000000000E+00 0.  1.
   -9000007    1    1    2    0  501  0.42470350940E+02 -0.26455236725E+03  0.10037629616E+03  0.49179984400E+03  0.40000000000E+03 0.  1.
<mgrwt>
<rscale>  2 0.48094566E+03</rscale>
<asrwt>0</asrwt>
<pdfrwt beam="1">  1        2 0.28642624E+00 0.48094566E+03</pdfrwt>
<pdfrwt beam="2">  1       -2 0.35779845E-01 0.48094566E+03</pdfrwt>
<totfact> 0.62396286E+01</totfact>
</mgrwt>
</event>
<event>
 6    1  0.9022793E-004  0.4323575E+03  0.7818608E-02  0.1033118E+00
          2   -1    0    0  502    0  0.00000000000E+00  0.00000000000E+00  0.21007872366E+04  0.21007872366E+04  0.00000000000E+00 0. -1.
         -2   -1    0    0    0  501 -0.00000000000E+00 -0.00000000000E+00 -0.90709626601E+02  0.90709626601E+02  0.00000000000E+00 0.  1.
    9000007    2    1    2  502    0 -0.10043743902E+03 -0.12881624195E+03  0.85449994216E+03  0.95778658532E+03  0.40062911591E+03 0.  0.
    9000005    1    3    3    0    0  0.67718271774E+02 -0.20627673025E+03  0.28074492988E+03  0.35490078814E+03  0.99999687468E+00 0.  0.
          4    1    3    3  502    0 -0.16815571079E+03  0.77460488304E+02  0.57375501229E+03  0.60288579718E+03  0.00000000000E+00 0.  1.
   -9000007    1    1    2    0  501  0.10043743902E+03  0.12881624195E+03  0.11555776678E+04  0.12337102778E+04  0.40000000000E+03 0.  1.
<mgrwt>
<rscale>  2 0.43235747E+03</rscale>
<asrwt>0</asrwt>
<pdfrwt beam="1">  1        2 0.32319800E+00 0.43235747E+03</pdfrwt>
<pdfrwt beam="2">  1       -2 0.13955329E-01 0.43235747E+03</pdfrwt>
<totfact> 0.24712114E+02</totfact>
</mgrwt>
</event>
<event>
 6    1  0.9022793E-004  0.4495646E+03  0.7818608E-02  0.1027852E+00
         -2   -1    0    0    0  501 -0.00000000000E+00  0.00000000000E+00  0.62038272331E+03  0.62038272331E+03  0.00000000000E+00 0. -1.
          2   -1    0    0  502    0  0.00000000000E+00 -0.00000000000E+00 -0.43762920665E+03  0.43762920665E+03  0.00000000000E+00 0.  1.
    9000007    2    1    2  502    0 -0.72725378899E+02  0.19196665105E+03 -0.17606690484E+03  0.48277956758E+03  0.39992046714E+03 0.  0.
    9000005    1    3    3    0    0 -0.17330994487E+03  0.14332928478E+03  0.50196112303E+02  0.23043495948E+03  0.99999687468E+00 0.  0.
          4    1    3    3  502    0  0.10058456597E+03  0.48637366276E+02 -0.22626301714E+03  0.25234460810E+03  0.00000000000E+00 0.  1.
   -9000007    1    1    2    0  501  0.72725378899E+02 -0.19196665105E+03  0.35882042150E+03  0.57523236239E+03  0.40000000000E+03 0. -1.
<mgrwt>
<rscale>  2 0.44956464E+03</rscale>
<asrwt>0</asrwt>
<pdfrwt beam="1">  1        2 0.67327570E-01 0.44956464E+03</pdfrwt>
<pdfrwt beam="2">  1       -2 0.95443496E-01 0.44956464E+03</pdfrwt>
<totfact> 0.68417553E+01</totfact>
</mgrwt>
</event>
<event>
 6    1  0.9022793E-004  0.4267686E+03  0.7818608E-02  0.1034886E+00
          2   -1    0    0  502    0  0.00000000000E+00  0.00000000000E+00  0.40378232619E+03  0.40378232619E+03  0.00000000000E+00 0. -1.
         -2   -1    0    0    0  501 -0.00000000000E+00 -0.00000000000E+00 -0.52855524549E+03  0.52855524549E+03  0.00000000000E+00 0.  1.
    9000007    2    1    2  502    0 -0.73842595513E+02  0.12998510293E+03 -0.24084953165E+03  0.48981905701E+03  0.39945632529E+03 0.  0.
    9000005    1    3    3    0    0  0.10505520929E+03  0.86418604071E+00 -0.24772548773E+03  0.26908411525E+03  0.99999687468E+00 0.  0.
          4    1    3    3  502    0 -0.17889780480E+03  0.12912091689E+03  0.68759560755E+01  0.22073494176E+03  0.00000000000E+00 0.  1.
   -9000007    1    1    2    0  501  0.73842595513E+02 -0.12998510293E+03  0.11607661235E+03  0.44251851468E+03  0.40000000000E+03 0. -1.
<mgrwt>
<rscale>  2 0.42676856E+03</rscale>
<asrwt>0</asrwt>
<pdfrwt beam="1">  1        2 0.62120359E-01 0.42676856E+03</pdfrwt>
<pdfrwt beam="2">  1       -2 0.81316191E-01 0.42676856E+03</pdfrwt>
<totfact> 0.10802203E+02</totfact>
</mgrwt>
</event>
<event>
 6    1  0.9022793E-004  0.8228456E+03  0.7818608E-02  0.9527525E-01
          2   -1    0    0  502    0  0.00000000000E+00  0.00000000000E+00  0.74727646586E+03  0.74727646586E+03  0.00000000000E+00 0. -1.
         -2   -1    0    0    0  501 -0.00000000000E+00 -0.00000000000E+00 -0.90610092497E+03  0.90610092497E+03  0.00000000000E+00 0.  1.
    9000007    2    1    2  502    0 -0.42222272685E+03 -0.58192484204E+03 -0.85200433034E+02  0.82734527883E+03  0.40041546394E+03 0.  0.
    9000005    1    3    3    0    0 -0.26354893318E+03 -0.60734434083E+03 -0.61545046089E+02  0.66491652199E+03  0.99999687468E+00 0.  0.
          4    1    3    3  502    0 -0.15867379367E+03  0.25419498799E+02 -0.23655386945E+02  0.16242875684E+03  0.00000000000E+00 0.  1.
   -9000007    1    1    2    0  501  0.42222272685E+03  0.58192484204E+03 -0.73624026075E+02  0.82603211200E+03  0.40000000000E+03 0.  1.
<mgrwt>
<rscale>  2 0.82284555E+03</rscale>
<asrwt>0</asrwt>
<pdfrwt beam="1">  1        2 0.11496561E+00 0.82284555E+03</pdfrwt>
<pdfrwt beam="2">  1       -2 0.13940014E+00 0.82284555E+03</pdfrwt>
<totfact> 0.13789733E+01</totfact>
</mgrwt>
</event>
<event>
 6    1  0.9022793E-004  0.6767082E+03  0.7818608E-02  0.9757915E-01
         -1   -1    0    0    0  501 -0.00000000000E+00  0.00000000000E+00  0.39658551116E+03  0.39658551116E+03  0.00000000000E+00 0. -1.
          1   -1    0    0  502    0  0.00000000000E+00 -0.00000000000E+00 -0.11936046019E+04  0.11936046019E+04  0.00000000000E+00 0.  1.
    9000007    2    1    2  502    0  0.10797952198E+03  0.53505194822E+03 -0.54206752394E+03  0.86704388587E+03  0.39998466850E+03 0.  0.
    9000005    1    3    3    0    0  0.30990232224E+02  0.56182898307E+03 -0.54783694967E+03  0.78532701732E+03  0.99999687468E+00 0.  0.
          4    1    3    3  502    0  0.76989289759E+02 -0.26777034844E+02  0.57694257268E+01  0.81716868551E+02  0.00000000000E+00 0.  1.
   -9000007    1    1    2    0  501 -0.10797952198E+03 -0.53505194822E+03 -0.25495156676E+03  0.72314622716E+03  0.40000000000E+03 0.  1.
<mgrwt>
<rscale>  2 0.67670823E+03</rscale>
<asrwt>0</asrwt>
<pdfrwt beam="1">  1        1 0.18363147E+00 0.67670823E+03</pdfrwt>
<pdfrwt beam="2">  1       -1 0.61013157E-01 0.67670823E+03</pdfrwt>
<totfact> 0.30544032E+01</totfact>
</mgrwt>
</event>
<event>
 6    1  0.9022793E-004  0.5943584E+03  0.7818608E-02  0.9917180E-01
         -1   -1    0    0    0  501 -0.00000000000E+00  0.00000000000E+00  0.10853086695E+03  0.10853086695E+03  0.00000000000E+00 0.  1.
          1   -1    0    0  502    0  0.00000000000E+00 -0.00000000000E+00 -0.34430513616E+04  0.34430513616E+04  0.00000000000E+00 0. -1.
    9000007    2    1    2  502    0 -0.41329791906E+03  0.14931872110E+03 -0.20826676814E+04  0.21658525592E+04  0.40037655630E+03 0.  0.
    9000005    1    3    3    0    0 -0.45423645940E+03  0.22108093355E+03 -0.16592834077E+04  0.17344826224E+04  0.99999687468E+00 0.  0.
          4    1    3    3  502    0  0.40938540339E+02 -0.71762212445E+02 -0.42338427366E+03  0.43136993683E+03  0.00000000000E+00 0.  1.
   -9000007    1    1    2    0  501  0.41329791906E+03 -0.14931872110E+03 -0.12518528133E+04  0.13857296693E+04  0.40000000000E+03 0.  1.
<mgrwt>
<rscale>  2 0.59435840E+03</rscale>
<asrwt>0</asrwt>
<pdfrwt beam="1">  1        1 0.52970013E+00 0.59435840E+03</pdfrwt>
<pdfrwt beam="2">  1       -1 0.16697059E-01 0.59435840E+03</pdfrwt>
<totfact> 0.84675443E+00</totfact>
</mgrwt>
</event>
<event>
 6    1  0.9022793E-004  0.4403563E+03  0.7818608E-02  0.1030638E+00
          2   -1    0    0  502    0  0.00000000000E+00  0.00000000000E+00  0.20147108618E+04  0.20147108618E+04  0.00000000000E+00 0.  1.
         -2   -1    0    0    0  501 -0.00000000000E+00 -0.00000000000E+00 -0.98975215550E+02  0.98975215550E+02  0.00000000000E+00 0. -1.
    9000007    2    1    2  502    0  0.17647664382E+03 -0.53199783359E+02  0.11331251032E+04  0.12156585250E+04  0.39984863014E+03 0.  0.
    9000005    1    3    3    0    0 -0.12737967927E+02  0.85893632795E+02  0.36546511501E+02  0.94215813313E+02  0.99999687468E+00 0.  0.
          4    1    3    3  502    0  0.18921461175E+03 -0.13909341615E+03  0.10965785917E+04  0.11214427116E+04  0.00000000000E+00 0.  1.
   -9000007    1    1    2    0  501 -0.17647664382E+03  0.53199783359E+02  0.78261054301E+03  0.89802755236E+03  0.40000000000E+03 0. -1.
<mgrwt>
<rscale>  2 0.44035631E+03</rscale>
<asrwt>0</asrwt>
<pdfrwt beam="1">  1        2 0.30995549E+00 0.44035631E+03</pdfrwt>
<pdfrwt beam="2">  1       -2 0.15226958E-01 0.44035631E+03</pdfrwt>
<totfact> 0.23734267E+02</totfact>
</mgrwt>
</event>
<event>
 6    1  0.9022793E-004  0.5310761E+03  0.7818608E-02  0.1005971E+00
         -2   -1    0    0    0  501 -0.00000000000E+00  0.00000000000E+00  0.79384142824E+02  0.79384142824E+02  0.00000000000E+00 0. -1.
          2   -1    0    0  502    0  0.00000000000E+00 -0.00000000000E+00 -0.35732196102E+04  0.35732196102E+04  0.00000000000E+00 0.  1.
    9000007    2    1    2  502    0  0.13389532317E+03 -0.32259386739E+03 -0.18848738181E+04  0.19582742840E+04  0.40011760806E+03 0.  0.
    9000005    1    3    3    0    0  0.20102750739E+03 -0.70365061756E+01 -0.88789195113E+03  0.91039260103E+03  0.99999687468E+00 0.  0.
          4    1    3    3  502    0 -0.67132184215E+02 -0.31555736121E+03 -0.99698186699E+03  0.10478816830E+04  0.00000000000E+00 0.  1.
   -9000007    1    1    2    0  501 -0.13389532317E+03  0.32259386739E+03 -0.16089616493E+04  0.16943294691E+04  0.40000000000E+03 0.  1.
<mgrwt>
<rscale>  2 0.53107608E+03</rscale>
<asrwt>0</asrwt>
<pdfrwt beam="1">  1        2 0.54972604E+00 0.53107608E+03</pdfrwt>
<pdfrwt beam="2">  1       -2 0.12212946E-01 0.53107608E+03</pdfrwt>
<totfact> 0.40158648E+01</totfact>
</mgrwt>
</event>
<event>
 6    1  0.9022793E-004  0.4205160E+03  0.7818608E-02  0.1036898E+00
         -1   -1    0    0    0  501 -0.00000000000E+00  0.00000000000E+00  0.10690614250E+04  0.10690614250E+04  0.00000000000E+00 0. -1.
          1   -1    0    0  502    0  0.00000000000E+00 -0.00000000000E+00 -0.20031213305E+03  0.20031213305E+03  0.00000000000E+00 0.  1.
    9000007    2    1    2  502    0  0.98515687842E+01 -0.13089446114E+03  0.69890125344E+03  0.81541456260E+03  0.39900818723E+03 0.  0.
    9000005    1    3    3    0    0 -0.23919047134E+02 -0.13859853273E+03  0.74477089959E+03  0.75793559552E+03  0.99999687468E+00 0.  0.
          4    1    3    3  502    0  0.33770615918E+02  0.77040715881E+01 -0.45869646148E+02  0.57478967078E+02  0.00000000000E+00 0.  1.
   -9000007    1    1    2    0  501 -0.98515687842E+01  0.13089446114E+03  0.16984803851E+03  0.45395899545E+03  0.40000000000E+03 0.  1.
<mgrwt>
<rscale>  2 0.42051604E+03</rscale>
<asrwt>0</asrwt>
<pdfrwt beam="1">  1        1 0.30817252E-01 0.42051604E+03</pdfrwt>
<pdfrwt beam="2">  1       -1 0.16447099E+00 0.42051604E+03</pdfrwt>
<totfact> 0.42437542E+01</totfact>
</mgrwt>
</event>
<event>
 6    1  0.9022793E-004  0.5844977E+03  0.7818608E-02  0.9938101E-01
          2   -1    0    0  502    0  0.00000000000E+00  0.00000000000E+00  0.37648528949E+03  0.37648528949E+03  0.00000000000E+00 0.  1.
         -2   -1    0    0    0  501 -0.00000000000E+00 -0.00000000000E+00 -0.99455575611E+03  0.99455575611E+03  0.00000000000E+00 0. -1.
    9000007    2    1    2  502    0  0.22128321291E+03  0.36438524610E+03 -0.51187941501E+03  0.77688668237E+03  0.39973680572E+03 0.  0.
    9000005    1    3    3    0    0  0.12869990500E+03 -0.61600564032E+02 -0.17597084191E+03  0.22655028632E+03  0.99999687468E+00 0.  0.
          4    1    3    3  502    0  0.92583307909E+02  0.42598581013E+03 -0.33590857310E+03  0.55033639605E+03  0.00000000000E+00 0.  1.
   -9000007    1    1    2    0  501 -0.22128321291E+03 -0.36438524610E+03 -0.10619105162E+03  0.59415436322E+03  0.40000000000E+03 0.  1.
<mgrwt>
<rscale>  2 0.58449774E+03</rscale>
<asrwt>0</asrwt>
<pdfrwt beam="1">  1        2 0.57920814E-01 0.58449774E+03</pdfrwt>
<pdfrwt beam="2">  1       -2 0.15300858E+00 0.58449774E+03</pdfrwt>
<totfact> 0.24865927E+01</totfact>
</mgrwt>
</event>
<event>
 6    1  0.9022793E-004  0.4035341E+03  0.7818608E-02  0.1042563E+00
         -2   -1    0    0    0  501 -0.00000000000E+00  0.00000000000E+00  0.46608270114E+03  0.46608270114E+03  0.00000000000E+00 0.  1.
          2   -1    0    0  502    0  0.00000000000E+00 -0.00000000000E+00 -0.37719237795E+03  0.37719237795E+03  0.00000000000E+00 0. -1.
    9000007    2    1    2  502    0 -0.38311266926E+02  0.31788761061E+02  0.15898338614E+03  0.43414024071E+03  0.40090367051E+03 0.  0.
    9000005    1    3    3    0    0  0.14198078882E+03 -0.10203090679E+03  0.37367931661E+02  0.17879097473E+03  0.99999687468E+00 0.  0.
          4    1    3    3  502    0 -0.18029205575E+03  0.13381966785E+03  0.12161545448E+03  0.25534926598E+03  0.00000000000E+00 0.  1.
   -9000007    1    1    2    0  501  0.38311266926E+02 -0.31788761061E+02 -0.70093062951E+02  0.40913483838E+03  0.40000000000E+03 0. -1.
<mgrwt>
<rscale>  2 0.40353408E+03</rscale>
<asrwt>0</asrwt>
<pdfrwt beam="1">  1        2 0.58029597E-01 0.40353408E+03</pdfrwt>
<pdfrwt beam="2">  1       -2 0.71705031E-01 0.40353408E+03</pdfrwt>
<totfact> 0.15398477E+02</totfact>
</mgrwt>
</event>
<event>
 6    1  0.9022793E-004  0.5365563E+03  0.7818608E-02  0.1004654E+00
         -2   -1    0    0    0  501 -0.00000000000E+00  0.00000000000E+00  0.37346290729E+03  0.37346290729E+03  0.00000000000E+00 0.  1.
          2   -1    0    0  502    0  0.00000000000E+00 -0.00000000000E+00 -0.14617388831E+04  0.14617388831E+04  0.00000000000E+00 0. -1.
    9000007    2    1    2  502    0  0.14442936332E+03  0.32714207760E+03  0.86691430780E+02  0.54352451395E+03  0.40002714055E+03 0.  0.
    9000005    1    3    3    0    0 -0.45336747528E+02 -0.31939026977E+02 -0.85885104249E+02  0.10223880499E+03  0.99999687468E+00 0.  0.
          4    1    3    3  502    0  0.18976611085E+03  0.35908110458E+03  0.17257653503E+03  0.44128570896E+03  0.00000000000E+00 0.  1.
   -9000007    1    1    2    0  501 -0.14442936332E+03 -0.32714207760E+03 -0.11749674066E+04  0.12916772764E+04  0.40000000000E+03 0. -1.
<mgrwt>
<rscale>  2 0.53655628E+03</rscale>
<asrwt>0</asrwt>
<pdfrwt beam="1">  1        2 0.22488291E+00 0.53655628E+03</pdfrwt>
<pdfrwt beam="2">  1       -2 0.57455832E-01 0.53655628E+03</pdfrwt>
<totfact> 0.39768263E+01</totfact>
</mgrwt>
</event>
<event>
 6    1  0.9022793E-004  0.4402065E+03  0.7818608E-02  0.1030683E+00
         -1   -1    0    0    0  501 -0.00000000000E+00  0.00000000000E+00  0.10751587180E+04  0.10751587180E+04  0.00000000000E+00 0. -1.
          1   -1    0    0  502    0  0.00000000000E+00 -0.00000000000E+00 -0.18207528513E+03  0.18207528513E+03  0.00000000000E+00 0.  1.
    9000007    2    1    2  502    0 -0.16870381555E+03  0.76623200185E+01  0.51522200892E+03  0.68164826301E+03  0.41312340463E+03 0.  0.
    9000005    1    3    3    0    0  0.47167140711E+02 -0.11551966789E+01  0.45489029790E+03  0.45733167041E+03  0.99999687468E+00 0.  0.
          4    1    3    3  502    0 -0.21587095626E+03  0.88175166974E+01  0.60331711014E+02  0.22431659259E+03  0.00000000000E+00 0.  1.
   -9000007    1    1    2    0  501  0.16870381555E+03 -0.76623200185E+01  0.37786142394E+03  0.57558574013E+03  0.40000000000E+03 0. -1.
<mgrwt>
<rscale>  2 0.44020646E+03</rscale>
<asrwt>0</asrwt>
<pdfrwt beam="1">  1        1 0.28011583E-01 0.44020646E+03</pdfrwt>
<pdfrwt beam="2">  1       -1 0.16540903E+00 0.44020646E+03</pdfrwt>
<totfact> 0.47092221E+01</totfact>
</mgrwt>
</event>
<event>
 6    1  0.9022793E-004  0.5541252E+03  0.7818608E-02  0.1000544E+00
         -2   -1    0    0    0  501 -0.00000000000E+00  0.00000000000E+00  0.10748489763E+04  0.10748489763E+04  0.00000000000E+00 0.  1.
          2   -1    0    0  502    0  0.00000000000E+00 -0.00000000000E+00 -0.28996605586E+03  0.28996605586E+03  0.00000000000E+00 0. -1.
    9000007    2    1    2  502    0 -0.37045007998E+03 -0.10111556458E+03  0.30915001870E+03  0.63421294283E+03  0.39899210973E+03 0.  0.
    9000005    1    3    3    0    0 -0.65669015535E+02 -0.48188256535E+00 -0.96630754332E+02  0.11683815511E+03  0.99999687468E+00 0.  0.
          4    1    3    3  502    0 -0.30478106445E+03 -0.10063368202E+03  0.40578077304E+03  0.51737478772E+03  0.00000000000E+00 0.  1.
   -9000007    1    1    2    0  501  0.37045007998E+03  0.10111556458E+03  0.47573290177E+03  0.73060208937E+03  0.40000000000E+03 0.  1.
<mgrwt>
<rscale>  2 0.55412517E+03</rscale>
<asrwt>0</asrwt>
<pdfrwt beam="1">  1        2 0.44610163E-01 0.55412517E+03</pdfrwt>
<pdfrwt beam="2">  1       -2 0.16536138E+00 0.55412517E+03</pdfrwt>
<totfact> 0.27028488E+01</totfact>
</mgrwt>
</event>
<event>
 6    1  0.9022793E-004  0.4246870E+03  0.7818608E-02  0.1035552E+00
          1   -1    0    0  502    0  0.00000000000E+00  0.00000000000E+00  0.12337576903E+04  0.12337576903E+04  0.00000000000E+00 0.  1.
         -1   -1    0    0    0  501 -0.00000000000E+00 -0.00000000000E+00 -0.15211781935E+03  0.15211781935E+03  0.00000000000E+00 0. -1.
    9000007    2    1    2  502    0  0.14342543605E+03 -0.23666919092E+01  0.40368063675E+03  0.58574728232E+03  0.39945633719E+03 0.  0.
    9000005    1    3    3    0    0 -0.11999917061E+03  0.84400130317E+02  0.15145993266E+03  0.21086558310E+03  0.99999687468E+00 0.  0.
          4    1    3    3  502    0  0.26342460666E+03 -0.86766822226E+02  0.25222070409E+03  0.37488169921E+03  0.00000000000E+00 0.  1.
   -9000007    1    1    2    0  501 -0.14342543605E+03  0.23666919092E+01  0.67795923424E+03  0.80012822737E+03  0.40000000000E+03 0. -1.
<mgrwt>
<rscale>  2 0.42468695E+03</rscale>
<asrwt>0</asrwt>
<pdfrwt beam="1">  1        1 0.18980887E+00 0.42468695E+03</pdfrwt>
<pdfrwt beam="2">  1       -1 0.23402742E-01 0.42468695E+03</pdfrwt>
<totfact> 0.16608928E+02</totfact>
</mgrwt>
</event>
<event>
 6    1  0.9022793E-004  0.4160857E+03  0.7818608E-02  0.1038348E+00
         -2   -1    0    0    0  501 -0.00000000000E+00  0.00000000000E+00  0.38347648874E+03  0.38347648874E+03  0.00000000000E+00 0.  1.
          2   -1    0    0  502    0  0.00000000000E+00 -0.00000000000E+00 -0.79258053851E+03  0.79258053851E+03  0.00000000000E+00 0. -1.
    9000007    2    1    2  502    0  0.82058891640E+02  0.80824495197E+02  0.18126219062E+03  0.45370077268E+03  0.39965253492E+03 0.  0.
    9000005    1    3    3    0    0  0.85021456775E+02  0.88122889159E+02 -0.10863448489E+03  0.16369710751E+03  0.99999687468E+00 0.  0.
          4    1    3    3  502    0 -0.29625651349E+01 -0.72983939624E+01  0.28989667551E+03  0.29000366518E+03  0.00000000000E+00 0.  1.
   -9000007    1    1    2    0  501 -0.82058891640E+02 -0.80824495197E+02 -0.59036624039E+03  0.72235625457E+03  0.40000000000E+03 0. -1.
<mgrwt>
<rscale>  2 0.41608566E+03</rscale>
<asrwt>0</asrwt>
<pdfrwt beam="1">  1        2 0.12193547E+00 0.41608566E+03</pdfrwt>
<pdfrwt beam="2">  1       -2 0.58996383E-01 0.41608566E+03</pdfrwt>
<totfact> 0.97561730E+01</totfact>
</mgrwt>
</event>
<event>
 6    1  0.9022793E-004  0.4736034E+03  0.7818608E-02  0.1020908E+00
          2   -1    0    0  502    0  0.00000000000E+00  0.00000000000E+00  0.11194101722E+04  0.11194101722E+04  0.00000000000E+00 0.  1.
         -2   -1    0    0    0  501 -0.00000000000E+00 -0.00000000000E+00 -0.22277392039E+03  0.22277392039E+03  0.00000000000E+00 0. -1.
    9000007    2    1    2  502    0 -0.16957287387E+03 -0.18696664131E+03  0.23604700960E+03  0.52972508966E+03  0.40147103925E+03 0.  0.
    9000005    1    3    3    0    0 -0.85124968400E+02 -0.18132281507E+02 -0.10714267222E+03  0.13804199391E+03  0.99999687468E+00 0.  0.
          4    1    3    3  502    0 -0.84447905467E+02 -0.16883435980E+03  0.34318968183E+03  0.39168309575E+03  0.00000000000E+00 0.  1.
   -9000007    1    1    2    0  501  0.16957287387E+03  0.18696664131E+03  0.66058924220E+03  0.81245900292E+03  0.40000000000E+03 0.  1.
<mgrwt>
<rscale>  2 0.47360343E+03</rscale>
<asrwt>0</asrwt>
<pdfrwt beam="1">  1        2 0.17221695E+00 0.47360343E+03</pdfrwt>
<pdfrwt beam="2">  1       -2 0.34272911E-01 0.47360343E+03</pdfrwt>
<totfact> 0.17490194E+02</totfact>
</mgrwt>
</event>
<event>
 6    1  0.9022793E-004  0.4056239E+03  0.7818608E-02  0.1041850E+00
          2   -1    0    0  502    0  0.00000000000E+00  0.00000000000E+00  0.10538490680E+04  0.10538490680E+04  0.00000000000E+00 0.  1.
         -2   -1    0    0    0  501 -0.00000000000E+00 -0.00000000000E+00 -0.20710759106E+03  0.20710759106E+03  0.00000000000E+00 0. -1.
    9000007    2    1    2  502    0  0.59855322817E+02 -0.26443457491E+02  0.73642791362E+03  0.84089595111E+03  0.40062203201E+03 0.  0.
    9000005    1    3    3    0    0 -0.86007179183E+02 -0.17667831000E+03  0.36184540783E+03  0.41175910343E+03  0.99999687468E+00 0.  0.
          4    1    3    3  502    0  0.14586250200E+03  0.15023485251E+03  0.37458250579E+03  0.42913684769E+03  0.00000000000E+00 0.  1.
   -9000007    1    1    2    0  501 -0.59855322817E+02  0.26443457491E+02  0.11031356334E+03  0.42006070796E+03  0.40000000000E+03 0. -1.
<mgrwt>
<rscale>  2 0.40562388E+03</rscale>
<asrwt>0</asrwt>
<pdfrwt beam="1">  1        2 0.16213062E+00 0.40562388E+03</pdfrwt>
<pdfrwt beam="2">  1       -2 0.31862707E-01 0.40562388E+03</pdfrwt>
<totfact> 0.22112521E+02</totfact>
</mgrwt>
</event>
<event>
 6    1  0.9022793E-004  0.5790868E+03  0.7818608E-02  0.9949770E-01
         -1   -1    0    0    0  501 -0.00000000000E+00  0.00000000000E+00  0.82001948077E+03  0.82001948077E+03  0.00000000000E+00 0.  1.
          1   -1    0    0  502    0  0.00000000000E+00 -0.00000000000E+00 -0.45740859468E+03  0.45740859468E+03  0.00000000000E+00 0. -1.
    9000007    2    1    2  502    0  0.36248995835E+03 -0.20964243310E+03  0.38921086102E+03  0.69772429046E+03  0.39998146395E+03 0.  0.
    9000005    1    3    3    0    0 -0.65871410901E+01  0.79647830743E+02 -0.11686391620E+02  0.80775857239E+02  0.99999687468E+00 0.  0.
          4    1    3    3  502    0  0.36907709944E+03 -0.28929026384E+03  0.40089725264E+03  0.61694843322E+03  0.00000000000E+00 0.  1.
   -9000007    1    1    2    0  501 -0.36248995835E+03  0.20964243310E+03 -0.26599974931E+02  0.57970378498E+03  0.40000000000E+03 0. -1.
<mgrwt>
<rscale>  2 0.57908679E+03</rscale>
<asrwt>0</asrwt>
<pdfrwt beam="1">  1        1 0.70370553E-01 0.57908679E+03</pdfrwt>
<pdfrwt beam="2">  1       -1 0.12615684E+00 0.57908679E+03</pdfrwt>
<totfact> 0.28581931E+01</totfact>
</mgrwt>
</event>
<event>
 6    1  0.9022793E-004  0.4057633E+03  0.7818608E-02  0.1041802E+00
         -2   -1    0    0    0  501 -0.00000000000E+00  0.00000000000E+00  0.19503665032E+03  0.19503665032E+03  0.00000000000E+00 0.  1.
          2   -1    0    0  502    0  0.00000000000E+00 -0.00000000000E+00 -0.85205267012E+03  0.85205267012E+03  0.00000000000E+00 0. -1.
    9000007    2    1    2  502    0 -0.45867392724E+02 -0.47793191959E+02 -0.27840157420E+03  0.49234892591E+03  0.40063951554E+03 0.  0.
    9000005    1    3    3    0    0 -0.67150942719E+02  0.15885886299E+03 -0.41757310324E+02  0.17745438969E+03  0.99999687468E+00 0.  0.
          4    1    3    3  502    0  0.21283549995E+02 -0.20665205495E+03 -0.23664426388E+03  0.31489453622E+03  0.00000000000E+00 0.  1.
   -9000007    1    1    2    0  501  0.45867392724E+02  0.47793191959E+02 -0.37861444560E+03  0.55474039453E+03  0.40000000000E+03 0. -1.
<mgrwt>
<rscale>  2 0.40576325E+03</rscale>
<asrwt>0</asrwt>
<pdfrwt beam="1">  1        2 0.13108503E+00 0.40576325E+03</pdfrwt>
<pdfrwt beam="2">  1       -2 0.30005639E-01 0.40576325E+03</pdfrwt>
<totfact> 0.33276071E+02</totfact>
</mgrwt>
</event>
<event>
 6    1  0.9022793E-004  0.4152618E+03  0.7818608E-02  0.1038620E+00
         -1   -1    0    0    0  501 -0.00000000000E+00  0.00000000000E+00  0.30423639698E+03  0.30423639698E+03  0.00000000000E+00 0. -1.
          1   -1    0    0  502    0  0.00000000000E+00 -0.00000000000E+00 -0.60051745299E+03  0.60051745299E+03  0.00000000000E+00 0.  1.
    9000007    2    1    2  502    0 -0.32964026429E+02  0.10640585503E+03 -0.40967476211E+02  0.41731784694E+03  0.40008376404E+03 0.  0.
    9000005    1    3    3    0    0  0.16163912938E+03  0.98691623885E+02  0.59049426761E+02  0.19838114720E+03  0.99999687468E+00 0.  0.
          4    1    3    3  502    0 -0.19460315581E+03  0.77142311446E+01 -0.10001690297E+03  0.21893669974E+03  0.00000000000E+00 0.  1.
   -9000007    1    1    2    0  501  0.32964026429E+02 -0.10640585503E+03 -0.25531357980E+03  0.48743600303E+03  0.40000000000E+03 0.  1.
<mgrwt>
<rscale>  2 0.41526177E+03</rscale>
<asrwt>0</asrwt>
<pdfrwt beam="1">  1        1 0.92387299E-01 0.41526177E+03</pdfrwt>
<pdfrwt beam="2">  1       -1 0.46805600E-01 0.41526177E+03</pdfrwt>
<totfact> 0.16200166E+02</totfact>
</mgrwt>
</event>
<event>
 6    1  0.9022793E-004  0.4490894E+03  0.7818608E-02  0.1027994E+00
          1   -1    0    0  502    0  0.00000000000E+00  0.00000000000E+00  0.10759199689E+04  0.10759199689E+04  0.00000000000E+00 0.  1.
         -1   -1    0    0    0  501 -0.00000000000E+00 -0.00000000000E+00 -0.19937752964E+03  0.19937752964E+03  0.00000000000E+00 0. -1.
    9000007    2    1    2  502    0  0.10244374811E+03 -0.16562480868E+03  0.28629683830E+03  0.53616546147E+03  0.40936685708E+03 0.  0.
    9000005    1    3    3    0    0 -0.97081859332E+00 -0.28342083321E+03  0.12042746733E+03  0.30794818731E+03  0.99999687468E+00 0.  0.
          4    1    3    3  502    0  0.10341456671E+03  0.11779602453E+03  0.16586937097E+03  0.22821727417E+03  0.00000000000E+00 0.  1.
   -9000007    1    1    2    0  501 -0.10244374811E+03  0.16562480868E+03  0.59024560098E+03  0.73913203709E+03  0.40000000000E+03 0.  1.
<mgrwt>
<rscale>  2 0.44908940E+03</rscale>
<asrwt>0</asrwt>
<pdfrwt beam="1">  1        1 0.16552615E+00 0.44908940E+03</pdfrwt>
<pdfrwt beam="2">  1       -1 0.30673467E-01 0.44908940E+03</pdfrwt>
<totfact> 0.13584472E+02</totfact>
</mgrwt>
</event>
<event>
 6    1  0.9022793E-004  0.5323825E+03  0.7818608E-02  0.1005656E+00
          2   -1    0    0  502    0  0.00000000000E+00  0.00000000000E+00  0.30365956883E+04  0.30365956883E+04  0.00000000000E+00 0. -1.
         -2   -1    0    0    0  501 -0.00000000000E+00 -0.00000000000E+00 -0.96613456280E+02  0.96613456280E+02  0.00000000000E+00 0.  1.
    9000007    2    1    2  502    0 -0.13705138936E+03  0.32327329126E+03  0.11819143264E+04  0.12963391261E+04  0.40035602986E+03 0.  0.
    9000005    1    3    3    0    0 -0.25635995464E+03  0.15468447548E+03  0.88796212364E+03  0.93708347884E+03  0.99999687468E+00 0.  0.
          4    1    3    3  502    0  0.11930856528E+03  0.16858881578E+03  0.29395220275E+03  0.35925564722E+03  0.00000000000E+00 0.  1.
   -9000007    1    1    2    0  501  0.13705138936E+03 -0.32327329126E+03  0.17580679057E+04  0.18368700186E+04  0.40000000000E+03 0.  1.
<mgrwt>
<rscale>  2 0.53238252E+03</rscale>
<asrwt>0</asrwt>
<pdfrwt beam="1">  1        2 0.46716849E+00 0.53238252E+03</pdfrwt>
<pdfrwt beam="2">  1       -2 0.14863611E-01 0.53238252E+03</pdfrwt>
<totfact> 0.64368432E+01</totfact>
</mgrwt>
</event>
<event>
 6    1  0.9022793E-004  0.5048796E+03  0.7818608E-02  0.1012513E+00
         -2   -1    0    0    0  501 -0.00000000000E+00  0.00000000000E+00  0.32670913612E+03  0.32670913612E+03  0.00000000000E+00 0. -1.
          2   -1    0    0  502    0  0.00000000000E+00 -0.00000000000E+00 -0.10297654809E+04  0.10297654809E+04  0.00000000000E+00 0.  1.
    9000007    2    1    2  502    0 -0.30034755107E+03 -0.72488348258E+02 -0.68511624012E+03  0.85072264284E+03  0.39859947379E+03 0.  0.
    9000005    1    3    3    0    0 -0.70127359057E+02  0.16139999670E+03 -0.22893191902E+03  0.28875357827E+03  0.99999687468E+00 0.  0.
          4    1    3    3  502    0 -0.23022019201E+03 -0.23388834496E+03 -0.45618432110E+03  0.56196906457E+03  0.00000000000E+00 0.  1.
   -9000007    1    1    2    0  501  0.30034755107E+03  0.72488348258E+02 -0.17940104697E+02  0.50575197422E+03  0.40000000000E+03 0. -1.
<mgrwt>
<rscale>  2 0.50487956E+03</rscale>
<asrwt>0</asrwt>
<pdfrwt beam="1">  1        2 0.15842546E+00 0.50487956E+03</pdfrwt>
<pdfrwt beam="2">  1       -2 0.50262944E-01 0.50487956E+03</pdfrwt>
<totfact> 0.93617580E+01</totfact>
</mgrwt>
</event>
<event>
 6    1  0.9022793E-004  0.5384276E+03  0.7818608E-02  0.1004209E+00
         -2   -1    0    0    0  501 -0.00000000000E+00  0.00000000000E+00  0.39470076403E+03  0.39470076403E+03  0.00000000000E+00 0. -1.
          2   -1    0    0  502    0  0.00000000000E+00 -0.00000000000E+00 -0.99363126466E+03  0.99363126466E+03  0.00000000000E+00 0.  1.
    9000007    2    1    2  502    0  0.19157342751E+03  0.30533115646E+03 -0.65395774713E+03  0.84707839951E+03  0.39994197911E+03 0.  0.
    9000005    1    3    3    0    0 -0.10180997494E+02 -0.38897290297E+02  0.33419053659E+02  0.52292303867E+02  0.99999687468E+00 0.  0.
          4    1    3    3  502    0  0.20175442501E+03  0.34422844676E+03 -0.68737680079E+03  0.79478609565E+03  0.00000000000E+00 0.  1.
   -9000007    1    1    2    0  501 -0.19157342751E+03 -0.30533115646E+03  0.55027246502E+02  0.54125362917E+03  0.40000000000E+03 0. -1.
<mgrwt>
<rscale>  2 0.53842760E+03</rscale>
<asrwt>0</asrwt>
<pdfrwt beam="1">  1        2 0.15286635E+00 0.53842760E+03</pdfrwt>
<pdfrwt beam="2">  1       -2 0.60723195E-01 0.53842760E+03</pdfrwt>
<totfact> 0.66489998E+01</totfact>
</mgrwt>
</event>
<event>
 6    1  0.9022793E-004  0.4397768E+03  0.7818608E-02  0.1030815E+00
          2   -1    0    0  502    0  0.00000000000E+00  0.00000000000E+00  0.96334822154E+03  0.96334822154E+03  0.00000000000E+00 0. -1.
         -2   -1    0    0    0  501 -0.00000000000E+00 -0.00000000000E+00 -0.20853588440E+03  0.20853588440E+03  0.00000000000E+00 0.  1.
    9000007    2    1    2  502    0  0.13325964716E+03  0.12812192429E+03  0.48981086640E+03  0.65768653638E+03  0.39807478473E+03 0.  0.
    9000005    1    3    3    0    0  0.18406619311E+03  0.93910977368E+02  0.54019876842E+03  0.57837301502E+03  0.99999687468E+00 0.  0.
          4    1    3    3  502    0 -0.50806545948E+02  0.34210946918E+02 -0.50387902012E+02  0.79313521353E+02  0.00000000000E+00 0.  1.
   -9000007    1    1    2    0  501 -0.13325964716E+03 -0.12812192429E+03  0.26500147074E+03  0.51419756956E+03  0.40000000000E+03 0. -1.
<mgrwt>
<rscale>  2 0.43977676E+03</rscale>
<asrwt>0</asrwt>
<pdfrwt beam="1">  1        2 0.14820742E+00 0.43977676E+03</pdfrwt>
<pdfrwt beam="2">  1       -2 0.32082444E-01 0.43977676E+03</pdfrwt>
<totfact> 0.24777926E+02</totfact>
</mgrwt>
</event>
<event>
 6    1  0.9022793E-004  0.4635852E+03  0.7818608E-02  0.1023747E+00
          2   -1    0    0  502    0  0.00000000000E+00  0.00000000000E+00  0.16474438039E+04  0.16474438039E+04  0.00000000000E+00 0.  1.
         -2   -1    0    0    0  501 -0.00000000000E+00 -0.00000000000E+00 -0.33115587154E+03  0.33115587154E+03  0.00000000000E+00 0. -1.
    9000007    2    1    2  502    0  0.19825925420E+03  0.12482247046E+03  0.14283349083E+04  0.15016909779E+04  0.40005974769E+03 0.  0.
    9000005    1    3    3    0    0 -0.37118436242E+02  0.29954899540E+02  0.10186979625E+04  0.10198144994E+04  0.99999687468E+00 0.  0.
          4    1    3    3  502    0  0.23537769044E+03  0.94867570916E+02  0.40963694581E+03  0.48187647851E+03  0.00000000000E+00 0.  1.
   -9000007    1    1    2    0  501 -0.19825925420E+03 -0.12482247046E+03 -0.11204697595E+03  0.47690869758E+03  0.40000000000E+03 0. -1.
<mgrwt>
<rscale>  2 0.46358525E+03</rscale>
<asrwt>0</asrwt>
<pdfrwt beam="1">  1        2 0.25345289E+00 0.46358525E+03</pdfrwt>
<pdfrwt beam="2">  1       -2 0.50947058E-01 0.46358525E+03</pdfrwt>
<totfact> 0.40815850E+01</totfact>
</mgrwt>
</event>
<event>
 6    1  0.9022793E-004  0.4165237E+03  0.7818608E-02  0.1038204E+00
         -1   -1    0    0    0  501 -0.00000000000E+00  0.00000000000E+00  0.71897522235E+03  0.71897522235E+03  0.00000000000E+00 0.  1.
          1   -1    0    0  502    0  0.00000000000E+00 -0.00000000000E+00 -0.24719586552E+03  0.24719586552E+03  0.00000000000E+00 0. -1.
    9000007    2    1    2  502    0  0.48092813411E+02  0.10660643929E+03  0.31034389938E+03  0.51924910529E+03  0.39953528737E+03 0.  0.
    9000005    1    3    3    0    0  0.18748199554E+03  0.28745288849E+02  0.23715604849E+02  0.19115234811E+03  0.99999687468E+00 0.  0.
          4    1    3    3  502    0 -0.13938918213E+03  0.77861150441E+02  0.28662829453E+03  0.32809675718E+03  0.00000000000E+00 0.  1.
   -9000007    1    1    2    0  501 -0.48092813411E+02 -0.10660643929E+03  0.16143545744E+03  0.44692198259E+03  0.40000000000E+03 0. -1.
<mgrwt>
<rscale>  2 0.41652368E+03</rscale>
<asrwt>0</asrwt>
<pdfrwt beam="1">  1        1 0.38030133E-01 0.41652368E+03</pdfrwt>
<pdfrwt beam="2">  1       -1 0.11061157E+00 0.41652368E+03</pdfrwt>
<totfact> 0.88823192E+01</totfact>
</mgrwt>
</event>
<event>
 6    1  0.9022793E-004  0.5421308E+03  0.7818608E-02  0.1003332E+00
         -2   -1    0    0    0  501 -0.00000000000E+00  0.00000000000E+00  0.19679971147E+03  0.19679971147E+03  0.00000000000E+00 0.  1.
          2   -1    0    0  502    0  0.00000000000E+00 -0.00000000000E+00 -0.14992904050E+04  0.14992904050E+04  0.00000000000E+00 0. -1.
    9000007    2    1    2  502    0 -0.33619869008E+03 -0.14470242238E+03 -0.59813771942E+03  0.80722484974E+03  0.39984356490E+03 0.  0.
    9000005    1    3    3    0    0 -0.24282063453E+02 -0.15177979081E+03 -0.42159501086E+03  0.44874277340E+03  0.99999687468E+00 0.  0.
          4    1    3    3  502    0 -0.31191662663E+03  0.70773684329E+01 -0.17654270856E+03  0.35848207634E+03  0.00000000000E+00 0.  1.
   -9000007    1    1    2    0  501  0.33619869008E+03  0.14470242238E+03 -0.70435297411E+03  0.88886526672E+03  0.40000000000E+03 0.  1.
<mgrwt>
<rscale>  2 0.54213078E+03</rscale>
<asrwt>0</asrwt>
<pdfrwt beam="1">  1        2 0.23066006E+00 0.54213078E+03</pdfrwt>
<pdfrwt beam="2">  1       -2 0.30276880E-01 0.54213078E+03</pdfrwt>
<totfact> 0.13289402E+02</totfact>
</mgrwt>
</event>
