<event>
 3    1  0.1603864E-001  0.1250000E+03  0.7546771E-02  0.1235069E+00
         21   -1    0    0  502  501  0.00000000000E+00  0.00000000000E+00  0.29667089618E+02  0.29667089618E+02  0.00000000000E+00 0. -1.
         21   -1    0    0  501  502 -0.00000000000E+00 -0.00000000000E+00 -0.13166947113E+03  0.13166947113E+03  0.00000000000E+00 0. -1.
         25    1    1    2    0    0  0.00000000000E+00  0.00000000000E+00 -0.10200238152E+03  0.16133656075E+03  0.12500000000E+03 0.  0.
<mgrwt>
<rscale>  0 0.12500000E+03</rscale>
<asrwt>0</asrwt>
<pdfrwt beam="1">  1       21 0.45641677E-02 0.12500000E+03</pdfrwt>
<pdfrwt beam="2">  1       21 0.20256841E-01 0.12500000E+03</pdfrwt>
<totfact> 0.69356550E+06</totfact>
</mgrwt>
</event>
<event>
 3    1  0.1603864E-001  0.1250000E+03  0.7546771E-02  0.1235069E+00
         21   -1    0    0  502  501  0.00000000000E+00  0.00000000000E+00  0.45290244580E+02  0.45290244580E+02  0.00000000000E+00 0. -1.
         21   -1    0    0  501  502 -0.00000000000E+00 -0.00000000000E+00 -0.86249258228E+02  0.86249258228E+02  0.00000000000E+00 0. -1.
         25    1    1    2    0    0  0.00000000000E+00  0.00000000000E+00 -0.40959013647E+02  0.13153950281E+03  0.12500000000E+03 0.  0.
<mgrwt>
<rscale>  0 0.12500000E+03</rscale>
<asrwt>0</asrwt>
<pdfrwt beam="1">  1       21 0.69677299E-02 0.12500000E+03</pdfrwt>
<pdfrwt beam="2">  1       21 0.13269117E-01 0.12500000E+03</pdfrwt>
<totfact> 0.73158061E+06</totfact>
</mgrwt>
</event>
<event>
 3    1  0.1603864E-001  0.1250000E+03  0.7546771E-02  0.1235069E+00
         21   -1    0    0  502  501  0.00000000000E+00  0.00000000000E+00  0.57939707104E+02  0.57939707104E+02  0.00000000000E+00 0. -1.
         21   -1    0    0  501  502 -0.00000000000E+00 -0.00000000000E+00 -0.67419222416E+02  0.67419222416E+02  0.00000000000E+00 0. -1.
         25    1    1    2    0    0  0.00000000000E+00  0.00000000000E+00 -0.94795153120E+01  0.12535892952E+03  0.12500000000E+03 0.  0.
<mgrwt>
<rscale>  0 0.12500000E+03</rscale>
<asrwt>0</asrwt>
<pdfrwt beam="1">  1       21 0.89138012E-02 0.12500000E+03</pdfrwt>
<pdfrwt beam="2">  1       21 0.10372188E-01 0.12500000E+03</pdfrwt>
<totfact> 0.73995117E+06</totfact>
</mgrwt>
</event>
<event>
 3    1  0.1603864E-001  0.1250000E+03  0.7546771E-02  0.1235069E+00
         21   -1    0    0  502  501  0.00000000000E+00  0.00000000000E+00  0.51966723793E+02  0.51966723793E+02  0.00000000000E+00 0.  1.
         21   -1    0    0  501  502 -0.00000000000E+00 -0.00000000000E+00 -0.75168294533E+02  0.75168294533E+02  0.00000000000E+00 0.  1.
         25    1    1    2    0    0  0.00000000000E+00  0.00000000000E+00 -0.23201570740E+02  0.12713501833E+03  0.12500000000E+03 0.  0.
<mgrwt>
<rscale>  0 0.12500000E+03</rscale>
<asrwt>0</asrwt>
<pdfrwt beam="1">  1       21 0.79948806E-02 0.12500000E+03</pdfrwt>
<pdfrwt beam="2">  1       21 0.11564353E-01 0.12500000E+03</pdfrwt>
<totfact> 0.73750767E+06</totfact>
</mgrwt>
</event>
<event>
 3    1  0.1603864E-001  0.1250000E+03  0.7546771E-02  0.1235069E+00
         21   -1    0    0  502  501  0.00000000000E+00  0.00000000000E+00  0.25693967580E+03  0.25693967580E+03  0.00000000000E+00 0. -1.
         21   -1    0    0  501  502 -0.00000000000E+00 -0.00000000000E+00 -0.15202984856E+02  0.15202984856E+02  0.00000000000E+00 0. -1.
         25    1    1    2    0    0  0.00000000000E+00  0.00000000000E+00  0.24173669094E+03  0.27214266065E+03  0.12500000000E+03 0.  0.
<mgrwt>
<rscale>  0 0.12500000E+03</rscale>
<asrwt>0</asrwt>
<pdfrwt beam="1">  1       21 0.39529178E-01 0.12500000E+03</pdfrwt>
<pdfrwt beam="2">  1       21 0.23389209E-02 0.12500000E+03</pdfrwt>
<totfact> 0.57853703E+06</totfact>
</mgrwt>
</event>
<event>
 3    1  0.1603864E-001  0.1250000E+03  0.7546771E-02  0.1235069E+00
         21   -1    0    0  502  501  0.00000000000E+00  0.00000000000E+00  0.12391186414E+02  0.12391186414E+02  0.00000000000E+00 0. -1.
         21   -1    0    0  501  502 -0.00000000000E+00 -0.00000000000E+00 -0.31524422840E+03  0.31524422840E+03  0.00000000000E+00 0. -1.
         25    1    1    2    0    0  0.00000000000E+00  0.00000000000E+00 -0.30285304199E+03  0.32763541481E+03  0.12500000000E+03 0.  0.
<mgrwt>
<rscale>  0 0.12500000E+03</rscale>
<asrwt>0</asrwt>
<pdfrwt beam="1">  1       21 0.19063363E-02 0.12500000E+03</pdfrwt>
<pdfrwt beam="2">  1       21 0.48499114E-01 0.12500000E+03</pdfrwt>
<totfact> 0.53233767E+06</totfact>
</mgrwt>
</event>
<event>
 3    1  0.1603864E-001  0.1250000E+03  0.7546771E-02  0.1235069E+00
         21   -1    0    0  502  501  0.00000000000E+00  0.00000000000E+00  0.19742760790E+03  0.19742760790E+03  0.00000000000E+00 0. -1.
         21   -1    0    0  501  502 -0.00000000000E+00 -0.00000000000E+00 -0.19785733321E+02  0.19785733321E+02  0.00000000000E+00 0. -1.
         25    1    1    2    0    0  0.00000000000E+00  0.00000000000E+00  0.17764187458E+03  0.21721334122E+03  0.12500000000E+03 0.  0.
<mgrwt>
<rscale>  0 0.12500000E+03</rscale>
<asrwt>0</asrwt>
<pdfrwt beam="1">  1       21 0.30373477E-01 0.12500000E+03</pdfrwt>
<pdfrwt beam="2">  1       21 0.30439591E-02 0.12500000E+03</pdfrwt>
<totfact> 0.63108510E+06</totfact>
</mgrwt>
</event>
<event>
 3    1  0.1603864E-001  0.1250000E+03  0.7546771E-02  0.1235069E+00
         21   -1    0    0  502  501  0.00000000000E+00  0.00000000000E+00  0.54116748271E+02  0.54116748271E+02  0.00000000000E+00 0. -1.
         21   -1    0    0  501  502 -0.00000000000E+00 -0.00000000000E+00 -0.72181905322E+02  0.72181905322E+02  0.00000000000E+00 0. -1.
         25    1    1    2    0    0  0.00000000000E+00  0.00000000000E+00 -0.18065157051E+02  0.12629865359E+03  0.12500000000E+03 0.  0.
<mgrwt>
<rscale>  0 0.12500000E+03</rscale>
<asrwt>0</asrwt>
<pdfrwt beam="1">  1       21 0.83256536E-02 0.12500000E+03</pdfrwt>
<pdfrwt beam="2">  1       21 0.11104908E-01 0.12500000E+03</pdfrwt>
<totfact> 0.73864963E+06</totfact>
</mgrwt>
</event>
<event>
 3    1  0.1603864E-001  0.1250000E+03  0.7546771E-02  0.1235069E+00
         21   -1    0    0  502  501  0.00000000000E+00  0.00000000000E+00  0.10409267143E+02  0.10409267143E+02  0.00000000000E+00 0.  1.
         21   -1    0    0  501  502 -0.00000000000E+00 -0.00000000000E+00 -0.37526657220E+03  0.37526657220E+03  0.00000000000E+00 0.  1.
         25    1    1    2    0    0  0.00000000000E+00  0.00000000000E+00 -0.36485730505E+03  0.38567583934E+03  0.12500000000E+03 0.  0.
<mgrwt>
<rscale>  0 0.12500000E+03</rscale>
<asrwt>0</asrwt>
<pdfrwt beam="1">  1       21 0.16014261E-02 0.12500000E+03</pdfrwt>
<pdfrwt beam="2">  1       21 0.57733306E-01 0.12500000E+03</pdfrwt>
<totfact> 0.49006203E+06</totfact>
</mgrwt>
</event>
<event>
 3    1  0.1603864E-001  0.1250000E+03  0.7546771E-02  0.1235069E+00
         21   -1    0    0  502  501  0.00000000000E+00  0.00000000000E+00  0.98568608502E+02  0.98568608502E+02  0.00000000000E+00 0.  1.
         21   -1    0    0  501  502 -0.00000000000E+00 -0.00000000000E+00 -0.39629756972E+02  0.39629756972E+02  0.00000000000E+00 0.  1.
         25    1    1    2    0    0  0.00000000000E+00  0.00000000000E+00  0.58938851531E+02  0.13819836547E+03  0.12500000000E+03 0.  0.
<mgrwt>
<rscale>  0 0.12500000E+03</rscale>
<asrwt>0</asrwt>
<pdfrwt beam="1">  1       21 0.15164401E-01 0.12500000E+03</pdfrwt>
<pdfrwt beam="2">  1       21 0.60968857E-02 0.12500000E+03</pdfrwt>
<totfact> 0.72275389E+06</totfact>
</mgrwt>
</event>
<event>
 3    1  0.1603864E-001  0.1250000E+03  0.7546771E-02  0.1235069E+00
         21   -1    0    0  502  501  0.00000000000E+00  0.00000000000E+00  0.76699481127E+01  0.76699481127E+01  0.00000000000E+00 0.  1.
         21   -1    0    0  501  502 -0.00000000000E+00 -0.00000000000E+00 -0.50929288472E+03  0.50929288472E+03  0.00000000000E+00 0.  1.
         25    1    1    2    0    0  0.00000000000E+00  0.00000000000E+00 -0.50162293661E+03  0.51696283284E+03  0.12500000000E+03 0.  0.
<mgrwt>
<rscale>  0 0.12500000E+03</rscale>
<asrwt>0</asrwt>
<pdfrwt beam="1">  1       21 0.11799917E-02 0.12500000E+03</pdfrwt>
<pdfrwt beam="2">  1       21 0.78352772E-01 0.12500000E+03</pdfrwt>
<totfact> 0.41138823E+06</totfact>
</mgrwt>
</event>
<event>
 3    1  0.1603864E-001  0.1250000E+03  0.7546771E-02  0.1235069E+00
         21   -1    0    0  502  501  0.00000000000E+00  0.00000000000E+00  0.31089070414E+02  0.31089070414E+02  0.00000000000E+00 0. -1.
         21   -1    0    0  501  502 -0.00000000000E+00 -0.00000000000E+00 -0.12564705049E+03  0.12564705049E+03  0.00000000000E+00 0. -1.
         25    1    1    2    0    0  0.00000000000E+00  0.00000000000E+00 -0.94557980076E+02  0.15673612090E+03  0.12500000000E+03 0.  0.
<mgrwt>
<rscale>  0 0.12500000E+03</rscale>
<asrwt>0</asrwt>
<pdfrwt beam="1">  1       21 0.47829339E-02 0.12500000E+03</pdfrwt>
<pdfrwt beam="2">  1       21 0.19330316E-01 0.12500000E+03</pdfrwt>
<totfact> 0.69920521E+06</totfact>
</mgrwt>
</event>
<event>
 3    1  0.1603864E-001  0.1250000E+03  0.7546771E-02  0.1235069E+00
         21   -1    0    0  502  501  0.00000000000E+00  0.00000000000E+00  0.30017395703E+03  0.30017395703E+03  0.00000000000E+00 0. -1.
         21   -1    0    0  501  502 -0.00000000000E+00 -0.00000000000E+00 -0.13013287491E+02  0.13013287491E+02  0.00000000000E+00 0. -1.
         25    1    1    2    0    0  0.00000000000E+00  0.00000000000E+00  0.28716066954E+03  0.31318724452E+03  0.12500000000E+03 0.  0.
<mgrwt>
<rscale>  0 0.12500000E+03</rscale>
<asrwt>0</asrwt>
<pdfrwt beam="1">  1       21 0.46180604E-01 0.12500000E+03</pdfrwt>
<pdfrwt beam="2">  1       21 0.20020445E-02 0.12500000E+03</pdfrwt>
<totfact> 0.54377675E+06</totfact>
</mgrwt>
</event>
<event>
 3    1  0.1603864E-001  0.1250000E+03  0.7546771E-02  0.1235069E+00
         21   -1    0    0  502  501  0.00000000000E+00  0.00000000000E+00  0.32407531990E+03  0.32407531990E+03  0.00000000000E+00 0.  1.
         21   -1    0    0  501  502 -0.00000000000E+00 -0.00000000000E+00 -0.12053525092E+02  0.12053525092E+02  0.00000000000E+00 0.  1.
         25    1    1    2    0    0  0.00000000000E+00  0.00000000000E+00  0.31202179480E+03  0.33612884499E+03  0.12500000000E+03 0.  0.
<mgrwt>
<rscale>  0 0.12500000E+03</rscale>
<asrwt>0</asrwt>
<pdfrwt beam="1">  1       21 0.49857735E-01 0.12500000E+03</pdfrwt>
<pdfrwt beam="2">  1       21 0.18543887E-02 0.12500000E+03</pdfrwt>
<totfact> 0.52579465E+06</totfact>
</mgrwt>
</event>
<event>
 3    1  0.1603864E-001  0.1250000E+03  0.7546771E-02  0.1235069E+00
         21   -1    0    0  502  501  0.00000000000E+00  0.00000000000E+00  0.17055340996E+02  0.17055340996E+02  0.00000000000E+00 0. -1.
         21   -1    0    0  501  502 -0.00000000000E+00 -0.00000000000E+00 -0.22903382588E+03  0.22903382588E+03  0.00000000000E+00 0. -1.
         25    1    1    2    0    0  0.00000000000E+00  0.00000000000E+00 -0.21197848489E+03  0.24608916688E+03  0.12500000000E+03 0.  0.
<mgrwt>
<rscale>  0 0.12500000E+03</rscale>
<asrwt>0</asrwt>
<pdfrwt beam="1">  1       21 0.26238986E-02 0.12500000E+03</pdfrwt>
<pdfrwt beam="2">  1       21 0.35235973E-01 0.12500000E+03</pdfrwt>
<totfact> 0.60248355E+06</totfact>
</mgrwt>
</event>
<event>
 3    1  0.1603864E-001  0.1250000E+03  0.7546771E-02  0.1235069E+00
         21   -1    0    0  502  501  0.00000000000E+00  0.00000000000E+00  0.65460007469E+02  0.65460007469E+02  0.00000000000E+00 0.  1.
         21   -1    0    0  501  502 -0.00000000000E+00 -0.00000000000E+00 -0.59673839815E+02  0.59673839815E+02  0.00000000000E+00 0.  1.
         25    1    1    2    0    0  0.00000000000E+00  0.00000000000E+00  0.57861676542E+01  0.12513384728E+03  0.12500000000E+03 0.  0.
<mgrwt>
<rscale>  0 0.12500000E+03</rscale>
<asrwt>0</asrwt>
<pdfrwt beam="1">  1       21 0.10070770E-01 0.12500000E+03</pdfrwt>
<pdfrwt beam="2">  1       21 0.91805907E-02 0.12500000E+03</pdfrwt>
<totfact> 0.74025504E+06</totfact>
</mgrwt>
</event>
<event>
 3    1  0.1603864E-001  0.1250000E+03  0.7546771E-02  0.1235069E+00
         21   -1    0    0  502  501  0.00000000000E+00  0.00000000000E+00  0.26073797666E+02  0.26073797666E+02  0.00000000000E+00 0.  1.
         21   -1    0    0  501  502 -0.00000000000E+00 -0.00000000000E+00 -0.14981515352E+03  0.14981515352E+03  0.00000000000E+00 0.  1.
         25    1    1    2    0    0  0.00000000000E+00  0.00000000000E+00 -0.12374135585E+03  0.17588895118E+03  0.12500000000E+03 0.  0.
<mgrwt>
<rscale>  0 0.12500000E+03</rscale>
<asrwt>0</asrwt>
<pdfrwt beam="1">  1       21 0.40113536E-02 0.12500000E+03</pdfrwt>
<pdfrwt beam="2">  1       21 0.23048485E-01 0.12500000E+03</pdfrwt>
<totfact> 0.67626301E+06</totfact>
</mgrwt>
</event>
<event>
 3    1  0.1603864E-001  0.1250000E+03  0.7546771E-02  0.1235069E+00
         21   -1    0    0  502  501  0.00000000000E+00  0.00000000000E+00  0.46775401492E+02  0.46775401492E+02  0.00000000000E+00 0. -1.
         21   -1    0    0  501  502 -0.00000000000E+00 -0.00000000000E+00 -0.83510774369E+02  0.83510774369E+02  0.00000000000E+00 0. -1.
         25    1    1    2    0    0  0.00000000000E+00  0.00000000000E+00 -0.36735372878E+02  0.13028617586E+03  0.12500000000E+03 0.  0.
<mgrwt>
<rscale>  0 0.12500000E+03</rscale>
<asrwt>0</asrwt>
<pdfrwt beam="1">  1       21 0.71962157E-02 0.12500000E+03</pdfrwt>
<pdfrwt beam="2">  1       21 0.12847811E-01 0.12500000E+03</pdfrwt>
<totfact> 0.73326692E+06</totfact>
</mgrwt>
</event>
<event>
 3    1  0.1603864E-001  0.1250000E+03  0.7546771E-02  0.1235069E+00
         21   -1    0    0  502  501  0.00000000000E+00  0.00000000000E+00  0.32041805834E+02  0.32041805834E+02  0.00000000000E+00 0. -1.
         21   -1    0    0  501  502 -0.00000000000E+00 -0.00000000000E+00 -0.12191104397E+03  0.12191104397E+03  0.00000000000E+00 0. -1.
         25    1    1    2    0    0  0.00000000000E+00  0.00000000000E+00 -0.89869238138E+02  0.15395284981E+03  0.12500000000E+03 0.  0.
<mgrwt>
<rscale>  0 0.12500000E+03</rscale>
<asrwt>0</asrwt>
<pdfrwt beam="1">  1       21 0.49295086E-02 0.12500000E+03</pdfrwt>
<pdfrwt beam="2">  1       21 0.18755545E-01 0.12500000E+03</pdfrwt>
<totfact> 0.70266040E+06</totfact>
</mgrwt>
</event>
<event>
 3    1  0.1603864E-001  0.1250000E+03  0.7546771E-02  0.1235069E+00
         21   -1    0    0  502  501  0.00000000000E+00  0.00000000000E+00  0.41560274566E+03  0.41560274566E+03  0.00000000000E+00 0. -1.
         21   -1    0    0  501  502 -0.00000000000E+00 -0.00000000000E+00 -0.93989995033E+01  0.93989995033E+01  0.00000000000E+00 0. -1.
         25    1    1    2    0    0  0.00000000000E+00  0.00000000000E+00  0.40620374615E+03  0.42500174516E+03  0.12500000000E+03 0.  0.
<mgrwt>
<rscale>  0 0.12500000E+03</rscale>
<asrwt>0</asrwt>
<pdfrwt beam="1">  1       21 0.63938870E-01 0.12500000E+03</pdfrwt>
<pdfrwt beam="2">  1       21 0.14460002E-02 0.12500000E+03</pdfrwt>
<totfact> 0.46426057E+06</totfact>
</mgrwt>
</event>
<event>
 3    1  0.1603864E-001  0.1250000E+03  0.7546771E-02  0.1235069E+00
         21   -1    0    0  502  501  0.00000000000E+00  0.00000000000E+00  0.22038143425E+03  0.22038143425E+03  0.00000000000E+00 0.  1.
         21   -1    0    0  501  502 -0.00000000000E+00 -0.00000000000E+00 -0.17724950440E+02  0.17724950440E+02  0.00000000000E+00 0.  1.
         25    1    1    2    0    0  0.00000000000E+00  0.00000000000E+00  0.20265648381E+03  0.23810638469E+03  0.12500000000E+03 0.  0.
<mgrwt>
<rscale>  0 0.12500000E+03</rscale>
<asrwt>0</asrwt>
<pdfrwt beam="1">  1       21 0.33904834E-01 0.12500000E+03</pdfrwt>
<pdfrwt beam="2">  1       21 0.27269156E-02 0.12500000E+03</pdfrwt>
<totfact> 0.61016387E+06</totfact>
</mgrwt>
</event>
<event>
 3    1  0.1603864E-001  0.1250000E+03  0.7546771E-02  0.1235069E+00
         21   -1    0    0  502  501  0.00000000000E+00  0.00000000000E+00  0.31065152646E+03  0.31065152646E+03  0.00000000000E+00 0. -1.
         21   -1    0    0  501  502 -0.00000000000E+00 -0.00000000000E+00 -0.12574378901E+02  0.12574378901E+02  0.00000000000E+00 0. -1.
         25    1    1    2    0    0  0.00000000000E+00  0.00000000000E+00  0.29807714756E+03  0.32322590536E+03  0.12500000000E+03 0.  0.
<mgrwt>
<rscale>  0 0.12500000E+03</rscale>
<asrwt>0</asrwt>
<pdfrwt beam="1">  1       21 0.47792537E-01 0.12500000E+03</pdfrwt>
<pdfrwt beam="2">  1       21 0.19345201E-02 0.12500000E+03</pdfrwt>
<totfact> 0.53578695E+06</totfact>
</mgrwt>
</event>
<event>
 3    1  0.1603864E-001  0.1250000E+03  0.7546771E-02  0.1235069E+00
         21   -1    0    0  502  501  0.00000000000E+00  0.00000000000E+00  0.20984955579E+02  0.20984955579E+02  0.00000000000E+00 0.  1.
         21   -1    0    0  501  502 -0.00000000000E+00 -0.00000000000E+00 -0.18614525941E+03  0.18614525941E+03  0.00000000000E+00 0.  1.
         25    1    1    2    0    0  0.00000000000E+00  0.00000000000E+00 -0.16516030383E+03  0.20713021499E+03  0.12500000000E+03 0.  0.
<mgrwt>
<rscale>  0 0.12500000E+03</rscale>
<asrwt>0</asrwt>
<pdfrwt beam="1">  1       21 0.32284548E-02 0.12500000E+03</pdfrwt>
<pdfrwt beam="2">  1       21 0.28637731E-01 0.12500000E+03</pdfrwt>
<totfact> 0.64162741E+06</totfact>
</mgrwt>
</event>
<event>
 3    1  0.1603864E-001  0.1250000E+03  0.7546771E-02  0.1235069E+00
         21   -1    0    0  502  501  0.00000000000E+00  0.00000000000E+00  0.44160706790E+03  0.44160706790E+03  0.00000000000E+00 0. -1.
         21   -1    0    0  501  502 -0.00000000000E+00 -0.00000000000E+00 -0.88455332442E+01  0.88455332442E+01  0.00000000000E+00 0. -1.
         25    1    1    2    0    0  0.00000000000E+00  0.00000000000E+00  0.43276153466E+03  0.45045260114E+03  0.12500000000E+03 0.  0.
<mgrwt>
<rscale>  0 0.12500000E+03</rscale>
<asrwt>0</asrwt>
<pdfrwt beam="1">  1       21 0.67939532E-01 0.12500000E+03</pdfrwt>
<pdfrwt beam="2">  1       21 0.13608516E-02 0.12500000E+03</pdfrwt>
<totfact> 0.44865205E+06</totfact>
</mgrwt>
</event>
<event>
 3    1  0.1603864E-001  0.1250000E+03  0.7546771E-02  0.1235069E+00
         21   -1    0    0  502  501  0.00000000000E+00  0.00000000000E+00  0.67397426334E+03  0.67397426334E+03  0.00000000000E+00 0.  1.
         21   -1    0    0  501  502 -0.00000000000E+00 -0.00000000000E+00 -0.57958444595E+01  0.57958444595E+01  0.00000000000E+00 0.  1.
         25    1    1    2    0    0  0.00000000000E+00  0.00000000000E+00  0.66817841888E+03  0.67977010780E+03  0.12500000000E+03 0.  0.
<mgrwt>
<rscale>  0 0.12500000E+03</rscale>
<asrwt>0</asrwt>
<pdfrwt beam="1">  1       21 0.10368829E+00 0.12500000E+03</pdfrwt>
<pdfrwt beam="2">  1       21 0.89166891E-03 0.12500000E+03</pdfrwt>
<totfact> 0.33704779E+06</totfact>
</mgrwt>
</event>
<event>
 3    1  0.1603864E-001  0.1250000E+03  0.7546771E-02  0.1235069E+00
         21   -1    0    0  502  501  0.00000000000E+00  0.00000000000E+00  0.12794124025E+03  0.12794124025E+03  0.00000000000E+00 0. -1.
         21   -1    0    0  501  502 -0.00000000000E+00 -0.00000000000E+00 -0.30531593976E+02  0.30531593976E+02  0.00000000000E+00 0. -1.
         25    1    1    2    0    0  0.00000000000E+00  0.00000000000E+00  0.97409646269E+02  0.15847283422E+03  0.12500000000E+03 0.  0.
<mgrwt>
<rscale>  0 0.12500000E+03</rscale>
<asrwt>0</asrwt>
<pdfrwt beam="1">  1       21 0.19683268E-01 0.12500000E+03</pdfrwt>
<pdfrwt beam="2">  1       21 0.46971684E-02 0.12500000E+03</pdfrwt>
<totfact> 0.69706582E+06</totfact>
</mgrwt>
</event>
<event>
 3    1  0.1603864E-001  0.1250000E+03  0.7546771E-02  0.1235069E+00
         21   -1    0    0  502  501  0.00000000000E+00  0.00000000000E+00  0.15761213211E+04  0.15761213211E+04  0.00000000000E+00 0. -1.
         21   -1    0    0  501  502 -0.00000000000E+00 -0.00000000000E+00 -0.24783942377E+01  0.24783942377E+01  0.00000000000E+00 0. -1.
         25    1    1    2    0    0  0.00000000000E+00  0.00000000000E+00  0.15736429268E+04  0.15785997153E+04  0.12500000000E+03 0.  0.
<mgrwt>
<rscale>  0 0.12500000E+03</rscale>
<asrwt>0</asrwt>
<pdfrwt beam="1">  1       21 0.24247940E+00 0.12500000E+03</pdfrwt>
<pdfrwt beam="2">  1       21 0.38129268E-03 0.12500000E+03</pdfrwt>
<totfact> 0.12866956E+06</totfact>
</mgrwt>
</event>
<event>
 3    1  0.1603864E-001  0.1250000E+03  0.7546771E-02  0.1235069E+00
         21   -1    0    0  502  501  0.00000000000E+00  0.00000000000E+00  0.21279677079E+02  0.21279677079E+02  0.00000000000E+00 0.  1.
         21   -1    0    0  501  502 -0.00000000000E+00 -0.00000000000E+00 -0.18356716531E+03  0.18356716531E+03  0.00000000000E+00 0.  1.
         25    1    1    2    0    0  0.00000000000E+00  0.00000000000E+00 -0.16228748823E+03  0.20484684239E+03  0.12500000000E+03 0.  0.
<mgrwt>
<rscale>  0 0.12500000E+03</rscale>
<asrwt>0</asrwt>
<pdfrwt beam="1">  1       21 0.32737967E-02 0.12500000E+03</pdfrwt>
<pdfrwt beam="2">  1       21 0.28241100E-01 0.12500000E+03</pdfrwt>
<totfact> 0.64405820E+06</totfact>
</mgrwt>
</event>
<event>
 3    1  0.1603864E-001  0.1250000E+03  0.7546771E-02  0.1235069E+00
         21   -1    0    0  502  501  0.00000000000E+00  0.00000000000E+00  0.12827540796E+02  0.12827540796E+02  0.00000000000E+00 0. -1.
         21   -1    0    0  501  502 -0.00000000000E+00 -0.00000000000E+00 -0.30452056728E+03  0.30452056728E+03  0.00000000000E+00 0. -1.
         25    1    1    2    0    0  0.00000000000E+00  0.00000000000E+00 -0.29169302648E+03  0.31734810807E+03  0.12500000000E+03 0.  0.
<mgrwt>
<rscale>  0 0.12500000E+03</rscale>
<asrwt>0</asrwt>
<pdfrwt beam="1">  1       21 0.19734676E-02 0.12500000E+03</pdfrwt>
<pdfrwt beam="2">  1       21 0.46849324E-01 0.12500000E+03</pdfrwt>
<totfact> 0.54044160E+06</totfact>
</mgrwt>
</event>
<event>
 3    1  0.1603864E-001  0.1250000E+03  0.7546771E-02  0.1235069E+00
         21   -1    0    0  502  501  0.00000000000E+00  0.00000000000E+00  0.44921122472E+02  0.44921122472E+02  0.00000000000E+00 0.  1.
         21   -1    0    0  501  502 -0.00000000000E+00 -0.00000000000E+00 -0.86957978453E+02  0.86957978453E+02  0.00000000000E+00 0.  1.
         25    1    1    2    0    0  0.00000000000E+00  0.00000000000E+00 -0.42036855981E+02  0.13187910092E+03  0.12500000000E+03 0.  0.
<mgrwt>
<rscale>  0 0.12500000E+03</rscale>
<asrwt>0</asrwt>
<pdfrwt beam="1">  1       21 0.69109420E-02 0.12500000E+03</pdfrwt>
<pdfrwt beam="2">  1       21 0.13378150E-01 0.12500000E+03</pdfrwt>
<totfact> 0.73112450E+06</totfact>
</mgrwt>
</event>
<event>
 3    1  0.1603864E-001  0.1250000E+03  0.7546771E-02  0.1235069E+00
         21   -1    0    0  502  501  0.00000000000E+00  0.00000000000E+00  0.52697937913E+02  0.52697937913E+02  0.00000000000E+00 0.  1.
         21   -1    0    0  501  502 -0.00000000000E+00 -0.00000000000E+00 -0.74125291324E+02  0.74125291324E+02  0.00000000000E+00 0.  1.
         25    1    1    2    0    0  0.00000000000E+00  0.00000000000E+00 -0.21427353411E+02  0.12682322924E+03  0.12500000000E+03 0.  0.
<mgrwt>
<rscale>  0 0.12500000E+03</rscale>
<asrwt>0</asrwt>
<pdfrwt beam="1">  1       21 0.81073751E-02 0.12500000E+03</pdfrwt>
<pdfrwt beam="2">  1       21 0.11403891E-01 0.12500000E+03</pdfrwt>
<totfact> 0.73793220E+06</totfact>
</mgrwt>
</event>
<event>
 3    1  0.1603864E-001  0.1250000E+03  0.7546771E-02  0.1235069E+00
         21   -1    0    0  502  501  0.00000000000E+00  0.00000000000E+00  0.27719141627E+03  0.27719141627E+03  0.00000000000E+00 0.  1.
         21   -1    0    0  501  502 -0.00000000000E+00 -0.00000000000E+00 -0.14092247345E+02  0.14092247345E+02  0.00000000000E+00 0.  1.
         25    1    1    2    0    0  0.00000000000E+00  0.00000000000E+00  0.26309916893E+03  0.29128366362E+03  0.12500000000E+03 0.  0.
<mgrwt>
<rscale>  0 0.12500000E+03</rscale>
<asrwt>0</asrwt>
<pdfrwt beam="1">  1       21 0.42644829E-01 0.12500000E+03</pdfrwt>
<pdfrwt beam="2">  1       21 0.21680383E-02 0.12500000E+03</pdfrwt>
<totfact> 0.56188406E+06</totfact>
</mgrwt>
</event>
<event>
 3    1  0.1603864E-001  0.1250000E+03  0.7546771E-02  0.1235069E+00
         21   -1    0    0  502  501  0.00000000000E+00  0.00000000000E+00  0.99412475708E+03  0.99412475708E+03  0.00000000000E+00 0. -1.
         21   -1    0    0  501  502 -0.00000000000E+00 -0.00000000000E+00 -0.39293358023E+01  0.39293358023E+01  0.00000000000E+00 0. -1.
         25    1    1    2    0    0  0.00000000000E+00  0.00000000000E+00  0.99019542128E+03  0.99805409289E+03  0.12500000000E+03 0.  0.
<mgrwt>
<rscale>  0 0.12500000E+03</rscale>
<asrwt>0</asrwt>
<pdfrwt beam="1">  1       21 0.15294207E+00 0.12500000E+03</pdfrwt>
<pdfrwt beam="2">  1       21 0.60451399E-03 0.12500000E+03</pdfrwt>
<totfact> 0.23667389E+06</totfact>
</mgrwt>
</event>
<event>
 3    1  0.1603864E-001  0.1250000E+03  0.7546771E-02  0.1235069E+00
         21   -1    0    0  502  501  0.00000000000E+00  0.00000000000E+00  0.85724606769E+01  0.85724606769E+01  0.00000000000E+00 0.  1.
         21   -1    0    0  501  502 -0.00000000000E+00 -0.00000000000E+00 -0.45567429788E+03  0.45567429788E+03  0.00000000000E+00 0.  1.
         25    1    1    2    0    0  0.00000000000E+00  0.00000000000E+00 -0.44710183720E+03  0.46424675855E+03  0.12500000000E+03 0.  0.
<mgrwt>
<rscale>  0 0.12500000E+03</rscale>
<asrwt>0</asrwt>
<pdfrwt beam="1">  1       21 0.13188402E-02 0.12500000E+03</pdfrwt>
<pdfrwt beam="2">  1       21 0.70103733E-01 0.12500000E+03</pdfrwt>
<totfact> 0.44051869E+06</totfact>
</mgrwt>
</event>
<event>
 3    1  0.1603864E-001  0.1250000E+03  0.7546771E-02  0.1235069E+00
         21   -1    0    0  502  501  0.00000000000E+00  0.00000000000E+00  0.98033641513E+02  0.98033641513E+02  0.00000000000E+00 0. -1.
         21   -1    0    0  501  502 -0.00000000000E+00 -0.00000000000E+00 -0.39846015508E+02  0.39846015508E+02  0.00000000000E+00 0. -1.
         25    1    1    2    0    0  0.00000000000E+00  0.00000000000E+00  0.58187626005E+02  0.13787965702E+03  0.12500000000E+03 0.  0.
<mgrwt>
<rscale>  0 0.12500000E+03</rscale>
<asrwt>0</asrwt>
<pdfrwt beam="1">  1       21 0.15082099E-01 0.12500000E+03</pdfrwt>
<pdfrwt beam="2">  1       21 0.61301563E-02 0.12500000E+03</pdfrwt>
<totfact> 0.72317338E+06</totfact>
</mgrwt>
</event>
<event>
 3    1  0.1603864E-001  0.1250000E+03  0.7546771E-02  0.1235069E+00
         21   -1    0    0  502  501  0.00000000000E+00  0.00000000000E+00  0.15175570659E+03  0.15175570659E+03  0.00000000000E+00 0. -1.
         21   -1    0    0  501  502 -0.00000000000E+00 -0.00000000000E+00 -0.25740382934E+02  0.25740382934E+02  0.00000000000E+00 0. -1.
         25    1    1    2    0    0  0.00000000000E+00  0.00000000000E+00  0.12601532366E+03  0.17749608952E+03  0.12500000000E+03 0.  0.
<mgrwt>
<rscale>  0 0.12500000E+03</rscale>
<asrwt>0</asrwt>
<pdfrwt beam="1">  1       21 0.23347031E-01 0.12500000E+03</pdfrwt>
<pdfrwt beam="2">  1       21 0.39600590E-02 0.12500000E+03</pdfrwt>
<totfact> 0.67439944E+06</totfact>
</mgrwt>
</event>
<event>
 3    1  0.1603864E-001  0.1250000E+03  0.7546771E-02  0.1235069E+00
         21   -1    0    0  502  501  0.00000000000E+00  0.00000000000E+00  0.56216133171E+02  0.56216133171E+02  0.00000000000E+00 0.  1.
         21   -1    0    0  501  502 -0.00000000000E+00 -0.00000000000E+00 -0.69486280533E+02  0.69486280533E+02  0.00000000000E+00 0.  1.
         25    1    1    2    0    0  0.00000000000E+00  0.00000000000E+00 -0.13270147361E+02  0.12570241370E+03  0.12500000000E+03 0.  0.
<mgrwt>
<rscale>  0 0.12500000E+03</rscale>
<asrwt>0</asrwt>
<pdfrwt beam="1">  1       21 0.86486359E-02 0.12500000E+03</pdfrwt>
<pdfrwt beam="2">  1       21 0.10690197E-01 0.12500000E+03</pdfrwt>
<totfact> 0.73947202E+06</totfact>
</mgrwt>
</event>
<event>
 3    1  0.1603864E-001  0.1250000E+03  0.7546771E-02  0.1235069E+00
         21   -1    0    0  502  501  0.00000000000E+00  0.00000000000E+00  0.11938193703E+02  0.11938193703E+02  0.00000000000E+00 0.  1.
         21   -1    0    0  501  502 -0.00000000000E+00 -0.00000000000E+00 -0.32720611654E+03  0.32720611654E+03  0.00000000000E+00 0.  1.
         25    1    1    2    0    0  0.00000000000E+00  0.00000000000E+00 -0.31526792283E+03  0.33914431024E+03  0.12500000000E+03 0.  0.
<mgrwt>
<rscale>  0 0.12500000E+03</rscale>
<asrwt>0</asrwt>
<pdfrwt beam="1">  1       21 0.18366455E-02 0.12500000E+03</pdfrwt>
<pdfrwt beam="2">  1       21 0.50339395E-01 0.12500000E+03</pdfrwt>
<totfact> 0.52350289E+06</totfact>
</mgrwt>
</event>
<event>
 3    1  0.1603864E-001  0.1250000E+03  0.7546771E-02  0.1235069E+00
         21   -1    0    0  502  501  0.00000000000E+00  0.00000000000E+00  0.41250285235E+01  0.41250285235E+01  0.00000000000E+00 0.  1.
         21   -1    0    0  501  502 -0.00000000000E+00 -0.00000000000E+00 -0.94696314891E+03  0.94696314891E+03  0.00000000000E+00 0.  1.
         25    1    1    2    0    0  0.00000000000E+00  0.00000000000E+00 -0.94283812039E+03  0.95108817743E+03  0.12500000000E+03 0.  0.
<mgrwt>
<rscale>  0 0.12500000E+03</rscale>
<asrwt>0</asrwt>
<pdfrwt beam="1">  1       21 0.63462024E-03 0.12500000E+03</pdfrwt>
<pdfrwt beam="2">  1       21 0.14568653E+00 0.12500000E+03</pdfrwt>
<totfact> 0.24882310E+06</totfact>
</mgrwt>
</event>
<event>
 3    1  0.1603864E-001  0.1250000E+03  0.7546771E-02  0.1235069E+00
         21   -1    0    0  502  501  0.00000000000E+00  0.00000000000E+00  0.24433515762E+03  0.24433515762E+03  0.00000000000E+00 0. -1.
         21   -1    0    0  501  502 -0.00000000000E+00 -0.00000000000E+00 -0.15987261260E+02  0.15987261260E+02  0.00000000000E+00 0. -1.
         25    1    1    2    0    0  0.00000000000E+00  0.00000000000E+00  0.22834789636E+03  0.26032241888E+03  0.12500000000E+03 0.  0.
<mgrwt>
<rscale>  0 0.12500000E+03</rscale>
<asrwt>0</asrwt>
<pdfrwt beam="1">  1       21 0.37590022E-01 0.12500000E+03</pdfrwt>
<pdfrwt beam="2">  1       21 0.24595788E-02 0.12500000E+03</pdfrwt>
<totfact> 0.58919733E+06</totfact>
</mgrwt>
</event>
<event>
 3    1  0.1603864E-001  0.1250000E+03  0.7546771E-02  0.1235069E+00
         21   -1    0    0  502  501  0.00000000000E+00  0.00000000000E+00  0.45762991748E+01  0.45762991748E+01  0.00000000000E+00 0. -1.
         21   -1    0    0  501  502 -0.00000000000E+00 -0.00000000000E+00 -0.85358274247E+03  0.85358274247E+03  0.00000000000E+00 0. -1.
         25    1    1    2    0    0  0.00000000000E+00  0.00000000000E+00 -0.84900644329E+03  0.85815904164E+03  0.12500000000E+03 0.  0.
<mgrwt>
<rscale>  0 0.12500000E+03</rscale>
<asrwt>0</asrwt>
<pdfrwt beam="1">  1       21 0.70404630E-03 0.12500000E+03</pdfrwt>
<pdfrwt beam="2">  1       21 0.13132037E+00 0.12500000E+03</pdfrwt>
<totfact> 0.27524092E+06</totfact>
</mgrwt>
</event>
<event>
 3    1  0.1603864E-001  0.1250000E+03  0.7546771E-02  0.1235069E+00
         21   -1    0    0  502  501  0.00000000000E+00  0.00000000000E+00  0.30155158413E+02  0.30155158413E+02  0.00000000000E+00 0. -1.
         21   -1    0    0  501  502 -0.00000000000E+00 -0.00000000000E+00 -0.12953836775E+03  0.12953836775E+03  0.00000000000E+00 0. -1.
         25    1    1    2    0    0  0.00000000000E+00  0.00000000000E+00 -0.99383209338E+02  0.15969352616E+03  0.12500000000E+03 0.  0.
<mgrwt>
<rscale>  0 0.12500000E+03</rscale>
<asrwt>0</asrwt>
<pdfrwt beam="1">  1       21 0.46392552E-02 0.12500000E+03</pdfrwt>
<pdfrwt beam="2">  1       21 0.19928979E-01 0.12500000E+03</pdfrwt>
<totfact> 0.69556963E+06</totfact>
</mgrwt>
</event>
<event>
 3    1  0.1603864E-001  0.1250000E+03  0.7546771E-02  0.1235069E+00
         21   -1    0    0  502  501  0.00000000000E+00  0.00000000000E+00  0.16491453198E+03  0.16491453198E+03  0.00000000000E+00 0.  1.
         21   -1    0    0  501  502 -0.00000000000E+00 -0.00000000000E+00 -0.23686511753E+02  0.23686511753E+02  0.00000000000E+00 0.  1.
         25    1    1    2    0    0  0.00000000000E+00  0.00000000000E+00  0.14122802023E+03  0.18860104374E+03  0.12500000000E+03 0.  0.
<mgrwt>
<rscale>  0 0.12500000E+03</rscale>
<asrwt>0</asrwt>
<pdfrwt beam="1">  1       21 0.25371466E-01 0.12500000E+03</pdfrwt>
<pdfrwt beam="2">  1       21 0.36440788E-02 0.12500000E+03</pdfrwt>
<totfact> 0.66178283E+06</totfact>
</mgrwt>
</event>
<event>
 3    1  0.1603864E-001  0.1250000E+03  0.7546771E-02  0.1235069E+00
         21   -1    0    0  502  501  0.00000000000E+00  0.00000000000E+00  0.56551186512E+01  0.56551186512E+01  0.00000000000E+00 0.  1.
         21   -1    0    0  501  502 -0.00000000000E+00 -0.00000000000E+00 -0.69074589605E+03  0.69074589605E+03  0.00000000000E+00 0.  1.
         25    1    1    2    0    0  0.00000000000E+00  0.00000000000E+00 -0.68509077740E+03  0.69640101470E+03  0.12500000000E+03 0.  0.
<mgrwt>
<rscale>  0 0.12500000E+03</rscale>
<asrwt>0</asrwt>
<pdfrwt beam="1">  1       21 0.87001918E-03 0.12500000E+03</pdfrwt>
<pdfrwt beam="2">  1       21 0.10626849E+00 0.12500000E+03</pdfrwt>
<totfact> 0.33049383E+06</totfact>
</mgrwt>
</event>
<event>
 3    1  0.1603864E-001  0.1250000E+03  0.7546771E-02  0.1235069E+00
         21   -1    0    0  502  501  0.00000000000E+00  0.00000000000E+00  0.39059484499E+02  0.39059484499E+02  0.00000000000E+00 0.  1.
         21   -1    0    0  501  502 -0.00000000000E+00 -0.00000000000E+00 -0.10000772028E+03  0.10000772028E+03  0.00000000000E+00 0.  1.
         25    1    1    2    0    0  0.00000000000E+00  0.00000000000E+00 -0.60948235778E+02  0.13906720478E+03  0.12500000000E+03 0.  0.
<mgrwt>
<rscale>  0 0.12500000E+03</rscale>
<asrwt>0</asrwt>
<pdfrwt beam="1">  1       21 0.60091515E-02 0.12500000E+03</pdfrwt>
<pdfrwt beam="2">  1       21 0.15385803E-01 0.12500000E+03</pdfrwt>
<totfact> 0.72161318E+06</totfact>
</mgrwt>
</event>
<event>
 3    1  0.1603864E-001  0.1250000E+03  0.7546771E-02  0.1235069E+00
         21   -1    0    0  502  501  0.00000000000E+00  0.00000000000E+00  0.35227221138E+02  0.35227221138E+02  0.00000000000E+00 0.  1.
         21   -1    0    0  501  502 -0.00000000000E+00 -0.00000000000E+00 -0.11088725917E+03  0.11088725917E+03  0.00000000000E+00 0.  1.
         25    1    1    2    0    0  0.00000000000E+00  0.00000000000E+00 -0.75660038028E+02  0.14611448030E+03  0.12500000000E+03 0.  0.
<mgrwt>
<rscale>  0 0.12500000E+03</rscale>
<asrwt>0</asrwt>
<pdfrwt beam="1">  1       21 0.54195725E-02 0.12500000E+03</pdfrwt>
<pdfrwt beam="2">  1       21 0.17059578E-01 0.12500000E+03</pdfrwt>
<totfact> 0.71250777E+06</totfact>
</mgrwt>
</event>
<event>
 3    1  0.1603864E-001  0.1250000E+03  0.7546771E-02  0.1235069E+00
         21   -1    0    0  502  501  0.00000000000E+00  0.00000000000E+00  0.30746161381E+02  0.30746161381E+02  0.00000000000E+00 0. -1.
         21   -1    0    0  501  502 -0.00000000000E+00 -0.00000000000E+00 -0.12704838017E+03  0.12704838017E+03  0.00000000000E+00 0. -1.
         25    1    1    2    0    0  0.00000000000E+00  0.00000000000E+00 -0.96302218794E+02  0.15779454156E+03  0.12500000000E+03 0.  0.
<mgrwt>
<rscale>  0 0.12500000E+03</rscale>
<asrwt>0</asrwt>
<pdfrwt beam="1">  1       21 0.47301786E-02 0.12500000E+03</pdfrwt>
<pdfrwt beam="2">  1       21 0.19545905E-01 0.12500000E+03</pdfrwt>
<totfact> 0.69789988E+06</totfact>
</mgrwt>
</event>
<event>
 3    1  0.1603864E-001  0.1250000E+03  0.7546771E-02  0.1235069E+00
         21   -1    0    0  502  501  0.00000000000E+00  0.00000000000E+00  0.33799102420E+02  0.33799102420E+02  0.00000000000E+00 0.  1.
         21   -1    0    0  501  502 -0.00000000000E+00 -0.00000000000E+00 -0.11557259573E+03  0.11557259573E+03  0.00000000000E+00 0.  1.
         25    1    1    2    0    0  0.00000000000E+00  0.00000000000E+00 -0.81773493310E+02  0.14937169815E+03  0.12500000000E+03 0.  0.
<mgrwt>
<rscale>  0 0.12500000E+03</rscale>
<asrwt>0</asrwt>
<pdfrwt beam="1">  1       21 0.51998618E-02 0.12500000E+03</pdfrwt>
<pdfrwt beam="2">  1       21 0.17780400E-01 0.12500000E+03</pdfrwt>
<totfact> 0.70838216E+06</totfact>
</mgrwt>
</event>
<event>
 3    1  0.1603864E-001  0.1250000E+03  0.7546771E-02  0.1235069E+00
         21   -1    0    0  502  501  0.00000000000E+00  0.00000000000E+00  0.19185145404E+03  0.19185145404E+03  0.00000000000E+00 0.  1.
         21   -1    0    0  501  502 -0.00000000000E+00 -0.00000000000E+00 -0.20360804767E+02  0.20360804767E+02  0.00000000000E+00 0.  1.
         25    1    1    2    0    0  0.00000000000E+00  0.00000000000E+00  0.17149064928E+03  0.21221225881E+03  0.12500000000E+03 0.  0.
<mgrwt>
<rscale>  0 0.12500000E+03</rscale>
<asrwt>0</asrwt>
<pdfrwt beam="1">  1       21 0.29515607E-01 0.12500000E+03</pdfrwt>
<pdfrwt beam="2">  1       21 0.31324316E-02 0.12500000E+03</pdfrwt>
<totfact> 0.63627531E+06</totfact>
</mgrwt>
</event>
<event>
 3    1  0.1603864E-001  0.1250000E+03  0.7546771E-02  0.1235069E+00
         21   -1    0    0  502  501  0.00000000000E+00  0.00000000000E+00  0.50833261784E+03  0.50833261784E+03  0.00000000000E+00 0.  1.
         21   -1    0    0  501  502 -0.00000000000E+00 -0.00000000000E+00 -0.76844370455E+01  0.76844370455E+01  0.00000000000E+00 0.  1.
         25    1    1    2    0    0  0.00000000000E+00  0.00000000000E+00  0.50064818080E+03  0.51601705489E+03  0.12500000000E+03 0.  0.
<mgrwt>
<rscale>  0 0.12500000E+03</rscale>
<asrwt>0</asrwt>
<pdfrwt beam="1">  1       21 0.78204992E-01 0.12500000E+03</pdfrwt>
<pdfrwt beam="2">  1       21 0.11822215E-02 0.12500000E+03</pdfrwt>
<totfact> 0.41188550E+06</totfact>
</mgrwt>
</event>
<event>
 3    1  0.1603864E-001  0.1250000E+03  0.7546771E-02  0.1235069E+00
         21   -1    0    0  502  501  0.00000000000E+00  0.00000000000E+00  0.32208116914E+02  0.32208116914E+02  0.00000000000E+00 0.  1.
         21   -1    0    0  501  502 -0.00000000000E+00 -0.00000000000E+00 -0.12128153938E+03  0.12128153938E+03  0.00000000000E+00 0.  1.
         25    1    1    2    0    0  0.00000000000E+00  0.00000000000E+00 -0.89073422468E+02  0.15348965630E+03  0.12500000000E+03 0.  0.
<mgrwt>
<rscale>  0 0.12500000E+03</rscale>
<asrwt>0</asrwt>
<pdfrwt beam="1">  1       21 0.49550950E-02 0.12500000E+03</pdfrwt>
<pdfrwt beam="2">  1       21 0.18658698E-01 0.12500000E+03</pdfrwt>
<totfact> 0.70323540E+06</totfact>
</mgrwt>
</event>
<event>
 3    1  0.1603864E-001  0.1250000E+03  0.7546771E-02  0.1235069E+00
         21   -1    0    0  502  501  0.00000000000E+00  0.00000000000E+00  0.11775687312E+03  0.11775687312E+03  0.00000000000E+00 0. -1.
         21   -1    0    0  501  502 -0.00000000000E+00 -0.00000000000E+00 -0.33172161389E+02  0.33172161389E+02  0.00000000000E+00 0. -1.
         25    1    1    2    0    0  0.00000000000E+00  0.00000000000E+00  0.84584711735E+02  0.15092903451E+03  0.12500000000E+03 0.  0.
<mgrwt>
<rscale>  0 0.12500000E+03</rscale>
<asrwt>0</asrwt>
<pdfrwt beam="1">  1       21 0.18116442E-01 0.12500000E+03</pdfrwt>
<pdfrwt beam="2">  1       21 0.51034095E-02 0.12500000E+03</pdfrwt>
<totfact> 0.70642692E+06</totfact>
</mgrwt>
</event>
<event>
 3    1  0.1603864E-001  0.1250000E+03  0.7546771E-02  0.1235069E+00
         21   -1    0    0  502  501  0.00000000000E+00  0.00000000000E+00  0.12246907753E+03  0.12246907753E+03  0.00000000000E+00 0.  1.
         21   -1    0    0  501  502 -0.00000000000E+00 -0.00000000000E+00 -0.31895806508E+02  0.31895806508E+02  0.00000000000E+00 0.  1.
         25    1    1    2    0    0  0.00000000000E+00  0.00000000000E+00  0.90573271020E+02  0.15436488404E+03  0.12500000000E+03 0.  0.
<mgrwt>
<rscale>  0 0.12500000E+03</rscale>
<asrwt>0</asrwt>
<pdfrwt beam="1">  1       21 0.18841396E-01 0.12500000E+03</pdfrwt>
<pdfrwt beam="2">  1       21 0.49070472E-02 0.12500000E+03</pdfrwt>
<totfact> 0.70214682E+06</totfact>
</mgrwt>
</event>
<event>
 3    1  0.1603864E-001  0.1250000E+03  0.7546771E-02  0.1235069E+00
         21   -1    0    0  502  501  0.00000000000E+00  0.00000000000E+00  0.25379279569E+02  0.25379279569E+02  0.00000000000E+00 0.  1.
         21   -1    0    0  501  502 -0.00000000000E+00 -0.00000000000E+00 -0.15391492849E+03  0.15391492849E+03  0.00000000000E+00 0.  1.
         25    1    1    2    0    0  0.00000000000E+00  0.00000000000E+00 -0.12853564892E+03  0.17929420806E+03  0.12500000000E+03 0.  0.
<mgrwt>
<rscale>  0 0.12500000E+03</rscale>
<asrwt>0</asrwt>
<pdfrwt beam="1">  1       21 0.39045045E-02 0.12500000E+03</pdfrwt>
<pdfrwt beam="2">  1       21 0.23679220E-01 0.12500000E+03</pdfrwt>
<totfact> 0.67232595E+06</totfact>
</mgrwt>
</event>
<event>
 3    1  0.1603864E-001  0.1250000E+03  0.7546771E-02  0.1235069E+00
         21   -1    0    0  502  501  0.00000000000E+00  0.00000000000E+00  0.24450573088E+03  0.24450573088E+03  0.00000000000E+00 0. -1.
         21   -1    0    0  501  502 -0.00000000000E+00 -0.00000000000E+00 -0.15976108150E+02  0.15976108150E+02  0.00000000000E+00 0. -1.
         25    1    1    2    0    0  0.00000000000E+00  0.00000000000E+00  0.22852962273E+03  0.26048183903E+03  0.12500000000E+03 0.  0.
<mgrwt>
<rscale>  0 0.12500000E+03</rscale>
<asrwt>0</asrwt>
<pdfrwt beam="1">  1       21 0.37616264E-01 0.12500000E+03</pdfrwt>
<pdfrwt beam="2">  1       21 0.24578630E-02 0.12500000E+03</pdfrwt>
<totfact> 0.58905137E+06</totfact>
</mgrwt>
</event>
<event>
 3    1  0.1603864E-001  0.1250000E+03  0.7546771E-02  0.1235069E+00
         21   -1    0    0  502  501  0.00000000000E+00  0.00000000000E+00  0.16933011269E+03  0.16933011269E+03  0.00000000000E+00 0. -1.
         21   -1    0    0  501  502 -0.00000000000E+00 -0.00000000000E+00 -0.23068844271E+02  0.23068844271E+02  0.00000000000E+00 0. -1.
         25    1    1    2    0    0  0.00000000000E+00  0.00000000000E+00  0.14626126842E+03  0.19239895696E+03  0.12500000000E+03 0.  0.
<mgrwt>
<rscale>  0 0.12500000E+03</rscale>
<asrwt>0</asrwt>
<pdfrwt beam="1">  1       21 0.26050786E-01 0.12500000E+03</pdfrwt>
<pdfrwt beam="2">  1       21 0.35490531E-02 0.12500000E+03</pdfrwt>
<totfact> 0.65756830E+06</totfact>
</mgrwt>
</event>
<event>
 3    1  0.1603864E-001  0.1250000E+03  0.7546771E-02  0.1235069E+00
         21   -1    0    0  502  501  0.00000000000E+00  0.00000000000E+00  0.21191557077E+02  0.21191557077E+02  0.00000000000E+00 0.  1.
         21   -1    0    0  501  502 -0.00000000000E+00 -0.00000000000E+00 -0.18433048529E+03  0.18433048529E+03  0.00000000000E+00 0.  1.
         25    1    1    2    0    0  0.00000000000E+00  0.00000000000E+00 -0.16313892821E+03  0.20552204237E+03  0.12500000000E+03 0.  0.
<mgrwt>
<rscale>  0 0.12500000E+03</rscale>
<asrwt>0</asrwt>
<pdfrwt beam="1">  1       21 0.32602396E-02 0.12500000E+03</pdfrwt>
<pdfrwt beam="2">  1       21 0.28358536E-01 0.12500000E+03</pdfrwt>
<totfact> 0.64333769E+06</totfact>
</mgrwt>
</event>
<event>
 3    1  0.1603864E-001  0.1250000E+03  0.7546771E-02  0.1235069E+00
         21   -1    0    0  502  501  0.00000000000E+00  0.00000000000E+00  0.10898000264E+03  0.10898000264E+03  0.00000000000E+00 0. -1.
         21   -1    0    0  501  502 -0.00000000000E+00 -0.00000000000E+00 -0.35843731927E+02  0.35843731927E+02  0.00000000000E+00 0. -1.
         25    1    1    2    0    0  0.00000000000E+00  0.00000000000E+00  0.73136270714E+02  0.14482373457E+03  0.12500000000E+03 0.  0.
<mgrwt>
<rscale>  0 0.12500000E+03</rscale>
<asrwt>0</asrwt>
<pdfrwt beam="1">  1       21 0.16766154E-01 0.12500000E+03</pdfrwt>
<pdfrwt beam="2">  1       21 0.55144204E-02 0.12500000E+03</pdfrwt>
<totfact> 0.71415664E+06</totfact>
</mgrwt>
</event>
<event>
 3    1  0.1603864E-001  0.1250000E+03  0.7546771E-02  0.1235069E+00
         21   -1    0    0  502  501  0.00000000000E+00  0.00000000000E+00  0.15236012266E+03  0.15236012266E+03  0.00000000000E+00 0. -1.
         21   -1    0    0  501  502 -0.00000000000E+00 -0.00000000000E+00 -0.25638270250E+02  0.25638270250E+02  0.00000000000E+00 0. -1.
         25    1    1    2    0    0  0.00000000000E+00  0.00000000000E+00  0.12672185240E+03  0.17799839291E+03  0.12500000000E+03 0.  0.
<mgrwt>
<rscale>  0 0.12500000E+03</rscale>
<asrwt>0</asrwt>
<pdfrwt beam="1">  1       21 0.23440018E-01 0.12500000E+03</pdfrwt>
<pdfrwt beam="2">  1       21 0.39443493E-02 0.12500000E+03</pdfrwt>
<totfact> 0.67381900E+06</totfact>
</mgrwt>
</event>
<event>
 3    1  0.1603864E-001  0.1250000E+03  0.7546771E-02  0.1235069E+00
         21   -1    0    0  502  501  0.00000000000E+00  0.00000000000E+00  0.48419873129E+01  0.48419873129E+01  0.00000000000E+00 0.  1.
         21   -1    0    0  501  502 -0.00000000000E+00 -0.00000000000E+00 -0.80674519523E+03  0.80674519523E+03  0.00000000000E+00 0.  1.
         25    1    1    2    0    0  0.00000000000E+00  0.00000000000E+00 -0.80190320791E+03  0.81158718254E+03  0.12500000000E+03 0.  0.
<mgrwt>
<rscale>  0 0.12500000E+03</rscale>
<asrwt>0</asrwt>
<pdfrwt beam="1">  1       21 0.74492177E-03 0.12500000E+03</pdfrwt>
<pdfrwt beam="2">  1       21 0.12411454E+00 0.12500000E+03</pdfrwt>
<totfact> 0.28982505E+06</totfact>
</mgrwt>
</event>
<event>
 3    1  0.1603864E-001  0.1250000E+03  0.7546771E-02  0.1235069E+00
         21   -1    0    0  502  501  0.00000000000E+00  0.00000000000E+00  0.17944646913E+03  0.17944646913E+03  0.00000000000E+00 0. -1.
         21   -1    0    0  501  502 -0.00000000000E+00 -0.00000000000E+00 -0.21768330238E+02  0.21768330238E+02  0.00000000000E+00 0. -1.
         25    1    1    2    0    0  0.00000000000E+00  0.00000000000E+00  0.15767813889E+03  0.20121479936E+03  0.12500000000E+03 0.  0.
<mgrwt>
<rscale>  0 0.12500000E+03</rscale>
<asrwt>0</asrwt>
<pdfrwt beam="1">  1       21 0.27607148E-01 0.12500000E+03</pdfrwt>
<pdfrwt beam="2">  1       21 0.33489740E-02 0.12500000E+03</pdfrwt>
<totfact> 0.64795859E+06</totfact>
</mgrwt>
</event>
<event>
 3    1  0.1603864E-001  0.1250000E+03  0.7546771E-02  0.1235069E+00
         21   -1    0    0  502  501  0.00000000000E+00  0.00000000000E+00  0.13599689221E+03  0.13599689221E+03  0.00000000000E+00 0.  1.
         21   -1    0    0  501  502 -0.00000000000E+00 -0.00000000000E+00 -0.28723082834E+02  0.28723082834E+02  0.00000000000E+00 0.  1.
         25    1    1    2    0    0  0.00000000000E+00  0.00000000000E+00  0.10727380937E+03  0.16471997504E+03  0.12500000000E+03 0.  0.
<mgrwt>
<rscale>  0 0.12500000E+03</rscale>
<asrwt>0</asrwt>
<pdfrwt beam="1">  1       21 0.20922598E-01 0.12500000E+03</pdfrwt>
<pdfrwt beam="2">  1       21 0.44189359E-02 0.12500000E+03</pdfrwt>
<totfact> 0.68947316E+06</totfact>
</mgrwt>
</event>
<event>
 3    1  0.1603864E-001  0.1250000E+03  0.7546771E-02  0.1235069E+00
         21   -1    0    0  502  501  0.00000000000E+00  0.00000000000E+00  0.23356288217E+03  0.23356288217E+03  0.00000000000E+00 0.  1.
         21   -1    0    0  501  502 -0.00000000000E+00 -0.00000000000E+00 -0.16724618072E+02  0.16724618072E+02  0.00000000000E+00 0.  1.
         25    1    1    2    0    0  0.00000000000E+00  0.00000000000E+00  0.21683826410E+03  0.25028750024E+03  0.12500000000E+03 0.  0.
<mgrwt>
<rscale>  0 0.12500000E+03</rscale>
<asrwt>0</asrwt>
<pdfrwt beam="1">  1       21 0.35932749E-01 0.12500000E+03</pdfrwt>
<pdfrwt beam="2">  1       21 0.25730183E-02 0.12500000E+03</pdfrwt>
<totfact> 0.59851133E+06</totfact>
</mgrwt>
</event>
<event>
 3    1  0.1603864E-001  0.1250000E+03  0.7546771E-02  0.1235069E+00
         21   -1    0    0  502  501  0.00000000000E+00  0.00000000000E+00  0.59318719921E+02  0.59318719921E+02  0.00000000000E+00 0.  1.
         21   -1    0    0  501  502 -0.00000000000E+00 -0.00000000000E+00 -0.65851893048E+02  0.65851893048E+02  0.00000000000E+00 0.  1.
         25    1    1    2    0    0  0.00000000000E+00  0.00000000000E+00 -0.65331731266E+01  0.12517061297E+03  0.12500000000E+03 0.  0.
<mgrwt>
<rscale>  0 0.12500000E+03</rscale>
<asrwt>0</asrwt>
<pdfrwt beam="1">  1       21 0.91259569E-02 0.12500000E+03</pdfrwt>
<pdfrwt beam="2">  1       21 0.10131061E-01 0.12500000E+03</pdfrwt>
<totfact> 0.74020540E+06</totfact>
</mgrwt>
</event>
<event>
 3    1  0.1603864E-001  0.1250000E+03  0.7546771E-02  0.1235069E+00
         21   -1    0    0  502  501  0.00000000000E+00  0.00000000000E+00  0.55359170506E+02  0.55359170506E+02  0.00000000000E+00 0.  1.
         21   -1    0    0  501  502 -0.00000000000E+00 -0.00000000000E+00 -0.70561931552E+02  0.70561931552E+02  0.00000000000E+00 0.  1.
         25    1    1    2    0    0  0.00000000000E+00  0.00000000000E+00 -0.15202761046E+02  0.12592110206E+03  0.12500000000E+03 0.  0.
<mgrwt>
<rscale>  0 0.12500000E+03</rscale>
<asrwt>0</asrwt>
<pdfrwt beam="1">  1       21 0.85167955E-02 0.12500000E+03</pdfrwt>
<pdfrwt beam="2">  1       21 0.10855682E-01 0.12500000E+03</pdfrwt>
<totfact> 0.73916926E+06</totfact>
</mgrwt>
</event>
<event>
 3    1  0.1603864E-001  0.1250000E+03  0.7546771E-02  0.1235069E+00
         21   -1    0    0  502  501  0.00000000000E+00  0.00000000000E+00  0.20783427288E+02  0.20783427288E+02  0.00000000000E+00 0. -1.
         21   -1    0    0  501  502 -0.00000000000E+00 -0.00000000000E+00 -0.18795023294E+03  0.18795023294E+03  0.00000000000E+00 0. -1.
         25    1    1    2    0    0  0.00000000000E+00  0.00000000000E+00 -0.16716680565E+03  0.20873366023E+03  0.12500000000E+03 0.  0.
<mgrwt>
<rscale>  0 0.12500000E+03</rscale>
<asrwt>0</asrwt>
<pdfrwt beam="1">  1       21 0.31974503E-02 0.12500000E+03</pdfrwt>
<pdfrwt beam="2">  1       21 0.28915421E-01 0.12500000E+03</pdfrwt>
<totfact> 0.63993015E+06</totfact>
</mgrwt>
</event>
<event>
 3    1  0.1603864E-001  0.1250000E+03  0.7546771E-02  0.1235069E+00
         21   -1    0    0  502  501  0.00000000000E+00  0.00000000000E+00  0.81395704084E+02  0.81395704084E+02  0.00000000000E+00 0. -1.
         21   -1    0    0  501  502 -0.00000000000E+00 -0.00000000000E+00 -0.47990861974E+02  0.47990861974E+02  0.00000000000E+00 0. -1.
         25    1    1    2    0    0  0.00000000000E+00  0.00000000000E+00  0.33404842109E+02  0.12938656606E+03  0.12500000000E+03 0.  0.
<mgrwt>
<rscale>  0 0.12500000E+03</rscale>
<asrwt>0</asrwt>
<pdfrwt beam="1">  1       21 0.12522416E-01 0.12500000E+03</pdfrwt>
<pdfrwt beam="2">  1       21 0.73832096E-02 0.12500000E+03</pdfrwt>
<totfact> 0.73447016E+06</totfact>
</mgrwt>
</event>
<event>
 3    1  0.1603864E-001  0.1250000E+03  0.7546771E-02  0.1235069E+00
         21   -1    0    0  502  501  0.00000000000E+00  0.00000000000E+00  0.89766806044E+02  0.89766806044E+02  0.00000000000E+00 0.  1.
         21   -1    0    0  501  502 -0.00000000000E+00 -0.00000000000E+00 -0.43515528425E+02  0.43515528425E+02  0.00000000000E+00 0.  1.
         25    1    1    2    0    0  0.00000000000E+00  0.00000000000E+00  0.46251277619E+02  0.13328233447E+03  0.12500000000E+03 0.  0.
<mgrwt>
<rscale>  0 0.12500000E+03</rscale>
<asrwt>0</asrwt>
<pdfrwt beam="1">  1       21 0.13810278E-01 0.12500000E+03</pdfrwt>
<pdfrwt beam="2">  1       21 0.66946967E-02 0.12500000E+03</pdfrwt>
<totfact> 0.72924720E+06</totfact>
</mgrwt>
</event>
<event>
 3    1  0.1603864E-001  0.1250000E+03  0.7546771E-02  0.1235069E+00
         21   -1    0    0  502  501  0.00000000000E+00  0.00000000000E+00  0.19429123836E+03  0.19429123836E+03  0.00000000000E+00 0. -1.
         21   -1    0    0  501  502 -0.00000000000E+00 -0.00000000000E+00 -0.20105126886E+02  0.20105126886E+02  0.00000000000E+00 0. -1.
         25    1    1    2    0    0  0.00000000000E+00  0.00000000000E+00  0.17418611147E+03  0.21439636524E+03  0.12500000000E+03 0.  0.
<mgrwt>
<rscale>  0 0.12500000E+03</rscale>
<asrwt>0</asrwt>
<pdfrwt beam="1">  1       21 0.29890959E-01 0.12500000E+03</pdfrwt>
<pdfrwt beam="2">  1       21 0.30930966E-02 0.12500000E+03</pdfrwt>
<totfact> 0.63399936E+06</totfact>
</mgrwt>
</event>
<event>
 3    1  0.1603864E-001  0.1250000E+03  0.7546771E-02  0.1235069E+00
         21   -1    0    0  502  501  0.00000000000E+00  0.00000000000E+00  0.58513781064E+03  0.58513781064E+03  0.00000000000E+00 0. -1.
         21   -1    0    0  501  502 -0.00000000000E+00 -0.00000000000E+00 -0.66757777894E+01  0.66757777894E+01  0.00000000000E+00 0. -1.
         25    1    1    2    0    0  0.00000000000E+00  0.00000000000E+00  0.57846203285E+03  0.59181358843E+03  0.12500000000E+03 0.  0.
<mgrwt>
<rscale>  0 0.12500000E+03</rscale>
<asrwt>0</asrwt>
<pdfrwt beam="1">  1       21 0.90021161E-01 0.12500000E+03</pdfrwt>
<pdfrwt beam="2">  1       21 0.10270432E-02 0.12500000E+03</pdfrwt>
<totfact> 0.37465499E+06</totfact>
</mgrwt>
</event>
<event>
 3    1  0.1603864E-001  0.1250000E+03  0.7546771E-02  0.1235069E+00
         21   -1    0    0  502  501  0.00000000000E+00  0.00000000000E+00  0.16096247210E+03  0.16096247210E+03  0.00000000000E+00 0. -1.
         21   -1    0    0  501  502 -0.00000000000E+00 -0.00000000000E+00 -0.24268079069E+02  0.24268079069E+02  0.00000000000E+00 0. -1.
         25    1    1    2    0    0  0.00000000000E+00  0.00000000000E+00  0.13669439303E+03  0.18523055116E+03  0.12500000000E+03 0.  0.
<mgrwt>
<rscale>  0 0.12500000E+03</rscale>
<asrwt>0</asrwt>
<pdfrwt beam="1">  1       21 0.24763457E-01 0.12500000E+03</pdfrwt>
<pdfrwt beam="2">  1       21 0.37335507E-02 0.12500000E+03</pdfrwt>
<totfact> 0.66556511E+06</totfact>
</mgrwt>
</event>
<event>
 3    1  0.1603864E-001  0.1250000E+03  0.7546771E-02  0.1235069E+00
         21   -1    0    0  502  501  0.00000000000E+00  0.00000000000E+00  0.28192923914E+02  0.28192923914E+02  0.00000000000E+00 0. -1.
         21   -1    0    0  501  502 -0.00000000000E+00 -0.00000000000E+00 -0.13855427028E+03  0.13855427028E+03  0.00000000000E+00 0. -1.
         25    1    1    2    0    0  0.00000000000E+00  0.00000000000E+00 -0.11036134637E+03  0.16674719419E+03  0.12500000000E+03 0.  0.
<mgrwt>
<rscale>  0 0.12500000E+03</rscale>
<asrwt>0</asrwt>
<pdfrwt beam="1">  1       21 0.43373729E-02 0.12500000E+03</pdfrwt>
<pdfrwt beam="2">  1       21 0.21316042E-01 0.12500000E+03</pdfrwt>
<totfact> 0.68704316E+06</totfact>
</mgrwt>
</event>
<event>
 3    1  0.1603864E-001  0.1250000E+03  0.7546771E-02  0.1235069E+00
         21   -1    0    0  502  501  0.00000000000E+00  0.00000000000E+00  0.12894726357E+03  0.12894726357E+03  0.00000000000E+00 0. -1.
         21   -1    0    0  501  502 -0.00000000000E+00 -0.00000000000E+00 -0.30293391980E+02  0.30293391980E+02  0.00000000000E+00 0. -1.
         25    1    1    2    0    0  0.00000000000E+00  0.00000000000E+00  0.98653871589E+02  0.15924065555E+03  0.12500000000E+03 0.  0.
<mgrwt>
<rscale>  0 0.12500000E+03</rscale>
<asrwt>0</asrwt>
<pdfrwt beam="1">  1       21 0.19838040E-01 0.12500000E+03</pdfrwt>
<pdfrwt beam="2">  1       21 0.46605219E-02 0.12500000E+03</pdfrwt>
<totfact> 0.69612399E+06</totfact>
</mgrwt>
</event>
<event>
 3    1  0.1603864E-001  0.1250000E+03  0.7546771E-02  0.1235069E+00
         21   -1    0    0  502  501  0.00000000000E+00  0.00000000000E+00  0.10534619854E+03  0.10534619854E+03  0.00000000000E+00 0. -1.
         21   -1    0    0  501  502 -0.00000000000E+00 -0.00000000000E+00 -0.37080123006E+02  0.37080123006E+02  0.00000000000E+00 0. -1.
         25    1    1    2    0    0  0.00000000000E+00  0.00000000000E+00  0.68266075533E+02  0.14242632154E+03  0.12500000000E+03 0.  0.
<mgrwt>
<rscale>  0 0.12500000E+03</rscale>
<asrwt>0</asrwt>
<pdfrwt beam="1">  1       21 0.16207107E-01 0.12500000E+03</pdfrwt>
<pdfrwt beam="2">  1       21 0.57046343E-02 0.12500000E+03</pdfrwt>
<totfact> 0.71724119E+06</totfact>
</mgrwt>
</event>
<event>
 3    1  0.1603864E-001  0.1250000E+03  0.7546771E-02  0.1235069E+00
         21   -1    0    0  502  501  0.00000000000E+00  0.00000000000E+00  0.15510739694E+03  0.15510739694E+03  0.00000000000E+00 0.  1.
         21   -1    0    0  501  502 -0.00000000000E+00 -0.00000000000E+00 -0.25184163212E+02  0.25184163212E+02  0.00000000000E+00 0.  1.
         25    1    1    2    0    0  0.00000000000E+00  0.00000000000E+00  0.12992323373E+03  0.18029156015E+03  0.12500000000E+03 0.  0.
<mgrwt>
<rscale>  0 0.12500000E+03</rscale>
<asrwt>0</asrwt>
<pdfrwt beam="1">  1       21 0.23862676E-01 0.12500000E+03</pdfrwt>
<pdfrwt beam="2">  1       21 0.38744867E-02 0.12500000E+03</pdfrwt>
<totfact> 0.67118106E+06</totfact>
</mgrwt>
</event>
<event>
 3    1  0.1603864E-001  0.1250000E+03  0.7546771E-02  0.1235069E+00
         21   -1    0    0  502  501  0.00000000000E+00  0.00000000000E+00  0.85214705920E+03  0.85214705920E+03  0.00000000000E+00 0. -1.
         21   -1    0    0  501  502 -0.00000000000E+00 -0.00000000000E+00 -0.45840092480E+01  0.45840092480E+01  0.00000000000E+00 0. -1.
         25    1    1    2    0    0  0.00000000000E+00  0.00000000000E+00  0.84756304995E+03  0.85673106844E+03  0.12500000000E+03 0.  0.
<mgrwt>
<rscale>  0 0.12500000E+03</rscale>
<asrwt>0</asrwt>
<pdfrwt beam="1">  1       21 0.13109942E+00 0.12500000E+03</pdfrwt>
<pdfrwt beam="2">  1       21 0.70523287E-03 0.12500000E+03</pdfrwt>
<totfact> 0.27567215E+06</totfact>
</mgrwt>
</event>
<event>
 3    1  0.1603864E-001  0.1250000E+03  0.7546771E-02  0.1235069E+00
         21   -1    0    0  502  501  0.00000000000E+00  0.00000000000E+00  0.22973138952E+02  0.22973138952E+02  0.00000000000E+00 0. -1.
         21   -1    0    0  501  502 -0.00000000000E+00 -0.00000000000E+00 -0.17003553621E+03  0.17003553621E+03  0.00000000000E+00 0. -1.
         25    1    1    2    0    0  0.00000000000E+00  0.00000000000E+00 -0.14706239725E+03  0.19300867516E+03  0.12500000000E+03 0.  0.
<mgrwt>
<rscale>  0 0.12500000E+03</rscale>
<asrwt>0</asrwt>
<pdfrwt beam="1">  1       21 0.35343290E-02 0.12500000E+03</pdfrwt>
<pdfrwt beam="2">  1       21 0.26159314E-01 0.12500000E+03</pdfrwt>
<totfact> 0.65689628E+06</totfact>
</mgrwt>
</event>
<event>
 3    1  0.1603864E-001  0.1250000E+03  0.7546771E-02  0.1235069E+00
         21   -1    0    0  502  501  0.00000000000E+00  0.00000000000E+00  0.30145401894E+03  0.30145401894E+03  0.00000000000E+00 0. -1.
         21   -1    0    0  501  502 -0.00000000000E+00 -0.00000000000E+00 -0.12958029267E+02  0.12958029267E+02  0.00000000000E+00 0. -1.
         25    1    1    2    0    0  0.00000000000E+00  0.00000000000E+00  0.28849598967E+03  0.31441204821E+03  0.12500000000E+03 0.  0.
<mgrwt>
<rscale>  0 0.12500000E+03</rscale>
<asrwt>0</asrwt>
<pdfrwt beam="1">  1       21 0.46377536E-01 0.12500000E+03</pdfrwt>
<pdfrwt beam="2">  1       21 0.19935432E-02 0.12500000E+03</pdfrwt>
<totfact> 0.54279154E+06</totfact>
</mgrwt>
</event>
<event>
 3    1  0.1603864E-001  0.1250000E+03  0.7546771E-02  0.1235069E+00
         21   -1    0    0  502  501  0.00000000000E+00  0.00000000000E+00  0.67359162826E+03  0.67359162826E+03  0.00000000000E+00 0. -1.
         21   -1    0    0  501  502 -0.00000000000E+00 -0.00000000000E+00 -0.57991368006E+01  0.57991368006E+01  0.00000000000E+00 0. -1.
         25    1    1    2    0    0  0.00000000000E+00  0.00000000000E+00  0.66779249145E+03  0.67939076506E+03  0.12500000000E+03 0.  0.
<mgrwt>
<rscale>  0 0.12500000E+03</rscale>
<asrwt>0</asrwt>
<pdfrwt beam="1">  1       21 0.10362942E+00 0.12500000E+03</pdfrwt>
<pdfrwt beam="2">  1       21 0.89217542E-03 0.12500000E+03</pdfrwt>
<totfact> 0.33719962E+06</totfact>
</mgrwt>
</event>
<event>
 3    1  0.1603864E-001  0.1250000E+03  0.7546771E-02  0.1235069E+00
         21   -1    0    0  502  501  0.00000000000E+00  0.00000000000E+00  0.19483977218E+03  0.19483977218E+03  0.00000000000E+00 0. -1.
         21   -1    0    0  501  502 -0.00000000000E+00 -0.00000000000E+00 -0.20048524776E+02  0.20048524776E+02  0.00000000000E+00 0. -1.
         25    1    1    2    0    0  0.00000000000E+00  0.00000000000E+00  0.17479124740E+03  0.21488829696E+03  0.12500000000E+03 0.  0.
<mgrwt>
<rscale>  0 0.12500000E+03</rscale>
<asrwt>0</asrwt>
<pdfrwt beam="1">  1       21 0.29975348E-01 0.12500000E+03</pdfrwt>
<pdfrwt beam="2">  1       21 0.30843886E-02 0.12500000E+03</pdfrwt>
<totfact> 0.63348873E+06</totfact>
</mgrwt>
</event>
<event>
 3    1  0.1603864E-001  0.1250000E+03  0.7546771E-02  0.1235069E+00
         21   -1    0    0  502  501  0.00000000000E+00  0.00000000000E+00  0.38627997330E+03  0.38627997330E+03  0.00000000000E+00 0.  1.
         21   -1    0    0  501  502 -0.00000000000E+00 -0.00000000000E+00 -0.10112483872E+02  0.10112483872E+02  0.00000000000E+00 0.  1.
         25    1    1    2    0    0  0.00000000000E+00  0.00000000000E+00  0.37616748943E+03  0.39639245717E+03  0.12500000000E+03 0.  0.
<mgrwt>
<rscale>  0 0.12500000E+03</rscale>
<asrwt>0</asrwt>
<pdfrwt beam="1">  1       21 0.59427677E-01 0.12500000E+03</pdfrwt>
<pdfrwt beam="2">  1       21 0.15557671E-02 0.12500000E+03</pdfrwt>
<totfact> 0.48281564E+06</totfact>
</mgrwt>
</event>
<event>
 3    1  0.1603864E-001  0.1250000E+03  0.7546771E-02  0.1235069E+00
         21   -1    0    0  502  501  0.00000000000E+00  0.00000000000E+00  0.41115502558E+02  0.41115502558E+02  0.00000000000E+00 0.  1.
         21   -1    0    0  501  502 -0.00000000000E+00 -0.00000000000E+00 -0.95006743368E+02  0.95006743368E+02  0.00000000000E+00 0.  1.
         25    1    1    2    0    0  0.00000000000E+00  0.00000000000E+00 -0.53891240809E+02  0.13612224593E+03  0.12500000000E+03 0.  0.
<mgrwt>
<rscale>  0 0.12500000E+03</rscale>
<asrwt>0</asrwt>
<pdfrwt beam="1">  1       21 0.63254621E-02 0.12500000E+03</pdfrwt>
<pdfrwt beam="2">  1       21 0.14616422E-01 0.12500000E+03</pdfrwt>
<totfact> 0.72548219E+06</totfact>
</mgrwt>
</event>
<event>
 3    1  0.1603864E-001  0.1250000E+03  0.7546771E-02  0.1235069E+00
         21   -1    0    0  502  501  0.00000000000E+00  0.00000000000E+00  0.51368141164E+02  0.51368141164E+02  0.00000000000E+00 0.  1.
         21   -1    0    0  501  502 -0.00000000000E+00 -0.00000000000E+00 -0.76044215568E+02  0.76044215568E+02  0.00000000000E+00 0.  1.
         25    1    1    2    0    0  0.00000000000E+00  0.00000000000E+00 -0.24676074404E+02  0.12741235673E+03  0.12500000000E+03 0.  0.
<mgrwt>
<rscale>  0 0.12500000E+03</rscale>
<asrwt>0</asrwt>
<pdfrwt beam="1">  1       21 0.79027910E-02 0.12500000E+03</pdfrwt>
<pdfrwt beam="2">  1       21 0.11699110E-01 0.12500000E+03</pdfrwt>
<totfact> 0.73713103E+06</totfact>
</mgrwt>
</event>
<event>
 3    1  0.1603864E-001  0.1250000E+03  0.7546771E-02  0.1235069E+00
         21   -1    0    0  502  501  0.00000000000E+00  0.00000000000E+00  0.35461380543E+01  0.35461380543E+01  0.00000000000E+00 0.  1.
         21   -1    0    0  501  502 -0.00000000000E+00 -0.00000000000E+00 -0.11015504586E+04  0.11015504586E+04  0.00000000000E+00 0.  1.
         25    1    1    2    0    0  0.00000000000E+00  0.00000000000E+00 -0.10980043206E+04  0.11050965967E+04  0.12500000000E+03 0.  0.
<mgrwt>
<rscale>  0 0.12500000E+03</rscale>
<asrwt>0</asrwt>
<pdfrwt beam="1">  1       21 0.54555943E-03 0.12500000E+03</pdfrwt>
<pdfrwt beam="2">  1       21 0.16946938E+00 0.12500000E+03</pdfrwt>
<totfact> 0.21138403E+06</totfact>
</mgrwt>
</event>
<event>
 3    1  0.1603864E-001  0.1250000E+03  0.7546771E-02  0.1235069E+00
         21   -1    0    0  502  501  0.00000000000E+00  0.00000000000E+00  0.47210651295E+03  0.47210651295E+03  0.00000000000E+00 0. -1.
         21   -1    0    0  501  502 -0.00000000000E+00 -0.00000000000E+00 -0.82740862345E+01  0.82740862345E+01  0.00000000000E+00 0. -1.
         25    1    1    2    0    0  0.00000000000E+00  0.00000000000E+00  0.46383242672E+03  0.48038059918E+03  0.12500000000E+03 0.  0.
<mgrwt>
<rscale>  0 0.12500000E+03</rscale>
<asrwt>0</asrwt>
<pdfrwt beam="1">  1       21 0.72631750E-01 0.12500000E+03</pdfrwt>
<pdfrwt beam="2">  1       21 0.12729367E-02 0.12500000E+03</pdfrwt>
<totfact> 0.43128466E+06</totfact>
</mgrwt>
</event>
<event>
 3    1  0.1603864E-001  0.1250000E+03  0.7546771E-02  0.1235069E+00
         21   -1    0    0  502  501  0.00000000000E+00  0.00000000000E+00  0.12041285420E+01  0.12041285420E+01  0.00000000000E+00 0. -1.
         21   -1    0    0  501  502 -0.00000000000E+00 -0.00000000000E+00 -0.32440473453E+04  0.32440473453E+04  0.00000000000E+00 0. -1.
         25    1    1    2    0    0  0.00000000000E+00  0.00000000000E+00 -0.32428432168E+04  0.32452514739E+04  0.12500000000E+03 0.  0.
<mgrwt>
<rscale>  0 0.12500000E+03</rscale>
<asrwt>0</asrwt>
<pdfrwt beam="1">  1       21 0.18524578E-03 0.12500000E+03</pdfrwt>
<pdfrwt beam="2">  1       21 0.49909706E+00 0.12500000E+03</pdfrwt>
<totfact> 0.10814367E+05</totfact>
</mgrwt>
</event>
<event>
 3    1  0.1603864E-001  0.1250000E+03  0.7546771E-02  0.1235069E+00
         21   -1    0    0  502  501  0.00000000000E+00  0.00000000000E+00  0.53330771212E+02  0.53330771212E+02  0.00000000000E+00 0.  1.
         21   -1    0    0  501  502 -0.00000000000E+00 -0.00000000000E+00 -0.73245706207E+02  0.73245706207E+02  0.00000000000E+00 0.  1.
         25    1    1    2    0    0  0.00000000000E+00  0.00000000000E+00 -0.19914934995E+02  0.12657647742E+03  0.12500000000E+03 0.  0.
<mgrwt>
<rscale>  0 0.12500000E+03</rscale>
<asrwt>0</asrwt>
<pdfrwt beam="1">  1       21 0.82047341E-02 0.12500000E+03</pdfrwt>
<pdfrwt beam="2">  1       21 0.11268570E-01 0.12500000E+03</pdfrwt>
<totfact> 0.73826912E+06</totfact>
</mgrwt>
</event>
<event>
 3    1  0.1603864E-001  0.1250000E+03  0.7546771E-02  0.1235069E+00
         21   -1    0    0  502  501  0.00000000000E+00  0.00000000000E+00  0.10061957749E+02  0.10061957749E+02  0.00000000000E+00 0. -1.
         21   -1    0    0  501  502 -0.00000000000E+00 -0.00000000000E+00 -0.38821967828E+03  0.38821967828E+03  0.00000000000E+00 0. -1.
         25    1    1    2    0    0  0.00000000000E+00  0.00000000000E+00 -0.37815772053E+03  0.39828163603E+03  0.12500000000E+03 0.  0.
<mgrwt>
<rscale>  0 0.12500000E+03</rscale>
<asrwt>0</asrwt>
<pdfrwt beam="1">  1       21 0.15479935E-02 0.12500000E+03</pdfrwt>
<pdfrwt beam="2">  1       21 0.59726104E-01 0.12500000E+03</pdfrwt>
<totfact> 0.48155537E+06</totfact>
</mgrwt>
</event>
<event>
 3    1  0.1603864E-001  0.1250000E+03  0.7546771E-02  0.1235069E+00
         21   -1    0    0  502  501  0.00000000000E+00  0.00000000000E+00  0.33348779725E+02  0.33348779725E+02  0.00000000000E+00 0.  1.
         21   -1    0    0  501  502 -0.00000000000E+00 -0.00000000000E+00 -0.11713322143E+03  0.11713322143E+03  0.00000000000E+00 0.  1.
         25    1    1    2    0    0  0.00000000000E+00  0.00000000000E+00 -0.83784441705E+02  0.15048200116E+03  0.12500000000E+03 0.  0.
<mgrwt>
<rscale>  0 0.12500000E+03</rscale>
<asrwt>0</asrwt>
<pdfrwt beam="1">  1       21 0.51305815E-02 0.12500000E+03</pdfrwt>
<pdfrwt beam="2">  1       21 0.18020496E-01 0.12500000E+03</pdfrwt>
<totfact> 0.70698705E+06</totfact>
</mgrwt>
</event>
<event>
 3    1  0.1603864E-001  0.1250000E+03  0.7546771E-02  0.1235069E+00
         21   -1    0    0  502  501  0.00000000000E+00  0.00000000000E+00  0.29748746902E+03  0.29748746902E+03  0.00000000000E+00 0. -1.
         21   -1    0    0  501  502 -0.00000000000E+00 -0.00000000000E+00 -0.13130805183E+02  0.13130805183E+02  0.00000000000E+00 0. -1.
         25    1    1    2    0    0  0.00000000000E+00  0.00000000000E+00  0.28435666383E+03  0.31061827420E+03  0.12500000000E+03 0.  0.
<mgrwt>
<rscale>  0 0.12500000E+03</rscale>
<asrwt>0</asrwt>
<pdfrwt beam="1">  1       21 0.45767298E-01 0.12500000E+03</pdfrwt>
<pdfrwt beam="2">  1       21 0.20201241E-02 0.12500000E+03</pdfrwt>
<totfact> 0.54585140E+06</totfact>
</mgrwt>
</event>
<event>
 3    1  0.1603864E-001  0.1250000E+03  0.7546771E-02  0.1235069E+00
         21   -1    0    0  502  501  0.00000000000E+00  0.00000000000E+00  0.31480394646E+03  0.31480394646E+03  0.00000000000E+00 0. -1.
         21   -1    0    0  501  502 -0.00000000000E+00 -0.00000000000E+00 -0.12408516615E+02  0.12408516615E+02  0.00000000000E+00 0. -1.
         25    1    1    2    0    0  0.00000000000E+00  0.00000000000E+00  0.30239542985E+03  0.32721246308E+03  0.12500000000E+03 0.  0.
<mgrwt>
<rscale>  0 0.12500000E+03</rscale>
<asrwt>0</asrwt>
<pdfrwt beam="1">  1       21 0.48431370E-01 0.12500000E+03</pdfrwt>
<pdfrwt beam="2">  1       21 0.19090028E-02 0.12500000E+03</pdfrwt>
<totfact> 0.53266698E+06</totfact>
</mgrwt>
</event>
<event>
 3    1  0.1603864E-001  0.1250000E+03  0.7546771E-02  0.1235069E+00
         21   -1    0    0  502  501  0.00000000000E+00  0.00000000000E+00  0.33522516837E+01  0.33522516837E+01  0.00000000000E+00 0. -1.
         21   -1    0    0  501  502 -0.00000000000E+00 -0.00000000000E+00 -0.11652615521E+04  0.11652615521E+04  0.00000000000E+00 0. -1.
         25    1    1    2    0    0  0.00000000000E+00  0.00000000000E+00 -0.11619093004E+04  0.11686138038E+04  0.12500000000E+03 0.  0.
<mgrwt>
<rscale>  0 0.12500000E+03</rscale>
<asrwt>0</asrwt>
<pdfrwt beam="1">  1       21 0.51573054E-03 0.12500000E+03</pdfrwt>
<pdfrwt beam="2">  1       21 0.17927118E+00 0.12500000E+03</pdfrwt>
<totfact> 0.19780282E+06</totfact>
</mgrwt>
</event>
<event>
 3    1  0.1603864E-001  0.1250000E+03  0.7546771E-02  0.1235069E+00
         21   -1    0    0  502  501  0.00000000000E+00  0.00000000000E+00  0.59126542989E+01  0.59126542989E+01  0.00000000000E+00 0.  1.
         21   -1    0    0  501  502 -0.00000000000E+00 -0.00000000000E+00 -0.66065929150E+03  0.66065929150E+03  0.00000000000E+00 0.  1.
         25    1    1    2    0    0  0.00000000000E+00  0.00000000000E+00 -0.65474663720E+03  0.66657194580E+03  0.12500000000E+03 0.  0.
<mgrwt>
<rscale>  0 0.12500000E+03</rscale>
<asrwt>0</asrwt>
<pdfrwt beam="1">  1       21 0.90963947E-03 0.12500000E+03</pdfrwt>
<pdfrwt beam="2">  1       21 0.10163985E+00 0.12500000E+03</pdfrwt>
<totfact> 0.34239132E+06</totfact>
</mgrwt>
</event>
<event>
 3    1  0.1603864E-001  0.1250000E+03  0.7546771E-02  0.1235069E+00
         21   -1    0    0  502  501  0.00000000000E+00  0.00000000000E+00  0.15095739229E+02  0.15095739229E+02  0.00000000000E+00 0.  1.
         21   -1    0    0  501  502 -0.00000000000E+00 -0.00000000000E+00 -0.25876506878E+03  0.25876506878E+03  0.00000000000E+00 0.  1.
         25    1    1    2    0    0  0.00000000000E+00  0.00000000000E+00 -0.24366932955E+03  0.27386080801E+03  0.12500000000E+03 0.  0.
<mgrwt>
<rscale>  0 0.12500000E+03</rscale>
<asrwt>0</asrwt>
<pdfrwt beam="1">  1       21 0.23224216E-02 0.12500000E+03</pdfrwt>
<pdfrwt beam="2">  1       21 0.39810008E-01 0.12500000E+03</pdfrwt>
<totfact> 0.57700891E+06</totfact>
</mgrwt>
</event>
<event>
 3    1  0.1603864E-001  0.1250000E+03  0.7546771E-02  0.1235069E+00
         21   -1    0    0  502  501  0.00000000000E+00  0.00000000000E+00  0.84792789768E+03  0.84792789768E+03  0.00000000000E+00 0.  1.
         21   -1    0    0  501  502 -0.00000000000E+00 -0.00000000000E+00 -0.46068185876E+01  0.46068185876E+01  0.00000000000E+00 0.  1.
         25    1    1    2    0    0  0.00000000000E+00  0.00000000000E+00  0.84332107909E+03  0.85253471627E+03  0.12500000000E+03 0.  0.
<mgrwt>
<rscale>  0 0.12500000E+03</rscale>
<asrwt>0</asrwt>
<pdfrwt beam="1">  1       21 0.13045032E+00 0.12500000E+03</pdfrwt>
<pdfrwt beam="2">  1       21 0.70874199E-03 0.12500000E+03</pdfrwt>
<totfact> 0.27694466E+06</totfact>
</mgrwt>
</event>
<event>
 3    1  0.1603864E-001  0.1250000E+03  0.7546771E-02  0.1235069E+00
         21   -1    0    0  502  501  0.00000000000E+00  0.00000000000E+00  0.26712328858E+03  0.26712328858E+03  0.00000000000E+00 0. -1.
         21   -1    0    0  501  502 -0.00000000000E+00 -0.00000000000E+00 -0.14623397386E+02  0.14623397386E+02  0.00000000000E+00 0. -1.
         25    1    1    2    0    0  0.00000000000E+00  0.00000000000E+00  0.25249989119E+03  0.28174668596E+03  0.12500000000E+03 0.  0.
<mgrwt>
<rscale>  0 0.12500000E+03</rscale>
<asrwt>0</asrwt>
<pdfrwt beam="1">  1       21 0.41095887E-01 0.12500000E+03</pdfrwt>
<pdfrwt beam="2">  1       21 0.22497536E-02 0.12500000E+03</pdfrwt>
<totfact> 0.57008052E+06</totfact>
</mgrwt>
</event>
<event>
 3    1  0.1603864E-001  0.1250000E+03  0.7546771E-02  0.1235069E+00
         21   -1    0    0  502  501  0.00000000000E+00  0.00000000000E+00  0.26134951301E+03  0.26134951301E+03  0.00000000000E+00 0.  1.
         21   -1    0    0  501  502 -0.00000000000E+00 -0.00000000000E+00 -0.14946459838E+02  0.14946459838E+02  0.00000000000E+00 0.  1.
         25    1    1    2    0    0  0.00000000000E+00  0.00000000000E+00  0.24640305317E+03  0.27629597285E+03  0.12500000000E+03 0.  0.
<mgrwt>
<rscale>  0 0.12500000E+03</rscale>
<asrwt>0</asrwt>
<pdfrwt beam="1">  1       21 0.40207614E-01 0.12500000E+03</pdfrwt>
<pdfrwt beam="2">  1       21 0.22994556E-02 0.12500000E+03</pdfrwt>
<totfact> 0.57485455E+06</totfact>
</mgrwt>
</event>
<event>
 3    1  0.1603864E-001  0.1250000E+03  0.7546771E-02  0.1235069E+00
         21   -1    0    0  502  501  0.00000000000E+00  0.00000000000E+00  0.28451647607E+03  0.28451647607E+03  0.00000000000E+00 0. -1.
         21   -1    0    0  501  502 -0.00000000000E+00 -0.00000000000E+00 -0.13729433367E+02  0.13729433367E+02  0.00000000000E+00 0. -1.
         25    1    1    2    0    0  0.00000000000E+00  0.00000000000E+00  0.27078704270E+03  0.29824590943E+03  0.12500000000E+03 0.  0.
<mgrwt>
<rscale>  0 0.12500000E+03</rscale>
<asrwt>0</asrwt>
<pdfrwt beam="1">  1       21 0.43771761E-01 0.12500000E+03</pdfrwt>
<pdfrwt beam="2">  1       21 0.21122207E-02 0.12500000E+03</pdfrwt>
<totfact> 0.55602263E+06</totfact>
</mgrwt>
</event>
<event>
 3    1  0.1603864E-001  0.1250000E+03  0.7546771E-02  0.1235069E+00
         21   -1    0    0  502  501  0.00000000000E+00  0.00000000000E+00  0.30487936990E+03  0.30487936990E+03  0.00000000000E+00 0.  1.
         21   -1    0    0  501  502 -0.00000000000E+00 -0.00000000000E+00 -0.12812444480E+02  0.12812444480E+02  0.00000000000E+00 0.  1.
         25    1    1    2    0    0  0.00000000000E+00  0.00000000000E+00  0.29206692542E+03  0.31769181438E+03  0.12500000000E+03 0.  0.
<mgrwt>
<rscale>  0 0.12500000E+03</rscale>
<asrwt>0</asrwt>
<pdfrwt beam="1">  1       21 0.46904513E-01 0.12500000E+03</pdfrwt>
<pdfrwt beam="2">  1       21 0.19711455E-02 0.12500000E+03</pdfrwt>
<totfact> 0.54016765E+06</totfact>
</mgrwt>
</event>
<event>
 3    1  0.1603864E-001  0.1250000E+03  0.7546771E-02  0.1235069E+00
         21   -1    0    0  502  501  0.00000000000E+00  0.00000000000E+00  0.11196203358E+03  0.11196203358E+03  0.00000000000E+00 0. -1.
         21   -1    0    0  501  502 -0.00000000000E+00 -0.00000000000E+00 -0.34889059042E+02  0.34889059042E+02  0.00000000000E+00 0. -1.
         25    1    1    2    0    0  0.00000000000E+00  0.00000000000E+00  0.77072974538E+02  0.14685109262E+03  0.12500000000E+03 0.  0.
<mgrwt>
<rscale>  0 0.12500000E+03</rscale>
<asrwt>0</asrwt>
<pdfrwt beam="1">  1       21 0.17224928E-01 0.12500000E+03</pdfrwt>
<pdfrwt beam="2">  1       21 0.53675476E-02 0.12500000E+03</pdfrwt>
<totfact> 0.71157039E+06</totfact>
</mgrwt>
</event>
<event>
 3    1  0.1603864E-001  0.1250000E+03  0.7546771E-02  0.1235069E+00
         21   -1    0    0  502  501  0.00000000000E+00  0.00000000000E+00  0.69475259369E+01  0.69475259369E+01  0.00000000000E+00 0. -1.
         21   -1    0    0  501  502 -0.00000000000E+00 -0.00000000000E+00 -0.56225050982E+03  0.56225050982E+03  0.00000000000E+00 0. -1.
         25    1    1    2    0    0  0.00000000000E+00  0.00000000000E+00 -0.55530298388E+03  0.56919803575E+03  0.12500000000E+03 0.  0.
<mgrwt>
<rscale>  0 0.12500000E+03</rscale>
<asrwt>0</asrwt>
<pdfrwt beam="1">  1       21 0.10688501E-02 0.12500000E+03</pdfrwt>
<pdfrwt beam="2">  1       21 0.86500083E-01 0.12500000E+03</pdfrwt>
<totfact> 0.38523719E+06</totfact>
</mgrwt>
</event>
<event>
 3    1  0.1603864E-001  0.1250000E+03  0.7546771E-02  0.1235069E+00
         21   -1    0    0  502  501  0.00000000000E+00  0.00000000000E+00  0.50769423801E+01  0.50769423801E+01  0.00000000000E+00 0.  1.
         21   -1    0    0  501  502 -0.00000000000E+00 -0.00000000000E+00 -0.76940995338E+03  0.76940995338E+03  0.00000000000E+00 0.  1.
         25    1    1    2    0    0  0.00000000000E+00  0.00000000000E+00 -0.76433301100E+03  0.77448689576E+03  0.12500000000E+03 0.  0.
<mgrwt>
<rscale>  0 0.12500000E+03</rscale>
<asrwt>0</asrwt>
<pdfrwt beam="1">  1       21 0.78106870E-03 0.12500000E+03</pdfrwt>
<pdfrwt beam="2">  1       21 0.11837066E+00 0.12500000E+03</pdfrwt>
<totfact> 0.30225707E+06</totfact>
</mgrwt>
</event>
<event>
 3    1  0.1603864E-001  0.1250000E+03  0.7546771E-02  0.1235069E+00
         21   -1    0    0  502  501  0.00000000000E+00  0.00000000000E+00  0.46794021211E+02  0.46794021211E+02  0.00000000000E+00 0.  1.
         21   -1    0    0  501  502 -0.00000000000E+00 -0.00000000000E+00 -0.83477544756E+02  0.83477544756E+02  0.00000000000E+00 0.  1.
         25    1    1    2    0    0  0.00000000000E+00  0.00000000000E+00 -0.36683523545E+02  0.13027156597E+03  0.12500000000E+03 0.  0.
<mgrwt>
<rscale>  0 0.12500000E+03</rscale>
<asrwt>0</asrwt>
<pdfrwt beam="1">  1       21 0.71990802E-02 0.12500000E+03</pdfrwt>
<pdfrwt beam="2">  1       21 0.12842699E-01 0.12500000E+03</pdfrwt>
<totfact> 0.73328642E+06</totfact>
</mgrwt>
</event>
<event>
 3    1  0.1603864E-001  0.1250000E+03  0.7546771E-02  0.1235069E+00
         21   -1    0    0  502  501  0.00000000000E+00  0.00000000000E+00  0.90955644916E+02  0.90955644916E+02  0.00000000000E+00 0.  1.
         21   -1    0    0  501  502 -0.00000000000E+00 -0.00000000000E+00 -0.42946757220E+02  0.42946757220E+02  0.00000000000E+00 0.  1.
         25    1    1    2    0    0  0.00000000000E+00  0.00000000000E+00  0.48008887696E+02  0.13390240214E+03  0.12500000000E+03 0.  0.
<mgrwt>
<rscale>  0 0.12500000E+03</rscale>
<asrwt>0</asrwt>
<pdfrwt beam="1">  1       21 0.13993176E-01 0.12500000E+03</pdfrwt>
<pdfrwt beam="2">  1       21 0.66071934E-02 0.12500000E+03</pdfrwt>
<totfact> 0.72842132E+06</totfact>
</mgrwt>
</event>
<event>
 3    1  0.1603864E-001  0.1250000E+03  0.7546771E-02  0.1235069E+00
         21   -1    0    0  502  501  0.00000000000E+00  0.00000000000E+00  0.23088533147E+03  0.23088533147E+03  0.00000000000E+00 0. -1.
         21   -1    0    0  501  502 -0.00000000000E+00 -0.00000000000E+00 -0.16918571549E+02  0.16918571549E+02  0.00000000000E+00 0. -1.
         25    1    1    2    0    0  0.00000000000E+00  0.00000000000E+00  0.21396675992E+03  0.24780390302E+03  0.12500000000E+03 0.  0.
<mgrwt>
<rscale>  0 0.12500000E+03</rscale>
<asrwt>0</asrwt>
<pdfrwt beam="1">  1       21 0.35520818E-01 0.12500000E+03</pdfrwt>
<pdfrwt beam="2">  1       21 0.26028573E-02 0.12500000E+03</pdfrwt>
<totfact> 0.60085568E+06</totfact>
</mgrwt>
</event>
<event>
 3    1  0.1603864E-001  0.1250000E+03  0.7546771E-02  0.1235069E+00
         21   -1    0    0  502  501  0.00000000000E+00  0.00000000000E+00  0.19322637929E+03  0.19322637929E+03  0.00000000000E+00 0.  1.
         21   -1    0    0  501  502 -0.00000000000E+00 -0.00000000000E+00 -0.20215925043E+02  0.20215925043E+02  0.00000000000E+00 0.  1.
         25    1    1    2    0    0  0.00000000000E+00  0.00000000000E+00  0.17301045425E+03  0.21344230433E+03  0.12500000000E+03 0.  0.
<mgrwt>
<rscale>  0 0.12500000E+03</rscale>
<asrwt>0</asrwt>
<pdfrwt beam="1">  1       21 0.29727134E-01 0.12500000E+03</pdfrwt>
<pdfrwt beam="2">  1       21 0.31101425E-02 0.12500000E+03</pdfrwt>
<totfact> 0.63499177E+06</totfact>
</mgrwt>
</event>
<event>
 3    1  0.1603864E-001  0.1250000E+03  0.7546771E-02  0.1235069E+00
         21   -1    0    0  502  501  0.00000000000E+00  0.00000000000E+00  0.90722582076E+02  0.90722582076E+02  0.00000000000E+00 0. -1.
         21   -1    0    0  501  502 -0.00000000000E+00 -0.00000000000E+00 -0.43057085795E+02  0.43057085795E+02  0.00000000000E+00 0. -1.
         25    1    1    2    0    0  0.00000000000E+00  0.00000000000E+00  0.47665496280E+02  0.13377966787E+03  0.12500000000E+03 0.  0.
<mgrwt>
<rscale>  0 0.12500000E+03</rscale>
<asrwt>0</asrwt>
<pdfrwt beam="1">  1       21 0.13957320E-01 0.12500000E+03</pdfrwt>
<pdfrwt beam="2">  1       21 0.66241671E-02 0.12500000E+03</pdfrwt>
<totfact> 0.72858462E+06</totfact>
</mgrwt>
</event>
<event>
 3    1  0.1603864E-001  0.1250000E+03  0.7546771E-02  0.1235069E+00
         21   -1    0    0  502  501  0.00000000000E+00  0.00000000000E+00  0.64151850626E+03  0.64151850626E+03  0.00000000000E+00 0.  1.
         21   -1    0    0  501  502 -0.00000000000E+00 -0.00000000000E+00 -0.60890682995E+01  0.60890682995E+01  0.00000000000E+00 0.  1.
         25    1    1    2    0    0  0.00000000000E+00  0.00000000000E+00  0.63542943796E+03  0.64760757456E+03  0.12500000000E+03 0.  0.
<mgrwt>
<rscale>  0 0.12500000E+03</rscale>
<asrwt>0</asrwt>
<pdfrwt beam="1">  1       21 0.98695102E-01 0.12500000E+03</pdfrwt>
<pdfrwt beam="2">  1       21 0.93678024E-03 0.12500000E+03</pdfrwt>
<totfact> 0.35024242E+06</totfact>
</mgrwt>
</event>
<event>
 3    1  0.1603864E-001  0.1250000E+03  0.7546771E-02  0.1235069E+00
         21   -1    0    0  502  501  0.00000000000E+00  0.00000000000E+00  0.87347460909E+01  0.87347460909E+01  0.00000000000E+00 0.  1.
         21   -1    0    0  501  502 -0.00000000000E+00 -0.00000000000E+00 -0.44720819121E+03  0.44720819121E+03  0.00000000000E+00 0.  1.
         25    1    1    2    0    0  0.00000000000E+00  0.00000000000E+00 -0.43847344512E+03  0.45594293730E+03  0.12500000000E+03 0.  0.
<mgrwt>
<rscale>  0 0.12500000E+03</rscale>
<asrwt>0</asrwt>
<pdfrwt beam="1">  1       21 0.13438071E-02 0.12500000E+03</pdfrwt>
<pdfrwt beam="2">  1       21 0.68801262E-01 0.12500000E+03</pdfrwt>
<totfact> 0.44538778E+06</totfact>
</mgrwt>
</event>
<event>
 3    1  0.1603864E-001  0.1250000E+03  0.7546771E-02  0.1235069E+00
         21   -1    0    0  502  501  0.00000000000E+00  0.00000000000E+00  0.38849051141E+03  0.38849051141E+03  0.00000000000E+00 0. -1.
         21   -1    0    0  501  502 -0.00000000000E+00 -0.00000000000E+00 -0.10054943133E+02  0.10054943133E+02  0.00000000000E+00 0. -1.
         25    1    1    2    0    0  0.00000000000E+00  0.00000000000E+00  0.37843556827E+03  0.39854545454E+03  0.12500000000E+03 0.  0.
<mgrwt>
<rscale>  0 0.12500000E+03</rscale>
<asrwt>0</asrwt>
<pdfrwt beam="1">  1       21 0.59767759E-01 0.12500000E+03</pdfrwt>
<pdfrwt beam="2">  1       21 0.15469146E-02 0.12500000E+03</pdfrwt>
<totfact> 0.48137984E+06</totfact>
</mgrwt>
</event>
<event>
 3    1  0.1603864E-001  0.1250000E+03  0.7546771E-02  0.1235069E+00
         21   -1    0    0  502  501  0.00000000000E+00  0.00000000000E+00  0.45558534761E+01  0.45558534761E+01  0.00000000000E+00 0.  1.
         21   -1    0    0  501  502 -0.00000000000E+00 -0.00000000000E+00 -0.85741343976E+03  0.85741343976E+03  0.00000000000E+00 0.  1.
         25    1    1    2    0    0  0.00000000000E+00  0.00000000000E+00 -0.85285758628E+03  0.86196929324E+03  0.12500000000E+03 0.  0.
<mgrwt>
<rscale>  0 0.12500000E+03</rscale>
<asrwt>0</asrwt>
<pdfrwt beam="1">  1       21 0.70090152E-03 0.12500000E+03</pdfrwt>
<pdfrwt beam="2">  1       21 0.13190957E+00 0.12500000E+03</pdfrwt>
<totfact> 0.27409566E+06</totfact>
</mgrwt>
</event>
<event>
 3    1  0.1603864E-001  0.1250000E+03  0.7546771E-02  0.1235069E+00
         21   -1    0    0  502  501  0.00000000000E+00  0.00000000000E+00  0.35041528301E+02  0.35041528301E+02  0.00000000000E+00 0.  1.
         21   -1    0    0  501  502 -0.00000000000E+00 -0.00000000000E+00 -0.11147487537E+03  0.11147487537E+03  0.00000000000E+00 0.  1.
         25    1    1    2    0    0  0.00000000000E+00  0.00000000000E+00 -0.76433347064E+02  0.14651640367E+03  0.12500000000E+03 0.  0.
<mgrwt>
<rscale>  0 0.12500000E+03</rscale>
<asrwt>0</asrwt>
<pdfrwt beam="1">  1       21 0.53910045E-02 0.12500000E+03</pdfrwt>
<pdfrwt beam="2">  1       21 0.17149981E-01 0.12500000E+03</pdfrwt>
<totfact> 0.71199598E+06</totfact>
</mgrwt>
</event>
<event>
 3    1  0.1603864E-001  0.1250000E+03  0.7546771E-02  0.1235069E+00
         21   -1    0    0  502  501  0.00000000000E+00  0.00000000000E+00  0.20656076103E+03  0.20656076103E+03  0.00000000000E+00 0.  1.
         21   -1    0    0  501  502 -0.00000000000E+00 -0.00000000000E+00 -0.18910900504E+02  0.18910900504E+02  0.00000000000E+00 0.  1.
         25    1    1    2    0    0  0.00000000000E+00  0.00000000000E+00  0.18764986053E+03  0.22547166154E+03  0.12500000000E+03 0.  0.
<mgrwt>
<rscale>  0 0.12500000E+03</rscale>
<asrwt>0</asrwt>
<pdfrwt beam="1">  1       21 0.31778577E-01 0.12500000E+03</pdfrwt>
<pdfrwt beam="2">  1       21 0.29093694E-02 0.12500000E+03</pdfrwt>
<totfact> 0.62267535E+06</totfact>
</mgrwt>
</event>
<event>
 3    1  0.1603864E-001  0.1250000E+03  0.7546771E-02  0.1235069E+00
         21   -1    0    0  502  501  0.00000000000E+00  0.00000000000E+00  0.14998649229E+02  0.14998649229E+02  0.00000000000E+00 0. -1.
         21   -1    0    0  501  502 -0.00000000000E+00 -0.00000000000E+00 -0.26044011966E+03  0.26044011966E+03  0.00000000000E+00 0. -1.
         25    1    1    2    0    0  0.00000000000E+00  0.00000000000E+00 -0.24544147043E+03  0.27543876889E+03  0.12500000000E+03 0.  0.
<mgrwt>
<rscale>  0 0.12500000E+03</rscale>
<asrwt>0</asrwt>
<pdfrwt beam="1">  1       21 0.23074847E-02 0.12500000E+03</pdfrwt>
<pdfrwt beam="2">  1       21 0.40067706E-01 0.12500000E+03</pdfrwt>
<totfact> 0.57561138E+06</totfact>
</mgrwt>
</event>
<event>
 3    1  0.1603864E-001  0.1250000E+03  0.7546771E-02  0.1235069E+00
         21   -1    0    0  502  501  0.00000000000E+00  0.00000000000E+00  0.96715813582E+03  0.96715813582E+03  0.00000000000E+00 0.  1.
         21   -1    0    0  501  502 -0.00000000000E+00 -0.00000000000E+00 -0.40388948356E+01  0.40388948356E+01  0.00000000000E+00 0.  1.
         25    1    1    2    0    0  0.00000000000E+00  0.00000000000E+00  0.96311924098E+03  0.97119703065E+03  0.12500000000E+03 0.  0.
<mgrwt>
<rscale>  0 0.12500000E+03</rscale>
<asrwt>0</asrwt>
<pdfrwt beam="1">  1       21 0.14879338E+00 0.12500000E+03</pdfrwt>
<pdfrwt beam="2">  1       21 0.62136921E-03 0.12500000E+03</pdfrwt>
<totfact> 0.24352374E+06</totfact>
</mgrwt>
</event>
<event>
 3    1  0.1603864E-001  0.1250000E+03  0.7546771E-02  0.1235069E+00
         21   -1    0    0  502  501  0.00000000000E+00  0.00000000000E+00  0.40625888918E+02  0.40625888918E+02  0.00000000000E+00 0.  1.
         21   -1    0    0  501  502 -0.00000000000E+00 -0.00000000000E+00 -0.96151742251E+02  0.96151742251E+02  0.00000000000E+00 0.  1.
         25    1    1    2    0    0  0.00000000000E+00  0.00000000000E+00 -0.55525853333E+02  0.13677763117E+03  0.12500000000E+03 0.  0.
<mgrwt>
<rscale>  0 0.12500000E+03</rscale>
<asrwt>0</asrwt>
<pdfrwt beam="1">  1       21 0.62501368E-02 0.12500000E+03</pdfrwt>
<pdfrwt beam="2">  1       21 0.14792576E-01 0.12500000E+03</pdfrwt>
<totfact> 0.72461947E+06</totfact>
</mgrwt>
</event>
<event>
 3    1  0.1603864E-001  0.1250000E+03  0.7546771E-02  0.1235069E+00
         21   -1    0    0  502  501  0.00000000000E+00  0.00000000000E+00  0.29482433100E+03  0.29482433100E+03  0.00000000000E+00 0. -1.
         21   -1    0    0  501  502 -0.00000000000E+00 -0.00000000000E+00 -0.13249415293E+02  0.13249415293E+02  0.00000000000E+00 0. -1.
         25    1    1    2    0    0  0.00000000000E+00  0.00000000000E+00  0.28157491570E+03  0.30807374629E+03  0.12500000000E+03 0.  0.
<mgrwt>
<rscale>  0 0.12500000E+03</rscale>
<asrwt>0</asrwt>
<pdfrwt beam="1">  1       21 0.45357584E-01 0.12500000E+03</pdfrwt>
<pdfrwt beam="2">  1       21 0.20383718E-02 0.12500000E+03</pdfrwt>
<totfact> 0.54791820E+06</totfact>
</mgrwt>
</event>
<event>
 3    1  0.1603864E-001  0.1250000E+03  0.7546771E-02  0.1235069E+00
         21   -1    0    0  502  501  0.00000000000E+00  0.00000000000E+00  0.15254665152E+02  0.15254665152E+02  0.00000000000E+00 0.  1.
         21   -1    0    0  501  502 -0.00000000000E+00 -0.00000000000E+00 -0.25606920644E+03  0.25606920644E+03  0.00000000000E+00 0.  1.
         25    1    1    2    0    0  0.00000000000E+00  0.00000000000E+00 -0.24081454129E+03  0.27132387160E+03  0.12500000000E+03 0.  0.
<mgrwt>
<rscale>  0 0.12500000E+03</rscale>
<asrwt>0</asrwt>
<pdfrwt beam="1">  1       21 0.23468716E-02 0.12500000E+03</pdfrwt>
<pdfrwt beam="2">  1       21 0.39395261E-01 0.12500000E+03</pdfrwt>
<totfact> 0.57926664E+06</totfact>
</mgrwt>
</event>
<event>
 3    1  0.1603864E-001  0.1250000E+03  0.7546771E-02  0.1235069E+00
         21   -1    0    0  502  501  0.00000000000E+00  0.00000000000E+00  0.24847067010E+02  0.24847067010E+02  0.00000000000E+00 0. -1.
         21   -1    0    0  501  502 -0.00000000000E+00 -0.00000000000E+00 -0.15721171430E+03  0.15721171430E+03  0.00000000000E+00 0. -1.
         25    1    1    2    0    0  0.00000000000E+00  0.00000000000E+00 -0.13236464729E+03  0.18205878131E+03  0.12500000000E+03 0.  0.
<mgrwt>
<rscale>  0 0.12500000E+03</rscale>
<asrwt>0</asrwt>
<pdfrwt beam="1">  1       21 0.38226257E-02 0.12500000E+03</pdfrwt>
<pdfrwt beam="2">  1       21 0.24186418E-01 0.12500000E+03</pdfrwt>
<totfact> 0.66916141E+06</totfact>
</mgrwt>
</event>
<event>
 3    1  0.1603864E-001  0.1250000E+03  0.7546771E-02  0.1235069E+00
         21   -1    0    0  502  501  0.00000000000E+00  0.00000000000E+00  0.15503550828E+02  0.15503550828E+02  0.00000000000E+00 0.  1.
         21   -1    0    0  501  502 -0.00000000000E+00 -0.00000000000E+00 -0.25195840896E+03  0.25195840896E+03  0.00000000000E+00 0.  1.
         25    1    1    2    0    0  0.00000000000E+00  0.00000000000E+00 -0.23645485814E+03  0.26746195979E+03  0.12500000000E+03 0.  0.
<mgrwt>
<rscale>  0 0.12500000E+03</rscale>
<asrwt>0</asrwt>
<pdfrwt beam="1">  1       21 0.23851618E-02 0.12500000E+03</pdfrwt>
<pdfrwt beam="2">  1       21 0.38762830E-01 0.12500000E+03</pdfrwt>
<totfact> 0.58272022E+06</totfact>
</mgrwt>
</event>
<event>
 3    1  0.1603864E-001  0.1250000E+03  0.7546771E-02  0.1235069E+00
         21   -1    0    0  502  501  0.00000000000E+00  0.00000000000E+00  0.41747923429E+02  0.41747923429E+02  0.00000000000E+00 0.  1.
         21   -1    0    0  501  502 -0.00000000000E+00 -0.00000000000E+00 -0.93567528135E+02  0.93567528135E+02  0.00000000000E+00 0.  1.
         25    1    1    2    0    0  0.00000000000E+00  0.00000000000E+00 -0.51819604707E+02  0.13531545156E+03  0.12500000000E+03 0.  0.
<mgrwt>
<rscale>  0 0.12500000E+03</rscale>
<asrwt>0</asrwt>
<pdfrwt beam="1">  1       21 0.64227576E-02 0.12500000E+03</pdfrwt>
<pdfrwt beam="2">  1       21 0.14395004E-01 0.12500000E+03</pdfrwt>
<totfact> 0.72654731E+06</totfact>
</mgrwt>
</event>
<event>
 3    1  0.1603864E-001  0.1250000E+03  0.7546771E-02  0.1235069E+00
         21   -1    0    0  502  501  0.00000000000E+00  0.00000000000E+00  0.18517560683E+03  0.18517560683E+03  0.00000000000E+00 0.  1.
         21   -1    0    0  501  502 -0.00000000000E+00 -0.00000000000E+00 -0.21094841091E+02  0.21094841091E+02  0.00000000000E+00 0.  1.
         25    1    1    2    0    0  0.00000000000E+00  0.00000000000E+00  0.16408076574E+03  0.20627044792E+03  0.12500000000E+03 0.  0.
<mgrwt>
<rscale>  0 0.12500000E+03</rscale>
<asrwt>0</asrwt>
<pdfrwt beam="1">  1       21 0.28488554E-01 0.12500000E+03</pdfrwt>
<pdfrwt beam="2">  1       21 0.32453603E-02 0.12500000E+03</pdfrwt>
<totfact> 0.64254076E+06</totfact>
</mgrwt>
</event>
<event>
 3    1  0.1603864E-001  0.1250000E+03  0.7546771E-02  0.1235069E+00
         21   -1    0    0  502  501  0.00000000000E+00  0.00000000000E+00  0.21377464196E+01  0.21377464196E+01  0.00000000000E+00 0.  1.
         21   -1    0    0  501  502 -0.00000000000E+00 -0.00000000000E+00 -0.18272747245E+04  0.18272747245E+04  0.00000000000E+00 0.  1.
         25    1    1    2    0    0  0.00000000000E+00  0.00000000000E+00 -0.18251369781E+04  0.18294124709E+04  0.12500000000E+03 0.  0.
<mgrwt>
<rscale>  0 0.12500000E+03</rscale>
<asrwt>0</asrwt>
<pdfrwt beam="1">  1       21 0.32888393E-03 0.12500000E+03</pdfrwt>
<pdfrwt beam="2">  1       21 0.28111931E+00 0.12500000E+03</pdfrwt>
<totfact> 0.97355864E+05</totfact>
</mgrwt>
</event>
<event>
 3    1  0.1603864E-001  0.1250000E+03  0.7546771E-02  0.1235069E+00
         21   -1    0    0  502  501  0.00000000000E+00  0.00000000000E+00  0.86696966016E+02  0.86696966016E+02  0.00000000000E+00 0.  1.
         21   -1    0    0  501  502 -0.00000000000E+00 -0.00000000000E+00 -0.45056363325E+02  0.45056363325E+02  0.00000000000E+00 0.  1.
         25    1    1    2    0    0  0.00000000000E+00  0.00000000000E+00  0.41640602691E+02  0.13175332934E+03  0.12500000000E+03 0.  0.
<mgrwt>
<rscale>  0 0.12500000E+03</rscale>
<asrwt>0</asrwt>
<pdfrwt beam="1">  1       21 0.13337995E-01 0.12500000E+03</pdfrwt>
<pdfrwt beam="2">  1       21 0.69317482E-02 0.12500000E+03</pdfrwt>
<totfact> 0.73129334E+06</totfact>
</mgrwt>
</event>
<event>
 3    1  0.1603864E-001  0.1250000E+03  0.7546771E-02  0.1235069E+00
         21   -1    0    0  502  501  0.00000000000E+00  0.00000000000E+00  0.18099903827E+04  0.18099903827E+04  0.00000000000E+00 0.  1.
         21   -1    0    0  501  502 -0.00000000000E+00 -0.00000000000E+00 -0.21581606385E+01  0.21581606385E+01  0.00000000000E+00 0.  1.
         25    1    1    2    0    0  0.00000000000E+00  0.00000000000E+00  0.18078322221E+04  0.18121485433E+04  0.12500000000E+03 0.  0.
<mgrwt>
<rscale>  0 0.12500000E+03</rscale>
<asrwt>0</asrwt>
<pdfrwt beam="1">  1       21 0.27845885E+00 0.12500000E+03</pdfrwt>
<pdfrwt beam="2">  1       21 0.33202616E-03 0.12500000E+03</pdfrwt>
<totfact> 0.99309108E+05</totfact>
</mgrwt>
</event>
<event>
 3    1  0.1603864E-001  0.1250000E+03  0.7546771E-02  0.1235069E+00
         21   -1    0    0  502  501  0.00000000000E+00  0.00000000000E+00  0.21993921968E+03  0.21993921968E+03  0.00000000000E+00 0. -1.
         21   -1    0    0  501  502 -0.00000000000E+00 -0.00000000000E+00 -0.17760588610E+02  0.17760588610E+02  0.00000000000E+00 0. -1.
         25    1    1    2    0    0  0.00000000000E+00  0.00000000000E+00  0.20217863107E+03  0.23769980829E+03  0.12500000000E+03 0.  0.
<mgrwt>
<rscale>  0 0.12500000E+03</rscale>
<asrwt>0</asrwt>
<pdfrwt beam="1">  1       21 0.33836801E-01 0.12500000E+03</pdfrwt>
<pdfrwt beam="2">  1       21 0.27323984E-02 0.12500000E+03</pdfrwt>
<totfact> 0.61055961E+06</totfact>
</mgrwt>
</event>
<event>
 3    1  0.1603864E-001  0.1250000E+03  0.7546771E-02  0.1235069E+00
         21   -1    0    0  502  501  0.00000000000E+00  0.00000000000E+00  0.18432081173E+03  0.18432081173E+03  0.00000000000E+00 0.  1.
         21   -1    0    0  501  502 -0.00000000000E+00 -0.00000000000E+00 -0.21192669256E+02  0.21192669256E+02  0.00000000000E+00 0.  1.
         25    1    1    2    0    0  0.00000000000E+00  0.00000000000E+00  0.16312814247E+03  0.20551348098E+03  0.12500000000E+03 0.  0.
<mgrwt>
<rscale>  0 0.12500000E+03</rscale>
<asrwt>0</asrwt>
<pdfrwt beam="1">  1       21 0.28357047E-01 0.12500000E+03</pdfrwt>
<pdfrwt beam="2">  1       21 0.32604108E-02 0.12500000E+03</pdfrwt>
<totfact> 0.64334682E+06</totfact>
</mgrwt>
</event>
<event>
 3    1  0.1603864E-001  0.1250000E+03  0.7546771E-02  0.1235069E+00
         21   -1    0    0  502  501  0.00000000000E+00  0.00000000000E+00  0.27634796806E+02  0.27634796806E+02  0.00000000000E+00 0.  1.
         21   -1    0    0  501  502 -0.00000000000E+00 -0.00000000000E+00 -0.14135258628E+03  0.14135258628E+03  0.00000000000E+00 0.  1.
         25    1    1    2    0    0  0.00000000000E+00  0.00000000000E+00 -0.11371778948E+03  0.16898738309E+03  0.12500000000E+03 0.  0.
<mgrwt>
<rscale>  0 0.12500000E+03</rscale>
<asrwt>0</asrwt>
<pdfrwt beam="1">  1       21 0.42515072E-02 0.12500000E+03</pdfrwt>
<pdfrwt beam="2">  1       21 0.21746552E-01 0.12500000E+03</pdfrwt>
<totfact> 0.68437668E+06</totfact>
</mgrwt>
</event>
<event>
 3    1  0.1603864E-001  0.1250000E+03  0.7546771E-02  0.1235069E+00
         21   -1    0    0  502  501  0.00000000000E+00  0.00000000000E+00  0.34756768085E+03  0.34756768085E+03  0.00000000000E+00 0.  1.
         21   -1    0    0  501  502 -0.00000000000E+00 -0.00000000000E+00 -0.11238818265E+02  0.11238818265E+02  0.00000000000E+00 0.  1.
         25    1    1    2    0    0  0.00000000000E+00  0.00000000000E+00  0.33632886258E+03  0.35880649911E+03  0.12500000000E+03 0.  0.
<mgrwt>
<rscale>  0 0.12500000E+03</rscale>
<asrwt>0</asrwt>
<pdfrwt beam="1">  1       21 0.53471943E-01 0.12500000E+03</pdfrwt>
<pdfrwt beam="2">  1       21 0.17290492E-02 0.12500000E+03</pdfrwt>
<totfact> 0.50894555E+06</totfact>
</mgrwt>
</event>
<event>
 3    1  0.1603864E-001  0.1250000E+03  0.7546771E-02  0.1235069E+00
         21   -1    0    0  502  501  0.00000000000E+00  0.00000000000E+00  0.98207934919E+01  0.98207934919E+01  0.00000000000E+00 0.  1.
         21   -1    0    0  501  502 -0.00000000000E+00 -0.00000000000E+00 -0.39775299249E+03  0.39775299249E+03  0.00000000000E+00 0.  1.
         25    1    1    2    0    0  0.00000000000E+00  0.00000000000E+00 -0.38793219900E+03  0.40757378598E+03  0.12500000000E+03 0.  0.
<mgrwt>
<rscale>  0 0.12500000E+03</rscale>
<asrwt>0</asrwt>
<pdfrwt beam="1">  1       21 0.15108913E-02 0.12500000E+03</pdfrwt>
<pdfrwt beam="2">  1       21 0.61192767E-01 0.12500000E+03</pdfrwt>
<totfact> 0.47543015E+06</totfact>
</mgrwt>
</event>
<event>
 3    1  0.1603864E-001  0.1250000E+03  0.7546771E-02  0.1235069E+00
         21   -1    0    0  502  501  0.00000000000E+00  0.00000000000E+00  0.45377624742E+03  0.45377624742E+03  0.00000000000E+00 0.  1.
         21   -1    0    0  501  502 -0.00000000000E+00 -0.00000000000E+00 -0.86083174741E+01  0.86083174741E+01  0.00000000000E+00 0.  1.
         25    1    1    2    0    0  0.00000000000E+00  0.00000000000E+00  0.44516792995E+03  0.46238456490E+03  0.12500000000E+03 0.  0.
<mgrwt>
<rscale>  0 0.12500000E+03</rscale>
<asrwt>0</asrwt>
<pdfrwt beam="1">  1       21 0.69811712E-01 0.12500000E+03</pdfrwt>
<pdfrwt beam="2">  1       21 0.13243569E-02 0.12500000E+03</pdfrwt>
<totfact> 0.44160366E+06</totfact>
</mgrwt>
</event>
<event>
 3    1  0.1603864E-001  0.1250000E+03  0.7546771E-02  0.1235069E+00
         21   -1    0    0  502  501  0.00000000000E+00  0.00000000000E+00  0.20391244413E+02  0.20391244413E+02  0.00000000000E+00 0. -1.
         21   -1    0    0  501  502 -0.00000000000E+00 -0.00000000000E+00 -0.19156506199E+03  0.19156506199E+03  0.00000000000E+00 0. -1.
         25    1    1    2    0    0  0.00000000000E+00  0.00000000000E+00 -0.17117381757E+03  0.21195630640E+03  0.12500000000E+03 0.  0.
<mgrwt>
<rscale>  0 0.12500000E+03</rscale>
<asrwt>0</asrwt>
<pdfrwt beam="1">  1       21 0.31371146E-02 0.12500000E+03</pdfrwt>
<pdfrwt beam="2">  1       21 0.29471547E-01 0.12500000E+03</pdfrwt>
<totfact> 0.63654297E+06</totfact>
</mgrwt>
</event>
<event>
 3    1  0.1603864E-001  0.1250000E+03  0.7546771E-02  0.1235069E+00
         21   -1    0    0  502  501  0.00000000000E+00  0.00000000000E+00  0.12463286560E+02  0.12463286560E+02  0.00000000000E+00 0.  1.
         21   -1    0    0  501  502 -0.00000000000E+00 -0.00000000000E+00 -0.31342053969E+03  0.31342053969E+03  0.00000000000E+00 0.  1.
         25    1    1    2    0    0  0.00000000000E+00  0.00000000000E+00 -0.30095725313E+03  0.32588382625E+03  0.12500000000E+03 0.  0.
<mgrwt>
<rscale>  0 0.12500000E+03</rscale>
<asrwt>0</asrwt>
<pdfrwt beam="1">  1       21 0.19174287E-02 0.12500000E+03</pdfrwt>
<pdfrwt beam="2">  1       21 0.48218543E-01 0.12500000E+03</pdfrwt>
<totfact> 0.53370349E+06</totfact>
</mgrwt>
</event>
<event>
 3    1  0.1603864E-001  0.1250000E+03  0.7546771E-02  0.1235069E+00
         21   -1    0    0  502  501  0.00000000000E+00  0.00000000000E+00  0.34152618310E+01  0.34152618310E+01  0.00000000000E+00 0.  1.
         21   -1    0    0  501  502 -0.00000000000E+00 -0.00000000000E+00 -0.11437629656E+04  0.11437629656E+04  0.00000000000E+00 0.  1.
         25    1    1    2    0    0  0.00000000000E+00  0.00000000000E+00 -0.11403477037E+04  0.11471782274E+04  0.12500000000E+03 0.  0.
<mgrwt>
<rscale>  0 0.12500000E+03</rscale>
<asrwt>0</asrwt>
<pdfrwt beam="1">  1       21 0.52542429E-03 0.12500000E+03</pdfrwt>
<pdfrwt beam="2">  1       21 0.17596374E+00 0.12500000E+03</pdfrwt>
<totfact> 0.20228809E+06</totfact>
</mgrwt>
</event>
<event>
 3    1  0.1603864E-001  0.1250000E+03  0.7546771E-02  0.1235069E+00
         21   -1    0    0  502  501  0.00000000000E+00  0.00000000000E+00  0.41906320591E+03  0.41906320591E+03  0.00000000000E+00 0. -1.
         21   -1    0    0  501  502 -0.00000000000E+00 -0.00000000000E+00 -0.93213862371E+01  0.93213862371E+01  0.00000000000E+00 0. -1.
         25    1    1    2    0    0  0.00000000000E+00  0.00000000000E+00  0.40974181967E+03  0.42838459214E+03  0.12500000000E+03 0.  0.
<mgrwt>
<rscale>  0 0.12500000E+03</rscale>
<asrwt>0</asrwt>
<pdfrwt beam="1">  1       21 0.64471248E-01 0.12500000E+03</pdfrwt>
<pdfrwt beam="2">  1       21 0.14340597E-02 0.12500000E+03</pdfrwt>
<totfact> 0.46213912E+06</totfact>
</mgrwt>
</event>
<event>
 3    1  0.1603864E-001  0.1250000E+03  0.7546771E-02  0.1235069E+00
         21   -1    0    0  502  501  0.00000000000E+00  0.00000000000E+00  0.93608126496E+01  0.93608126496E+01  0.00000000000E+00 0. -1.
         21   -1    0    0  501  502 -0.00000000000E+00 -0.00000000000E+00 -0.41729817124E+03  0.41729817124E+03  0.00000000000E+00 0. -1.
         25    1    1    2    0    0  0.00000000000E+00  0.00000000000E+00 -0.40793735859E+03  0.42665898389E+03  0.12500000000E+03 0.  0.
<mgrwt>
<rscale>  0 0.12500000E+03</rscale>
<asrwt>0</asrwt>
<pdfrwt beam="1">  1       21 0.14401251E-02 0.12500000E+03</pdfrwt>
<pdfrwt beam="2">  1       21 0.64199714E-01 0.12500000E+03</pdfrwt>
<totfact> 0.46321939E+06</totfact>
</mgrwt>
</event>
<event>
 3    1  0.1603864E-001  0.1250000E+03  0.7546771E-02  0.1235069E+00
         21   -1    0    0  502  501  0.00000000000E+00  0.00000000000E+00  0.28320882879E+03  0.28320882879E+03  0.00000000000E+00 0. -1.
         21   -1    0    0  501  502 -0.00000000000E+00 -0.00000000000E+00 -0.13792825657E+02  0.13792825657E+02  0.00000000000E+00 0. -1.
         25    1    1    2    0    0  0.00000000000E+00  0.00000000000E+00  0.26941600314E+03  0.29700165445E+03  0.12500000000E+03 0.  0.
<mgrwt>
<rscale>  0 0.12500000E+03</rscale>
<asrwt>0</asrwt>
<pdfrwt beam="1">  1       21 0.43570585E-01 0.12500000E+03</pdfrwt>
<pdfrwt beam="2">  1       21 0.21219734E-02 0.12500000E+03</pdfrwt>
<totfact> 0.55706274E+06</totfact>
</mgrwt>
</event>
<event>
 3    1  0.1603864E-001  0.1250000E+03  0.7546771E-02  0.1235069E+00
         21   -1    0    0  502  501  0.00000000000E+00  0.00000000000E+00  0.26791389744E+03  0.26791389744E+03  0.00000000000E+00 0.  1.
         21   -1    0    0  501  502 -0.00000000000E+00 -0.00000000000E+00 -0.14580244016E+02  0.14580244016E+02  0.00000000000E+00 0.  1.
         25    1    1    2    0    0  0.00000000000E+00  0.00000000000E+00  0.25333365342E+03  0.28249414145E+03  0.12500000000E+03 0.  0.
<mgrwt>
<rscale>  0 0.12500000E+03</rscale>
<asrwt>0</asrwt>
<pdfrwt beam="1">  1       21 0.41217519E-01 0.12500000E+03</pdfrwt>
<pdfrwt beam="2">  1       21 0.22431147E-02 0.12500000E+03</pdfrwt>
<totfact> 0.56943099E+06</totfact>
</mgrwt>
</event>
<event>
 3    1  0.1603864E-001  0.1250000E+03  0.7546771E-02  0.1235069E+00
         21   -1    0    0  502  501  0.00000000000E+00  0.00000000000E+00  0.65808010979E+02  0.65808010979E+02  0.00000000000E+00 0.  1.
         21   -1    0    0  501  502 -0.00000000000E+00 -0.00000000000E+00 -0.59358274804E+02  0.59358274804E+02  0.00000000000E+00 0.  1.
         25    1    1    2    0    0  0.00000000000E+00  0.00000000000E+00  0.64497361747E+01  0.12516628578E+03  0.12500000000E+03 0.  0.
<mgrwt>
<rscale>  0 0.12500000E+03</rscale>
<asrwt>0</asrwt>
<pdfrwt beam="1">  1       21 0.10124309E-01 0.12500000E+03</pdfrwt>
<pdfrwt beam="2">  1       21 0.91320423E-02 0.12500000E+03</pdfrwt>
<totfact> 0.74021124E+06</totfact>
</mgrwt>
</event>
<event>
 3    1  0.1603864E-001  0.1250000E+03  0.7546771E-02  0.1235069E+00
         21   -1    0    0  502  501  0.00000000000E+00  0.00000000000E+00  0.19623398512E+03  0.19623398512E+03  0.00000000000E+00 0. -1.
         21   -1    0    0  501  502 -0.00000000000E+00 -0.00000000000E+00 -0.19906083024E+02  0.19906083024E+02  0.00000000000E+00 0. -1.
         25    1    1    2    0    0  0.00000000000E+00  0.00000000000E+00  0.17632790210E+03  0.21614006814E+03  0.12500000000E+03 0.  0.
<mgrwt>
<rscale>  0 0.12500000E+03</rscale>
<asrwt>0</asrwt>
<pdfrwt beam="1">  1       21 0.30189843E-01 0.12500000E+03</pdfrwt>
<pdfrwt beam="2">  1       21 0.30624744E-02 0.12500000E+03</pdfrwt>
<totfact> 0.63219265E+06</totfact>
</mgrwt>
</event>
<event>
 3    1  0.1603864E-001  0.1250000E+03  0.7546771E-02  0.1235069E+00
         21   -1    0    0  502  501  0.00000000000E+00  0.00000000000E+00  0.97224426598E+02  0.97224426598E+02  0.00000000000E+00 0. -1.
         21   -1    0    0  501  502 -0.00000000000E+00 -0.00000000000E+00 -0.40177660457E+02  0.40177660457E+02  0.00000000000E+00 0. -1.
         25    1    1    2    0    0  0.00000000000E+00  0.00000000000E+00  0.57046766141E+02  0.13740208706E+03  0.12500000000E+03 0.  0.
<mgrwt>
<rscale>  0 0.12500000E+03</rscale>
<asrwt>0</asrwt>
<pdfrwt beam="1">  1       21 0.14957604E-01 0.12500000E+03</pdfrwt>
<pdfrwt beam="2">  1       21 0.61811786E-02 0.12500000E+03</pdfrwt>
<totfact> 0.72379954E+06</totfact>
</mgrwt>
</event>
<event>
 3    1  0.1603864E-001  0.1250000E+03  0.7546771E-02  0.1235069E+00
         21   -1    0    0  502  501  0.00000000000E+00  0.00000000000E+00  0.16429044336E+02  0.16429044336E+02  0.00000000000E+00 0. -1.
         21   -1    0    0  501  502 -0.00000000000E+00 -0.00000000000E+00 -0.23776489491E+03  0.23776489491E+03  0.00000000000E+00 0. -1.
         25    1    1    2    0    0  0.00000000000E+00  0.00000000000E+00 -0.22133585057E+03  0.25419393924E+03  0.12500000000E+03 0.  0.
<mgrwt>
<rscale>  0 0.12500000E+03</rscale>
<asrwt>0</asrwt>
<pdfrwt beam="1">  1       21 0.25275453E-02 0.12500000E+03</pdfrwt>
<pdfrwt beam="2">  1       21 0.36579214E-01 0.12500000E+03</pdfrwt>
<totfact> 0.59485568E+06</totfact>
</mgrwt>
</event>
<event>
 3    1  0.1603864E-001  0.1250000E+03  0.7546771E-02  0.1235069E+00
         21   -1    0    0  502  501  0.00000000000E+00  0.00000000000E+00  0.36276153200E+02  0.36276153200E+02  0.00000000000E+00 0.  1.
         21   -1    0    0  501  502 -0.00000000000E+00 -0.00000000000E+00 -0.10768093239E+03  0.10768093239E+03  0.00000000000E+00 0.  1.
         25    1    1    2    0    0  0.00000000000E+00  0.00000000000E+00 -0.71404779187E+02  0.14395708559E+03  0.12500000000E+03 0.  0.
<mgrwt>
<rscale>  0 0.12500000E+03</rscale>
<asrwt>0</asrwt>
<pdfrwt beam="1">  1       21 0.55809466E-02 0.12500000E+03</pdfrwt>
<pdfrwt beam="2">  1       21 0.16566297E-01 0.12500000E+03</pdfrwt>
<totfact> 0.71526834E+06</totfact>
</mgrwt>
</event>
<event>
 3    1  0.1603864E-001  0.1250000E+03  0.7546771E-02  0.1235069E+00
         21   -1    0    0  502  501  0.00000000000E+00  0.00000000000E+00  0.87997255855E+01  0.87997255855E+01  0.00000000000E+00 0. -1.
         21   -1    0    0  501  502 -0.00000000000E+00 -0.00000000000E+00 -0.44390588798E+03  0.44390588798E+03  0.00000000000E+00 0. -1.
         25    1    1    2    0    0  0.00000000000E+00  0.00000000000E+00 -0.43510616239E+03  0.45270561357E+03  0.12500000000E+03 0.  0.
<mgrwt>
<rscale>  0 0.12500000E+03</rscale>
<asrwt>0</asrwt>
<pdfrwt beam="1">  1       21 0.13538045E-02 0.12500000E+03</pdfrwt>
<pdfrwt beam="2">  1       21 0.68293185E-01 0.12500000E+03</pdfrwt>
<totfact> 0.44730823E+06</totfact>
</mgrwt>
</event>
<event>
 3    1  0.1603864E-001  0.1250000E+03  0.7546771E-02  0.1235069E+00
         21   -1    0    0  502  501  0.00000000000E+00  0.00000000000E+00  0.30633529646E+03  0.30633529646E+03  0.00000000000E+00 0.  1.
         21   -1    0    0  501  502 -0.00000000000E+00 -0.00000000000E+00 -0.12751550491E+02  0.12751550491E+02  0.00000000000E+00 0.  1.
         25    1    1    2    0    0  0.00000000000E+00  0.00000000000E+00  0.29358374596E+03  0.31908684695E+03  0.12500000000E+03 0.  0.
<mgrwt>
<rscale>  0 0.12500000E+03</rscale>
<asrwt>0</asrwt>
<pdfrwt beam="1">  1       21 0.47128501E-01 0.12500000E+03</pdfrwt>
<pdfrwt beam="2">  1       21 0.19617772E-02 0.12500000E+03</pdfrwt>
<totfact> 0.53905787E+06</totfact>
</mgrwt>
</event>
<event>
 3    1  0.1603864E-001  0.1250000E+03  0.7546771E-02  0.1235069E+00
         21   -1    0    0  502  501  0.00000000000E+00  0.00000000000E+00  0.40520302140E+03  0.40520302140E+03  0.00000000000E+00 0.  1.
         21   -1    0    0  501  502 -0.00000000000E+00 -0.00000000000E+00 -0.96402292030E+01  0.96402292030E+01  0.00000000000E+00 0.  1.
         25    1    1    2    0    0  0.00000000000E+00  0.00000000000E+00  0.39556279219E+03  0.41484325060E+03  0.12500000000E+03 0.  0.
<mgrwt>
<rscale>  0 0.12500000E+03</rscale>
<asrwt>0</asrwt>
<pdfrwt beam="1">  1       21 0.62338913E-01 0.12500000E+03</pdfrwt>
<pdfrwt beam="2">  1       21 0.14831125E-02 0.12500000E+03</pdfrwt>
<totfact> 0.47072155E+06</totfact>
</mgrwt>
</event>
<event>
 3    1  0.1603864E-001  0.1250000E+03  0.7546771E-02  0.1235069E+00
         21   -1    0    0  502  501  0.00000000000E+00  0.00000000000E+00  0.53243345946E+02  0.53243345946E+02  0.00000000000E+00 0. -1.
         21   -1    0    0  501  502 -0.00000000000E+00 -0.00000000000E+00 -0.73365975233E+02  0.73365975233E+02  0.00000000000E+00 0. -1.
         25    1    1    2    0    0  0.00000000000E+00  0.00000000000E+00 -0.20122629286E+02  0.12660932118E+03  0.12500000000E+03 0.  0.
<mgrwt>
<rscale>  0 0.12500000E+03</rscale>
<asrwt>0</asrwt>
<pdfrwt beam="1">  1       21 0.81912840E-02 0.12500000E+03</pdfrwt>
<pdfrwt beam="2">  1       21 0.11287073E-01 0.12500000E+03</pdfrwt>
<totfact> 0.73822422E+06</totfact>
</mgrwt>
</event>
<event>
 3    1  0.1603864E-001  0.1250000E+03  0.7546771E-02  0.1235069E+00
         21   -1    0    0  502  501  0.00000000000E+00  0.00000000000E+00  0.17674966644E+02  0.17674966644E+02  0.00000000000E+00 0. -1.
         21   -1    0    0  501  502 -0.00000000000E+00 -0.00000000000E+00 -0.22100466036E+03  0.22100466036E+03  0.00000000000E+00 0. -1.
         25    1    1    2    0    0  0.00000000000E+00  0.00000000000E+00 -0.20332969372E+03  0.23867962701E+03  0.12500000000E+03 0.  0.
<mgrwt>
<rscale>  0 0.12500000E+03</rscale>
<asrwt>0</asrwt>
<pdfrwt beam="1">  1       21 0.27192257E-02 0.12500000E+03</pdfrwt>
<pdfrwt beam="2">  1       21 0.34000717E-01 0.12500000E+03</pdfrwt>
<totfact> 0.60960667E+06</totfact>
</mgrwt>
</event>
<event>
 3    1  0.1603864E-001  0.1250000E+03  0.7546771E-02  0.1235069E+00
         21   -1    0    0  502  501  0.00000000000E+00  0.00000000000E+00  0.21259331205E+02  0.21259331205E+02  0.00000000000E+00 0.  1.
         21   -1    0    0  501  502 -0.00000000000E+00 -0.00000000000E+00 -0.18374284507E+03  0.18374284507E+03  0.00000000000E+00 0.  1.
         25    1    1    2    0    0  0.00000000000E+00  0.00000000000E+00 -0.16248351387E+03  0.20500217628E+03  0.12500000000E+03 0.  0.
<mgrwt>
<rscale>  0 0.12500000E+03</rscale>
<asrwt>0</asrwt>
<pdfrwt beam="1">  1       21 0.32706664E-02 0.12500000E+03</pdfrwt>
<pdfrwt beam="2">  1       21 0.28268130E-01 0.12500000E+03</pdfrwt>
<totfact> 0.64389230E+06</totfact>
</mgrwt>
</event>
<event>
 3    1  0.1603864E-001  0.1250000E+03  0.7546771E-02  0.1235069E+00
         21   -1    0    0  502  501  0.00000000000E+00  0.00000000000E+00  0.80509425161E+01  0.80509425161E+01  0.00000000000E+00 0.  1.
         21   -1    0    0  501  502 -0.00000000000E+00 -0.00000000000E+00 -0.48519163964E+03  0.48519163964E+03  0.00000000000E+00 0.  1.
         25    1    1    2    0    0  0.00000000000E+00  0.00000000000E+00 -0.47714069712E+03  0.49324258215E+03  0.12500000000E+03 0.  0.
<mgrwt>
<rscale>  0 0.12500000E+03</rscale>
<asrwt>0</asrwt>
<pdfrwt beam="1">  1       21 0.12386067E-02 0.12500000E+03</pdfrwt>
<pdfrwt beam="2">  1       21 0.74644856E-01 0.12500000E+03</pdfrwt>
<totfact> 0.42412931E+06</totfact>
</mgrwt>
</event>
<event>
 3    1  0.1603864E-001  0.1250000E+03  0.7546771E-02  0.1235069E+00
         21   -1    0    0  502  501  0.00000000000E+00  0.00000000000E+00  0.67454091523E+02  0.67454091523E+02  0.00000000000E+00 0.  1.
         21   -1    0    0  501  502 -0.00000000000E+00 -0.00000000000E+00 -0.57909756277E+02  0.57909756277E+02  0.00000000000E+00 0.  1.
         25    1    1    2    0    0  0.00000000000E+00  0.00000000000E+00  0.95443352463E+01  0.12536384780E+03  0.12500000000E+03 0.  0.
<mgrwt>
<rscale>  0 0.12500000E+03</rscale>
<asrwt>0</asrwt>
<pdfrwt beam="1">  1       21 0.10377552E-01 0.12500000E+03</pdfrwt>
<pdfrwt beam="2">  1       21 0.89091933E-02 0.12500000E+03</pdfrwt>
<totfact> 0.73994453E+06</totfact>
</mgrwt>
</event>
<event>
 3    1  0.1603864E-001  0.1250000E+03  0.7546771E-02  0.1235069E+00
         21   -1    0    0  502  501  0.00000000000E+00  0.00000000000E+00  0.37470276162E+02  0.37470276162E+02  0.00000000000E+00 0.  1.
         21   -1    0    0  501  502 -0.00000000000E+00 -0.00000000000E+00 -0.10424929838E+03  0.10424929838E+03  0.00000000000E+00 0.  1.
         25    1    1    2    0    0  0.00000000000E+00  0.00000000000E+00 -0.66779022220E+02  0.14171957454E+03  0.12500000000E+03 0.  0.
<mgrwt>
<rscale>  0 0.12500000E+03</rscale>
<asrwt>0</asrwt>
<pdfrwt beam="1">  1       21 0.57646578E-02 0.12500000E+03</pdfrwt>
<pdfrwt beam="2">  1       21 0.16038354E-01 0.12500000E+03</pdfrwt>
<totfact> 0.71815609E+06</totfact>
</mgrwt>
</event>
<event>
 3    1  0.1603864E-001  0.1250000E+03  0.7546771E-02  0.1235069E+00
         21   -1    0    0  502  501  0.00000000000E+00  0.00000000000E+00  0.76530087533E+01  0.76530087533E+01  0.00000000000E+00 0. -1.
         21   -1    0    0  501  502 -0.00000000000E+00 -0.00000000000E+00 -0.51042016623E+03  0.51042016623E+03  0.00000000000E+00 0. -1.
         25    1    1    2    0    0  0.00000000000E+00  0.00000000000E+00 -0.50276715747E+03  0.51807317498E+03  0.12500000000E+03 0.  0.
<mgrwt>
<rscale>  0 0.12500000E+03</rscale>
<asrwt>0</asrwt>
<pdfrwt beam="1">  1       21 0.11773858E-02 0.12500000E+03</pdfrwt>
<pdfrwt beam="2">  1       21 0.78526189E-01 0.12500000E+03</pdfrwt>
<totfact> 0.41080579E+06</totfact>
</mgrwt>
</event>
<event>
 3    1  0.1603864E-001  0.1250000E+03  0.7546771E-02  0.1235069E+00
         21   -1    0    0  502  501  0.00000000000E+00  0.00000000000E+00  0.85087755744E+03  0.85087755744E+03  0.00000000000E+00 0. -1.
         21   -1    0    0  501  502 -0.00000000000E+00 -0.00000000000E+00 -0.45908485491E+01  0.45908485491E+01  0.00000000000E+00 0. -1.
         25    1    1    2    0    0  0.00000000000E+00  0.00000000000E+00  0.84628670889E+03  0.85546840599E+03  0.12500000000E+03 0.  0.
<mgrwt>
<rscale>  0 0.12500000E+03</rscale>
<asrwt>0</asrwt>
<pdfrwt beam="1">  1       21 0.13090411E+00 0.12500000E+03</pdfrwt>
<pdfrwt beam="2">  1       21 0.70628507E-03 0.12500000E+03</pdfrwt>
<totfact> 0.27605415E+06</totfact>
</mgrwt>
</event>
<event>
 3    1  0.1603864E-001  0.1250000E+03  0.7546771E-02  0.1235069E+00
         21   -1    0    0  502  501  0.00000000000E+00  0.00000000000E+00  0.33944931381E+02  0.33944931381E+02  0.00000000000E+00 0. -1.
         21   -1    0    0  501  502 -0.00000000000E+00 -0.00000000000E+00 -0.11507609063E+03  0.11507609063E+03  0.00000000000E+00 0. -1.
         25    1    1    2    0    0  0.00000000000E+00  0.00000000000E+00 -0.81131159250E+02  0.14902102201E+03  0.12500000000E+03 0.  0.
<mgrwt>
<rscale>  0 0.12500000E+03</rscale>
<asrwt>0</asrwt>
<pdfrwt beam="1">  1       21 0.52222971E-02 0.12500000E+03</pdfrwt>
<pdfrwt beam="2">  1       21 0.17704014E-01 0.12500000E+03</pdfrwt>
<totfact> 0.70882396E+06</totfact>
</mgrwt>
</event>
<event>
 3    1  0.1603864E-001  0.1250000E+03  0.7546771E-02  0.1235069E+00
         21   -1    0    0  502  501  0.00000000000E+00  0.00000000000E+00  0.10687185908E+02  0.10687185908E+02  0.00000000000E+00 0. -1.
         21   -1    0    0  501  502 -0.00000000000E+00 -0.00000000000E+00 -0.36550781782E+03  0.36550781782E+03  0.00000000000E+00 0. -1.
         25    1    1    2    0    0  0.00000000000E+00  0.00000000000E+00 -0.35482063191E+03  0.37619500373E+03  0.12500000000E+03 0.  0.
<mgrwt>
<rscale>  0 0.12500000E+03</rscale>
<asrwt>0</asrwt>
<pdfrwt beam="1">  1       21 0.16441823E-02 0.12500000E+03</pdfrwt>
<pdfrwt beam="2">  1       21 0.56231978E-01 0.12500000E+03</pdfrwt>
<totfact> 0.49660151E+06</totfact>
</mgrwt>
</event>
<event>
 3    1  0.1603864E-001  0.1250000E+03  0.7546771E-02  0.1235069E+00
         21   -1    0    0  502  501  0.00000000000E+00  0.00000000000E+00  0.51717353989E+03  0.51717353989E+03  0.00000000000E+00 0.  1.
         21   -1    0    0  501  502 -0.00000000000E+00 -0.00000000000E+00 -0.75530739659E+01  0.75530739659E+01  0.00000000000E+00 0.  1.
         25    1    1    2    0    0  0.00000000000E+00  0.00000000000E+00  0.50962046592E+03  0.52472661385E+03  0.12500000000E+03 0.  0.
<mgrwt>
<rscale>  0 0.12500000E+03</rscale>
<asrwt>0</asrwt>
<pdfrwt beam="1">  1       21 0.79565133E-01 0.12500000E+03</pdfrwt>
<pdfrwt beam="2">  1       21 0.11620118E-02 0.12500000E+03</pdfrwt>
<totfact> 0.40734083E+06</totfact>
</mgrwt>
</event>
<event>
 3    1  0.1603864E-001  0.1250000E+03  0.7546771E-02  0.1235069E+00
         21   -1    0    0  502  501  0.00000000000E+00  0.00000000000E+00  0.21891188848E+01  0.21891188848E+01  0.00000000000E+00 0.  1.
         21   -1    0    0  501  502 -0.00000000000E+00 -0.00000000000E+00 -0.17843937244E+04  0.17843937244E+04  0.00000000000E+00 0.  1.
         25    1    1    2    0    0  0.00000000000E+00  0.00000000000E+00 -0.17822046055E+04  0.17865828433E+04  0.12500000000E+03 0.  0.
<mgrwt>
<rscale>  0 0.12500000E+03</rscale>
<asrwt>0</asrwt>
<pdfrwt beam="1">  1       21 0.33678818E-03 0.12500000E+03</pdfrwt>
<pdfrwt beam="2">  1       21 0.27452158E+00 0.12500000E+03</pdfrwt>
<totfact> 0.10225214E+06</totfact>
</mgrwt>
</event>
<event>
 3    1  0.1603864E-001  0.1250000E+03  0.7546771E-02  0.1235069E+00
         21   -1    0    0  502  501  0.00000000000E+00  0.00000000000E+00  0.72629637680E+02  0.72629637680E+02  0.00000000000E+00 0.  1.
         21   -1    0    0  501  502 -0.00000000000E+00 -0.00000000000E+00 -0.53783140392E+02  0.53783140392E+02  0.00000000000E+00 0.  1.
         25    1    1    2    0    0  0.00000000000E+00  0.00000000000E+00  0.18846497288E+02  0.12641277807E+03  0.12500000000E+03 0.  0.
<mgrwt>
<rscale>  0 0.12500000E+03</rscale>
<asrwt>0</asrwt>
<pdfrwt beam="1">  1       21 0.11173790E-01 0.12500000E+03</pdfrwt>
<pdfrwt beam="2">  1       21 0.82743293E-02 0.12500000E+03</pdfrwt>
<totfact> 0.73849316E+06</totfact>
</mgrwt>
</event>
<event>
 3    1  0.1603864E-001  0.1250000E+03  0.7546771E-02  0.1235069E+00
         21   -1    0    0  502  501  0.00000000000E+00  0.00000000000E+00  0.85113120655E+02  0.85113120655E+02  0.00000000000E+00 0. -1.
         21   -1    0    0  501  502 -0.00000000000E+00 -0.00000000000E+00 -0.45894804114E+02  0.45894804114E+02  0.00000000000E+00 0. -1.
         25    1    1    2    0    0  0.00000000000E+00  0.00000000000E+00  0.39218316541E+02  0.13100792477E+03  0.12500000000E+03 0.  0.
<mgrwt>
<rscale>  0 0.12500000E+03</rscale>
<asrwt>0</asrwt>
<pdfrwt beam="1">  1       21 0.13094326E-01 0.12500000E+03</pdfrwt>
<pdfrwt beam="2">  1       21 0.70607391E-02 0.12500000E+03</pdfrwt>
<totfact> 0.73229603E+06</totfact>
</mgrwt>
</event>
<event>
 3    1  0.1603864E-001  0.1250000E+03  0.7546771E-02  0.1235069E+00
         21   -1    0    0  502  501  0.00000000000E+00  0.00000000000E+00  0.53782976819E+03  0.53782976819E+03  0.00000000000E+00 0.  1.
         21   -1    0    0  501  502 -0.00000000000E+00 -0.00000000000E+00 -0.72629858573E+01  0.72629858573E+01  0.00000000000E+00 0.  1.
         25    1    1    2    0    0  0.00000000000E+00  0.00000000000E+00  0.53056678233E+03  0.54509275405E+03  0.12500000000E+03 0.  0.
<mgrwt>
<rscale>  0 0.12500000E+03</rscale>
<asrwt>0</asrwt>
<pdfrwt beam="1">  1       21 0.82743010E-01 0.12500000E+03</pdfrwt>
<pdfrwt beam="2">  1       21 0.11173829E-02 0.12500000E+03</pdfrwt>
<totfact> 0.39699633E+06</totfact>
</mgrwt>
</event>
<event>
 3    1  0.1603864E-001  0.1250000E+03  0.7546771E-02  0.1235069E+00
         21   -1    0    0  502  501  0.00000000000E+00  0.00000000000E+00  0.15665155188E+02  0.15665155188E+02  0.00000000000E+00 0.  1.
         21   -1    0    0  501  502 -0.00000000000E+00 -0.00000000000E+00 -0.24935916390E+03  0.24935916390E+03  0.00000000000E+00 0.  1.
         25    1    1    2    0    0  0.00000000000E+00  0.00000000000E+00 -0.23369400871E+03  0.26502431908E+03  0.12500000000E+03 0.  0.
<mgrwt>
<rscale>  0 0.12500000E+03</rscale>
<asrwt>0</asrwt>
<pdfrwt beam="1">  1       21 0.24100239E-02 0.12500000E+03</pdfrwt>
<pdfrwt beam="2">  1       21 0.38362947E-01 0.12500000E+03</pdfrwt>
<totfact> 0.58491805E+06</totfact>
</mgrwt>
</event>
<event>
 3    1  0.1603864E-001  0.1250000E+03  0.7546771E-02  0.1235069E+00
         21   -1    0    0  502  501  0.00000000000E+00  0.00000000000E+00  0.11598936789E+02  0.11598936789E+02  0.00000000000E+00 0.  1.
         21   -1    0    0  501  502 -0.00000000000E+00 -0.00000000000E+00 -0.33677655729E+03  0.33677655729E+03  0.00000000000E+00 0.  1.
         25    1    1    2    0    0  0.00000000000E+00  0.00000000000E+00 -0.32517762051E+03  0.34837549408E+03  0.12500000000E+03 0.  0.
<mgrwt>
<rscale>  0 0.12500000E+03</rscale>
<asrwt>0</asrwt>
<pdfrwt beam="1">  1       21 0.17844520E-02 0.12500000E+03</pdfrwt>
<pdfrwt beam="2">  1       21 0.51811772E-01 0.12500000E+03</pdfrwt>
<totfact> 0.51658632E+06</totfact>
</mgrwt>
</event>
<event>
 3    1  0.1603864E-001  0.1250000E+03  0.7546771E-02  0.1235069E+00
         21   -1    0    0  502  501  0.00000000000E+00  0.00000000000E+00  0.11184750343E+02  0.11184750343E+02  0.00000000000E+00 0.  1.
         21   -1    0    0  501  502 -0.00000000000E+00 -0.00000000000E+00 -0.34924784910E+03  0.34924784910E+03  0.00000000000E+00 0.  1.
         25    1    1    2    0    0  0.00000000000E+00  0.00000000000E+00 -0.33806309875E+03  0.36043259944E+03  0.12500000000E+03 0.  0.
<mgrwt>
<rscale>  0 0.12500000E+03</rscale>
<asrwt>0</asrwt>
<pdfrwt beam="1">  1       21 0.17207306E-02 0.12500000E+03</pdfrwt>
<pdfrwt beam="2">  1       21 0.53730445E-01 0.12500000E+03</pdfrwt>
<totfact> 0.50777061E+06</totfact>
</mgrwt>
</event>
<event>
 3    1  0.1603864E-001  0.1250000E+03  0.7546771E-02  0.1235069E+00
         21   -1    0    0  502  501  0.00000000000E+00  0.00000000000E+00  0.48087120110E+03  0.48087120110E+03  0.00000000000E+00 0.  1.
         21   -1    0    0  501  502 -0.00000000000E+00 -0.00000000000E+00 -0.81232770668E+01  0.81232770668E+01  0.00000000000E+00 0.  1.
         25    1    1    2    0    0  0.00000000000E+00  0.00000000000E+00  0.47274792403E+03  0.48899447817E+03  0.12500000000E+03 0.  0.
<mgrwt>
<rscale>  0 0.12500000E+03</rscale>
<asrwt>0</asrwt>
<pdfrwt beam="1">  1       21 0.73980162E-01 0.12500000E+03</pdfrwt>
<pdfrwt beam="2">  1       21 0.12497353E-02 0.12500000E+03</pdfrwt>
<totfact> 0.42647291E+06</totfact>
</mgrwt>
</event>
<event>
 3    1  0.1603864E-001  0.1250000E+03  0.7546771E-02  0.1235069E+00
         21   -1    0    0  502  501  0.00000000000E+00  0.00000000000E+00  0.53410839038E+02  0.53410839038E+02  0.00000000000E+00 0.  1.
         21   -1    0    0  501  502 -0.00000000000E+00 -0.00000000000E+00 -0.73135904066E+02  0.73135904066E+02  0.00000000000E+00 0.  1.
         25    1    1    2    0    0  0.00000000000E+00  0.00000000000E+00 -0.19725065027E+02  0.12654674310E+03  0.12500000000E+03 0.  0.
<mgrwt>
<rscale>  0 0.12500000E+03</rscale>
<asrwt>0</asrwt>
<pdfrwt beam="1">  1       21 0.82170522E-02 0.12500000E+03</pdfrwt>
<pdfrwt beam="2">  1       21 0.11251677E-01 0.12500000E+03</pdfrwt>
<totfact> 0.73830978E+06</totfact>
</mgrwt>
</event>
<event>
 3    1  0.1603864E-001  0.1250000E+03  0.7546771E-02  0.1235069E+00
         21   -1    0    0  502  501  0.00000000000E+00  0.00000000000E+00  0.16842184952E+02  0.16842184952E+02  0.00000000000E+00 0. -1.
         21   -1    0    0  501  502 -0.00000000000E+00 -0.00000000000E+00 -0.23193249635E+03  0.23193249635E+03  0.00000000000E+00 0. -1.
         25    1    1    2    0    0  0.00000000000E+00  0.00000000000E+00 -0.21509031140E+03  0.24877468130E+03  0.12500000000E+03 0.  0.
<mgrwt>
<rscale>  0 0.12500000E+03</rscale>
<asrwt>0</asrwt>
<pdfrwt beam="1">  1       21 0.25911054E-02 0.12500000E+03</pdfrwt>
<pdfrwt beam="2">  1       21 0.35681922E-01 0.12500000E+03</pdfrwt>
<totfact> 0.59993743E+06</totfact>
</mgrwt>
</event>
<event>
 3    1  0.1603864E-001  0.1250000E+03  0.7546771E-02  0.1235069E+00
         21   -1    0    0  502  501  0.00000000000E+00  0.00000000000E+00  0.76119095041E+02  0.76119095041E+02  0.00000000000E+00 0. -1.
         21   -1    0    0  501  502 -0.00000000000E+00 -0.00000000000E+00 -0.51317609568E+02  0.51317609568E+02  0.00000000000E+00 0. -1.
         25    1    1    2    0    0  0.00000000000E+00  0.00000000000E+00  0.24801485473E+02  0.12743670461E+03  0.12500000000E+03 0.  0.
<mgrwt>
<rscale>  0 0.12500000E+03</rscale>
<asrwt>0</asrwt>
<pdfrwt beam="1">  1       21 0.11710630E-01 0.12500000E+03</pdfrwt>
<pdfrwt beam="2">  1       21 0.78950168E-02 0.12500000E+03</pdfrwt>
<totfact> 0.73709801E+06</totfact>
</mgrwt>
</event>
<event>
 3    1  0.1603864E-001  0.1250000E+03  0.7546771E-02  0.1235069E+00
         21   -1    0    0  502  501  0.00000000000E+00  0.00000000000E+00  0.67312817608E+03  0.67312817608E+03  0.00000000000E+00 0.  1.
         21   -1    0    0  501  502 -0.00000000000E+00 -0.00000000000E+00 -0.58031295358E+01  0.58031295358E+01  0.00000000000E+00 0.  1.
         25    1    1    2    0    0  0.00000000000E+00  0.00000000000E+00  0.66732504654E+03  0.67893130561E+03  0.12500000000E+03 0.  0.
<mgrwt>
<rscale>  0 0.12500000E+03</rscale>
<asrwt>0</asrwt>
<pdfrwt beam="1">  1       21 0.10355812E+00 0.12500000E+03</pdfrwt>
<pdfrwt beam="2">  1       21 0.89278969E-03 0.12500000E+03</pdfrwt>
<totfact> 0.33738365E+06</totfact>
</mgrwt>
</event>
<event>
 3    1  0.1603864E-001  0.1250000E+03  0.7546771E-02  0.1235069E+00
         21   -1    0    0  502  501  0.00000000000E+00  0.00000000000E+00  0.35961960370E+01  0.35961960370E+01  0.00000000000E+00 0. -1.
         21   -1    0    0  501  502 -0.00000000000E+00 -0.00000000000E+00 -0.10862172028E+04  0.10862172028E+04  0.00000000000E+00 0. -1.
         25    1    1    2    0    0  0.00000000000E+00  0.00000000000E+00 -0.10826210068E+04  0.10898133988E+04  0.12500000000E+03 0.  0.
<mgrwt>
<rscale>  0 0.12500000E+03</rscale>
<asrwt>0</asrwt>
<pdfrwt beam="1">  1       21 0.55326116E-03 0.12500000E+03</pdfrwt>
<pdfrwt beam="2">  1       21 0.16711027E+00 0.12500000E+03</pdfrwt>
<totfact> 0.21479395E+06</totfact>
</mgrwt>
</event>
<event>
 3    1  0.1603864E-001  0.1250000E+03  0.7546771E-02  0.1235069E+00
         21   -1    0    0  502  501  0.00000000000E+00  0.00000000000E+00  0.69627755846E+03  0.69627755846E+03  0.00000000000E+00 0.  1.
         21   -1    0    0  501  502 -0.00000000000E+00 -0.00000000000E+00 -0.56101908679E+01  0.56101908679E+01  0.00000000000E+00 0.  1.
         25    1    1    2    0    0  0.00000000000E+00  0.00000000000E+00  0.69066736760E+03  0.70188774933E+03  0.12500000000E+03 0.  0.
<mgrwt>
<rscale>  0 0.12500000E+03</rscale>
<asrwt>0</asrwt>
<pdfrwt beam="1">  1       21 0.10711956E+00 0.12500000E+03</pdfrwt>
<pdfrwt beam="2">  1       21 0.86310684E-03 0.12500000E+03</pdfrwt>
<totfact> 0.32837504E+06</totfact>
</mgrwt>
</event>
<event>
 3    1  0.1603864E-001  0.1250000E+03  0.7546771E-02  0.1235069E+00
         21   -1    0    0  502  501  0.00000000000E+00  0.00000000000E+00  0.96022268232E+01  0.96022268232E+01  0.00000000000E+00 0. -1.
         21   -1    0    0  501  502 -0.00000000000E+00 -0.00000000000E+00 -0.40680667849E+03  0.40680667849E+03  0.00000000000E+00 0. -1.
         25    1    1    2    0    0  0.00000000000E+00  0.00000000000E+00 -0.39720445166E+03  0.41640890531E+03  0.12500000000E+03 0.  0.
<mgrwt>
<rscale>  0 0.12500000E+03</rscale>
<asrwt>0</asrwt>
<pdfrwt beam="1">  1       21 0.14772654E-02 0.12500000E+03</pdfrwt>
<pdfrwt beam="2">  1       21 0.62585652E-01 0.12500000E+03</pdfrwt>
<totfact> 0.46971672E+06</totfact>
</mgrwt>
</event>
<event>
 3    1  0.1603864E-001  0.1250000E+03  0.7546771E-02  0.1235069E+00
         21   -1    0    0  502  501  0.00000000000E+00  0.00000000000E+00  0.39753849693E+03  0.39753849693E+03  0.00000000000E+00 0. -1.
         21   -1    0    0  501  502 -0.00000000000E+00 -0.00000000000E+00 -0.98260923915E+01  0.98260923915E+01  0.00000000000E+00 0. -1.
         25    1    1    2    0    0  0.00000000000E+00  0.00000000000E+00  0.38771240454E+03  0.40736458932E+03  0.12500000000E+03 0.  0.
<mgrwt>
<rscale>  0 0.12500000E+03</rscale>
<asrwt>0</asrwt>
<pdfrwt beam="1">  1       21 0.61159756E-01 0.12500000E+03</pdfrwt>
<pdfrwt beam="2">  1       21 0.15117068E-02 0.12500000E+03</pdfrwt>
<totfact> 0.47556677E+06</totfact>
</mgrwt>
</event>
<event>
 3    1  0.1603864E-001  0.1250000E+03  0.7546771E-02  0.1235069E+00
         21   -1    0    0  502  501  0.00000000000E+00  0.00000000000E+00  0.11776281452E+04  0.11776281452E+04  0.00000000000E+00 0.  1.
         21   -1    0    0  501  502 -0.00000000000E+00 -0.00000000000E+00 -0.33170487780E+01  0.33170487780E+01  0.00000000000E+00 0.  1.
         25    1    1    2    0    0  0.00000000000E+00  0.00000000000E+00  0.11743110964E+04  0.11809451940E+04  0.12500000000E+03 0.  0.
<mgrwt>
<rscale>  0 0.12500000E+03</rscale>
<asrwt>0</asrwt>
<pdfrwt beam="1">  1       21 0.18117323E+00 0.12500000E+03</pdfrwt>
<pdfrwt beam="2">  1       21 0.51031614E-03 0.12500000E+03</pdfrwt>
<totfact> 0.19527336E+06</totfact>
</mgrwt>
</event>
<event>
 3    1  0.1603864E-001  0.1250000E+03  0.7546771E-02  0.1235069E+00
         21   -1    0    0  502  501  0.00000000000E+00  0.00000000000E+00  0.12319519591E+03  0.12319519591E+03  0.00000000000E+00 0. -1.
         21   -1    0    0  501  502 -0.00000000000E+00 -0.00000000000E+00 -0.31707811096E+02  0.31707811096E+02  0.00000000000E+00 0. -1.
         25    1    1    2    0    0  0.00000000000E+00  0.00000000000E+00  0.91487384818E+02  0.15490300701E+03  0.12500000000E+03 0.  0.
<mgrwt>
<rscale>  0 0.12500000E+03</rscale>
<asrwt>0</asrwt>
<pdfrwt beam="1">  1       21 0.18953107E-01 0.12500000E+03</pdfrwt>
<pdfrwt beam="2">  1       21 0.48781248E-02 0.12500000E+03</pdfrwt>
<totfact> 0.70147716E+06</totfact>
</mgrwt>
</event>
<event>
 3    1  0.1603864E-001  0.1250000E+03  0.7546771E-02  0.1235069E+00
         21   -1    0    0  502  501  0.00000000000E+00  0.00000000000E+00  0.34597594991E+03  0.34597594991E+03  0.00000000000E+00 0. -1.
         21   -1    0    0  501  502 -0.00000000000E+00 -0.00000000000E+00 -0.11290524677E+02  0.11290524677E+02  0.00000000000E+00 0. -1.
         25    1    1    2    0    0  0.00000000000E+00  0.00000000000E+00  0.33468542524E+03  0.35726647459E+03  0.12500000000E+03 0.  0.
<mgrwt>
<rscale>  0 0.12500000E+03</rscale>
<asrwt>0</asrwt>
<pdfrwt beam="1">  1       21 0.53227061E-01 0.12500000E+03</pdfrwt>
<pdfrwt beam="2">  1       21 0.17370041E-02 0.12500000E+03</pdfrwt>
<totfact> 0.51006223E+06</totfact>
</mgrwt>
</event>
<event>
 3    1  0.1603864E-001  0.1250000E+03  0.7546771E-02  0.1235069E+00
         21   -1    0    0  502  501  0.00000000000E+00  0.00000000000E+00  0.14386944874E+01  0.14386944874E+01  0.00000000000E+00 0.  1.
         21   -1    0    0  501  502 -0.00000000000E+00 -0.00000000000E+00 -0.27151351689E+04  0.27151351689E+04  0.00000000000E+00 0.  1.
         25    1    1    2    0    0  0.00000000000E+00  0.00000000000E+00 -0.27136964744E+04  0.27165738634E+04  0.12500000000E+03 0.  0.
<mgrwt>
<rscale>  0 0.12500000E+03</rscale>
<asrwt>0</asrwt>
<pdfrwt beam="1">  1       21 0.22133812E-03 0.12500000E+03</pdfrwt>
<pdfrwt beam="2">  1       21 0.41771215E+00 0.12500000E+03</pdfrwt>
<totfact> 0.28540330E+05</totfact>
</mgrwt>
</event>
<event>
 3    1  0.1603864E-001  0.1250000E+03  0.7546771E-02  0.1235069E+00
         21   -1    0    0  502  501  0.00000000000E+00  0.00000000000E+00  0.11876599337E+03  0.11876599337E+03  0.00000000000E+00 0.  1.
         21   -1    0    0  501  502 -0.00000000000E+00 -0.00000000000E+00 -0.32890307143E+02  0.32890307143E+02  0.00000000000E+00 0.  1.
         25    1    1    2    0    0  0.00000000000E+00  0.00000000000E+00  0.85875686226E+02  0.15165630051E+03  0.12500000000E+03 0.  0.
<mgrwt>
<rscale>  0 0.12500000E+03</rscale>
<asrwt>0</asrwt>
<pdfrwt beam="1">  1       21 0.18271691E-01 0.12500000E+03</pdfrwt>
<pdfrwt beam="2">  1       21 0.50600473E-02 0.12500000E+03</pdfrwt>
<totfact> 0.70551755E+06</totfact>
</mgrwt>
</event>
<event>
 3    1  0.1603864E-001  0.1250000E+03  0.7546771E-02  0.1235069E+00
         21   -1    0    0  502  501  0.00000000000E+00  0.00000000000E+00  0.82945460981E+03  0.82945460981E+03  0.00000000000E+00 0.  1.
         21   -1    0    0  501  502 -0.00000000000E+00 -0.00000000000E+00 -0.47094198451E+01  0.47094198451E+01  0.00000000000E+00 0.  1.
         25    1    1    2    0    0  0.00000000000E+00  0.00000000000E+00  0.82474518996E+03  0.83416402965E+03  0.12500000000E+03 0.  0.
<mgrwt>
<rscale>  0 0.12500000E+03</rscale>
<asrwt>0</asrwt>
<pdfrwt beam="1">  1       21 0.12760829E+00 0.12500000E+03</pdfrwt>
<pdfrwt beam="2">  1       21 0.72452679E-03 0.12500000E+03</pdfrwt>
<totfact> 0.28261752E+06</totfact>
</mgrwt>
</event>
<event>
 3    1  0.1603864E-001  0.1250000E+03  0.7546771E-02  0.1235069E+00
         21   -1    0    0  502  501  0.00000000000E+00  0.00000000000E+00  0.14005021500E+02  0.14005021500E+02  0.00000000000E+00 0. -1.
         21   -1    0    0  501  502 -0.00000000000E+00 -0.00000000000E+00 -0.27891781531E+03  0.27891781531E+03  0.00000000000E+00 0. -1.
         25    1    1    2    0    0  0.00000000000E+00  0.00000000000E+00 -0.26491279381E+03  0.29292283681E+03  0.12500000000E+03 0.  0.
<mgrwt>
<rscale>  0 0.12500000E+03</rscale>
<asrwt>0</asrwt>
<pdfrwt beam="1">  1       21 0.21546187E-02 0.12500000E+03</pdfrwt>
<pdfrwt beam="2">  1       21 0.42910432E-01 0.12500000E+03</pdfrwt>
<totfact> 0.56049490E+06</totfact>
</mgrwt>
</event>
<event>
 3    1  0.1603864E-001  0.1250000E+03  0.7546771E-02  0.1235069E+00
         21   -1    0    0  502  501  0.00000000000E+00  0.00000000000E+00  0.14255653567E+02  0.14255653567E+02  0.00000000000E+00 0.  1.
         21   -1    0    0  501  502 -0.00000000000E+00 -0.00000000000E+00 -0.27401409425E+03  0.27401409425E+03  0.00000000000E+00 0.  1.
         25    1    1    2    0    0  0.00000000000E+00  0.00000000000E+00 -0.25975844068E+03  0.28826974781E+03  0.12500000000E+03 0.  0.
<mgrwt>
<rscale>  0 0.12500000E+03</rscale>
<asrwt>0</asrwt>
<pdfrwt beam="1">  1       21 0.21931776E-02 0.12500000E+03</pdfrwt>
<pdfrwt beam="2">  1       21 0.42156013E-01 0.12500000E+03</pdfrwt>
<totfact> 0.56445314E+06</totfact>
</mgrwt>
</event>
<event>
 3    1  0.1603864E-001  0.1250000E+03  0.7546771E-02  0.1235069E+00
         21   -1    0    0  502  501  0.00000000000E+00  0.00000000000E+00  0.67015998358E+02  0.67015998358E+02  0.00000000000E+00 0.  1.
         21   -1    0    0  501  502 -0.00000000000E+00 -0.00000000000E+00 -0.58288320635E+02  0.58288320635E+02  0.00000000000E+00 0.  1.
         25    1    1    2    0    0  0.00000000000E+00  0.00000000000E+00  0.87276777227E+01  0.12530431899E+03  0.12500000000E+03 0.  0.
<mgrwt>
<rscale>  0 0.12500000E+03</rscale>
<asrwt>0</asrwt>
<pdfrwt beam="1">  1       21 0.10310154E-01 0.12500000E+03</pdfrwt>
<pdfrwt beam="2">  1       21 0.89674339E-02 0.12500000E+03</pdfrwt>
<totfact> 0.74002489E+06</totfact>
</mgrwt>
</event>
<event>
 3    1  0.1603864E-001  0.1250000E+03  0.7546771E-02  0.1235069E+00
         21   -1    0    0  502  501  0.00000000000E+00  0.00000000000E+00  0.81585923140E+03  0.81585923140E+03  0.00000000000E+00 0.  1.
         21   -1    0    0  501  502 -0.00000000000E+00 -0.00000000000E+00 -0.47878970411E+01  0.47878970411E+01  0.00000000000E+00 0.  1.
         25    1    1    2    0    0  0.00000000000E+00  0.00000000000E+00  0.81107133436E+03  0.82064712844E+03  0.12500000000E+03 0.  0.
<mgrwt>
<rscale>  0 0.12500000E+03</rscale>
<asrwt>0</asrwt>
<pdfrwt beam="1">  1       21 0.12551669E+00 0.12500000E+03</pdfrwt>
<pdfrwt beam="2">  1       21 0.73660019E-03 0.12500000E+03</pdfrwt>
<totfact> 0.28690081E+06</totfact>
</mgrwt>
</event>
<event>
 3    1  0.1603864E-001  0.1250000E+03  0.7546771E-02  0.1235069E+00
         21   -1    0    0  502  501  0.00000000000E+00  0.00000000000E+00  0.15802299355E+04  0.15802299355E+04  0.00000000000E+00 0.  1.
         21   -1    0    0  501  502 -0.00000000000E+00 -0.00000000000E+00 -0.24719503866E+01  0.24719503866E+01  0.00000000000E+00 0.  1.
         25    1    1    2    0    0  0.00000000000E+00  0.00000000000E+00  0.15777579851E+04  0.15827018859E+04  0.12500000000E+03 0.  0.
<mgrwt>
<rscale>  0 0.12500000E+03</rscale>
<asrwt>0</asrwt>
<pdfrwt beam="1">  1       21 0.24311149E+00 0.12500000E+03</pdfrwt>
<pdfrwt beam="2">  1       21 0.38030132E-03 0.12500000E+03</pdfrwt>
<totfact> 0.12810333E+06</totfact>
</mgrwt>
</event>
<event>
 3    1  0.1603864E-001  0.1250000E+03  0.7546771E-02  0.1235069E+00
         21   -1    0    0  502  501  0.00000000000E+00  0.00000000000E+00  0.10367036000E+02  0.10367036000E+02  0.00000000000E+00 0.  1.
         21   -1    0    0  501  502 -0.00000000000E+00 -0.00000000000E+00 -0.37679525758E+03  0.37679525758E+03  0.00000000000E+00 0.  1.
         25    1    1    2    0    0  0.00000000000E+00  0.00000000000E+00 -0.36642822158E+03  0.38716229358E+03  0.12500000000E+03 0.  0.
<mgrwt>
<rscale>  0 0.12500000E+03</rscale>
<asrwt>0</asrwt>
<pdfrwt beam="1">  1       21 0.15949285E-02 0.12500000E+03</pdfrwt>
<pdfrwt beam="2">  1       21 0.57968505E-01 0.12500000E+03</pdfrwt>
<totfact> 0.48904681E+06</totfact>
</mgrwt>
</event>
<event>
 3    1  0.1603864E-001  0.1250000E+03  0.7546771E-02  0.1235069E+00
         21   -1    0    0  502  501  0.00000000000E+00  0.00000000000E+00  0.10187888507E+03  0.10187888507E+03  0.00000000000E+00 0. -1.
         21   -1    0    0  501  502 -0.00000000000E+00 -0.00000000000E+00 -0.38342096081E+02  0.38342096081E+02  0.00000000000E+00 0. -1.
         25    1    1    2    0    0  0.00000000000E+00  0.00000000000E+00  0.63536788991E+02  0.14022098115E+03  0.12500000000E+03 0.  0.
<mgrwt>
<rscale>  0 0.12500000E+03</rscale>
<asrwt>0</asrwt>
<pdfrwt beam="1">  1       21 0.15673675E-01 0.12500000E+03</pdfrwt>
<pdfrwt beam="2">  1       21 0.58987840E-02 0.12500000E+03</pdfrwt>
<totfact> 0.72010473E+06</totfact>
</mgrwt>
</event>
<event>
 3    1  0.1603864E-001  0.1250000E+03  0.7546771E-02  0.1235069E+00
         21   -1    0    0  502  501  0.00000000000E+00  0.00000000000E+00  0.34455969486E+03  0.34455969486E+03  0.00000000000E+00 0. -1.
         21   -1    0    0  501  502 -0.00000000000E+00 -0.00000000000E+00 -0.11336932492E+02  0.11336932492E+02  0.00000000000E+00 0. -1.
         25    1    1    2    0    0  0.00000000000E+00  0.00000000000E+00  0.33322276236E+03  0.35589662735E+03  0.12500000000E+03 0.  0.
<mgrwt>
<rscale>  0 0.12500000E+03</rscale>
<asrwt>0</asrwt>
<pdfrwt beam="1">  1       21 0.53009176E-01 0.12500000E+03</pdfrwt>
<pdfrwt beam="2">  1       21 0.17441437E-02 0.12500000E+03</pdfrwt>
<totfact> 0.51105880E+06</totfact>
</mgrwt>
</event>
<event>
 3    1  0.1603864E-001  0.1250000E+03  0.7546771E-02  0.1235069E+00
         21   -1    0    0  502  501  0.00000000000E+00  0.00000000000E+00  0.86751938643E+02  0.86751938643E+02  0.00000000000E+00 0. -1.
         21   -1    0    0  501  502 -0.00000000000E+00 -0.00000000000E+00 -0.45027812186E+02  0.45027812186E+02  0.00000000000E+00 0. -1.
         25    1    1    2    0    0  0.00000000000E+00  0.00000000000E+00  0.41724126458E+02  0.13177975083E+03  0.12500000000E+03 0.  0.
<mgrwt>
<rscale>  0 0.12500000E+03</rscale>
<asrwt>0</asrwt>
<pdfrwt beam="1">  1       21 0.13346452E-01 0.12500000E+03</pdfrwt>
<pdfrwt beam="2">  1       21 0.69273557E-02 0.12500000E+03</pdfrwt>
<totfact> 0.73125786E+06</totfact>
</mgrwt>
</event>
<event>
 3    1  0.1603864E-001  0.1250000E+03  0.7546771E-02  0.1235069E+00
         21   -1    0    0  502  501  0.00000000000E+00  0.00000000000E+00  0.22355747003E+02  0.22355747003E+02  0.00000000000E+00 0. -1.
         21   -1    0    0  501  502 -0.00000000000E+00 -0.00000000000E+00 -0.17473135652E+03  0.17473135652E+03  0.00000000000E+00 0. -1.
         25    1    1    2    0    0  0.00000000000E+00  0.00000000000E+00 -0.15237560952E+03  0.19708710353E+03  0.12500000000E+03 0.  0.
<mgrwt>
<rscale>  0 0.12500000E+03</rscale>
<asrwt>0</asrwt>
<pdfrwt beam="1">  1       21 0.34393459E-02 0.12500000E+03</pdfrwt>
<pdfrwt beam="2">  1       21 0.26881746E-01 0.12500000E+03</pdfrwt>
<totfact> 0.65243317E+06</totfact>
</mgrwt>
</event>
<event>
 3    1  0.1603864E-001  0.1250000E+03  0.7546771E-02  0.1235069E+00
         21   -1    0    0  502  501  0.00000000000E+00  0.00000000000E+00  0.35037118327E+02  0.35037118327E+02  0.00000000000E+00 0. -1.
         21   -1    0    0  501  502 -0.00000000000E+00 -0.00000000000E+00 -0.11148890624E+03  0.11148890624E+03  0.00000000000E+00 0. -1.
         25    1    1    2    0    0  0.00000000000E+00  0.00000000000E+00 -0.76451787909E+02  0.14652602456E+03  0.12500000000E+03 0.  0.
<mgrwt>
<rscale>  0 0.12500000E+03</rscale>
<asrwt>0</asrwt>
<pdfrwt beam="1">  1       21 0.53903260E-02 0.12500000E+03</pdfrwt>
<pdfrwt beam="2">  1       21 0.17152139E-01 0.12500000E+03</pdfrwt>
<totfact> 0.71198374E+06</totfact>
</mgrwt>
</event>
<event>
 3    1  0.1603864E-001  0.1250000E+03  0.7546771E-02  0.1235069E+00
         21   -1    0    0  502  501  0.00000000000E+00  0.00000000000E+00  0.33271425672E+02  0.33271425672E+02  0.00000000000E+00 0. -1.
         21   -1    0    0  501  502 -0.00000000000E+00 -0.00000000000E+00 -0.11740554909E+03  0.11740554909E+03  0.00000000000E+00 0. -1.
         25    1    1    2    0    0  0.00000000000E+00  0.00000000000E+00 -0.84134123418E+02  0.15067697476E+03  0.12500000000E+03 0.  0.
<mgrwt>
<rscale>  0 0.12500000E+03</rscale>
<asrwt>0</asrwt>
<pdfrwt beam="1">  1       21 0.51186809E-02 0.12500000E+03</pdfrwt>
<pdfrwt beam="2">  1       21 0.18062392E-01 0.12500000E+03</pdfrwt>
<totfact> 0.70674264E+06</totfact>
</mgrwt>
</event>
<event>
 3    1  0.1603864E-001  0.1250000E+03  0.7546771E-02  0.1235069E+00
         21   -1    0    0  502  501  0.00000000000E+00  0.00000000000E+00  0.20466332664E+02  0.20466332664E+02  0.00000000000E+00 0. -1.
         21   -1    0    0  501  502 -0.00000000000E+00 -0.00000000000E+00 -0.19086223527E+03  0.19086223527E+03  0.00000000000E+00 0. -1.
         25    1    1    2    0    0  0.00000000000E+00  0.00000000000E+00 -0.17039590261E+03  0.21132856794E+03  0.12500000000E+03 0.  0.
<mgrwt>
<rscale>  0 0.12500000E+03</rscale>
<asrwt>0</asrwt>
<pdfrwt beam="1">  1       21 0.31486666E-02 0.12500000E+03</pdfrwt>
<pdfrwt beam="2">  1       21 0.29363420E-01 0.12500000E+03</pdfrwt>
<totfact> 0.63720026E+06</totfact>
</mgrwt>
</event>
<event>
 3    1  0.1603864E-001  0.1250000E+03  0.7546771E-02  0.1235069E+00
         21   -1    0    0  502  501  0.00000000000E+00  0.00000000000E+00  0.57938906736E+02  0.57938906736E+02  0.00000000000E+00 0.  1.
         21   -1    0    0  501  502 -0.00000000000E+00 -0.00000000000E+00 -0.67420153746E+02  0.67420153746E+02  0.00000000000E+00 0.  1.
         25    1    1    2    0    0  0.00000000000E+00  0.00000000000E+00 -0.94812470101E+01  0.12535906048E+03  0.12500000000E+03 0.  0.
<mgrwt>
<rscale>  0 0.12500000E+03</rscale>
<asrwt>0</asrwt>
<pdfrwt beam="1">  1       21 0.89136780E-02 0.12500000E+03</pdfrwt>
<pdfrwt beam="2">  1       21 0.10372331E-01 0.12500000E+03</pdfrwt>
<totfact> 0.73995099E+06</totfact>
</mgrwt>
</event>
<event>
 3    1  0.1603864E-001  0.1250000E+03  0.7546771E-02  0.1235069E+00
         21   -1    0    0  502  501  0.00000000000E+00  0.00000000000E+00  0.10812772525E+03  0.10812772525E+03  0.00000000000E+00 0. -1.
         21   -1    0    0  501  502 -0.00000000000E+00 -0.00000000000E+00 -0.36126257081E+02  0.36126257081E+02  0.00000000000E+00 0. -1.
         25    1    1    2    0    0  0.00000000000E+00  0.00000000000E+00  0.72001468171E+02  0.14425398233E+03  0.12500000000E+03 0.  0.
<mgrwt>
<rscale>  0 0.12500000E+03</rscale>
<asrwt>0</asrwt>
<pdfrwt beam="1">  1       21 0.16635035E-01 0.12500000E+03</pdfrwt>
<pdfrwt beam="2">  1       21 0.55578857E-02 0.12500000E+03</pdfrwt>
<totfact> 0.71488708E+06</totfact>
</mgrwt>
</event>
<event>
 3    1  0.1603864E-001  0.1250000E+03  0.7546771E-02  0.1235069E+00
         21   -1    0    0  502  501  0.00000000000E+00  0.00000000000E+00  0.22690734740E+02  0.22690734740E+02  0.00000000000E+00 0.  1.
         21   -1    0    0  501  502 -0.00000000000E+00 -0.00000000000E+00 -0.17215176348E+03  0.17215176348E+03  0.00000000000E+00 0.  1.
         25    1    1    2    0    0  0.00000000000E+00  0.00000000000E+00 -0.14946102874E+03  0.19484249822E+03  0.12500000000E+03 0.  0.
<mgrwt>
<rscale>  0 0.12500000E+03</rscale>
<asrwt>0</asrwt>
<pdfrwt beam="1">  1       21 0.34908824E-02 0.12500000E+03</pdfrwt>
<pdfrwt beam="2">  1       21 0.26484886E-01 0.12500000E+03</pdfrwt>
<totfact> 0.65488265E+06</totfact>
</mgrwt>
</event>
<event>
 3    1  0.1603864E-001  0.1250000E+03  0.7546771E-02  0.1235069E+00
         21   -1    0    0  502  501  0.00000000000E+00  0.00000000000E+00  0.12459063075E+04  0.12459063075E+04  0.00000000000E+00 0. -1.
         21   -1    0    0  501  502 -0.00000000000E+00 -0.00000000000E+00 -0.31352678580E+01  0.31352678580E+01  0.00000000000E+00 0. -1.
         25    1    1    2    0    0  0.00000000000E+00  0.00000000000E+00  0.12427710396E+04  0.12490415754E+04  0.12500000000E+03 0.  0.
<mgrwt>
<rscale>  0 0.12500000E+03</rscale>
<asrwt>0</asrwt>
<pdfrwt beam="1">  1       21 0.19167750E+00 0.12500000E+03</pdfrwt>
<pdfrwt beam="2">  1       21 0.48234990E-03 0.12500000E+03</pdfrwt>
<totfact> 0.18192707E+06</totfact>
</mgrwt>
</event>
<event>
 3    1  0.1603864E-001  0.1250000E+03  0.7546771E-02  0.1235069E+00
         21   -1    0    0  502  501  0.00000000000E+00  0.00000000000E+00  0.15686340311E+02  0.15686340311E+02  0.00000000000E+00 0. -1.
         21   -1    0    0  501  502 -0.00000000000E+00 -0.00000000000E+00 -0.24902239289E+03  0.24902239289E+03  0.00000000000E+00 0. -1.
         25    1    1    2    0    0  0.00000000000E+00  0.00000000000E+00 -0.23333605258E+03  0.26470873320E+03  0.12500000000E+03 0.  0.
<mgrwt>
<rscale>  0 0.12500000E+03</rscale>
<asrwt>0</asrwt>
<pdfrwt beam="1">  1       21 0.24132832E-02 0.12500000E+03</pdfrwt>
<pdfrwt beam="2">  1       21 0.38311136E-01 0.12500000E+03</pdfrwt>
<totfact> 0.58520362E+06</totfact>
</mgrwt>
</event>
<event>
 3    1  0.1603864E-001  0.1250000E+03  0.7546771E-02  0.1235069E+00
         21   -1    0    0  502  501  0.00000000000E+00  0.00000000000E+00  0.33831065565E+03  0.33831065565E+03  0.00000000000E+00 0. -1.
         21   -1    0    0  501  502 -0.00000000000E+00 -0.00000000000E+00 -0.11546340427E+02  0.11546340427E+02  0.00000000000E+00 0. -1.
         25    1    1    2    0    0  0.00000000000E+00  0.00000000000E+00  0.32676431522E+03  0.34985699607E+03  0.12500000000E+03 0.  0.
<mgrwt>
<rscale>  0 0.12500000E+03</rscale>
<asrwt>0</asrwt>
<pdfrwt beam="1">  1       21 0.52047785E-01 0.12500000E+03</pdfrwt>
<pdfrwt beam="2">  1       21 0.17763603E-02 0.12500000E+03</pdfrwt>
<totfact> 0.51548998E+06</totfact>
</mgrwt>
</event>
<event>
 3    1  0.1603864E-001  0.1250000E+03  0.7546771E-02  0.1235069E+00
         21   -1    0    0  502  501  0.00000000000E+00  0.00000000000E+00  0.39251379916E+03  0.39251379916E+03  0.00000000000E+00 0. -1.
         21   -1    0    0  501  502 -0.00000000000E+00 -0.00000000000E+00 -0.99518794202E+01  0.99518794202E+01  0.00000000000E+00 0. -1.
         25    1    1    2    0    0  0.00000000000E+00  0.00000000000E+00  0.38256191974E+03  0.40246567858E+03  0.12500000000E+03 0.  0.
<mgrwt>
<rscale>  0 0.12500000E+03</rscale>
<asrwt>0</asrwt>
<pdfrwt beam="1">  1       21 0.60386726E-01 0.12500000E+03</pdfrwt>
<pdfrwt beam="2">  1       21 0.15310587E-02 0.12500000E+03</pdfrwt>
<totfact> 0.47878239E+06</totfact>
</mgrwt>
</event>
<event>
 3    1  0.1603864E-001  0.1250000E+03  0.7546771E-02  0.1235069E+00
         21   -1    0    0  502  501  0.00000000000E+00  0.00000000000E+00  0.12117530138E+04  0.12117530138E+04  0.00000000000E+00 0. -1.
         21   -1    0    0  501  502 -0.00000000000E+00 -0.00000000000E+00 -0.32236354731E+01  0.32236354731E+01  0.00000000000E+00 0. -1.
         25    1    1    2    0    0  0.00000000000E+00  0.00000000000E+00  0.12085293784E+04  0.12149766493E+04  0.12500000000E+03 0.  0.
<mgrwt>
<rscale>  0 0.12500000E+03</rscale>
<asrwt>0</asrwt>
<pdfrwt beam="1">  1       21 0.18642318E+00 0.12500000E+03</pdfrwt>
<pdfrwt beam="2">  1       21 0.49594489E-03 0.12500000E+03</pdfrwt>
<totfact> 0.18847493E+06</totfact>
</mgrwt>
</event>
<event>
 3    1  0.1603864E-001  0.1250000E+03  0.7546771E-02  0.1235069E+00
         21   -1    0    0  502  501  0.00000000000E+00  0.00000000000E+00  0.11222246281E+02  0.11222246281E+02  0.00000000000E+00 0.  1.
         21   -1    0    0  501  502 -0.00000000000E+00 -0.00000000000E+00 -0.34808093693E+03  0.34808093693E+03  0.00000000000E+00 0.  1.
         25    1    1    2    0    0  0.00000000000E+00  0.00000000000E+00 -0.33685869064E+03  0.35930318321E+03  0.12500000000E+03 0.  0.
<mgrwt>
<rscale>  0 0.12500000E+03</rscale>
<asrwt>0</asrwt>
<pdfrwt beam="1">  1       21 0.17264998E-02 0.12500000E+03</pdfrwt>
<pdfrwt beam="2">  1       21 0.53550903E-01 0.12500000E+03</pdfrwt>
<totfact> 0.50858624E+06</totfact>
</mgrwt>
</event>
<event>
 3    1  0.1603864E-001  0.1250000E+03  0.7546771E-02  0.1235069E+00
         21   -1    0    0  502  501  0.00000000000E+00  0.00000000000E+00  0.59686948985E+02  0.59686948985E+02  0.00000000000E+00 0. -1.
         21   -1    0    0  501  502 -0.00000000000E+00 -0.00000000000E+00 -0.65445630350E+02  0.65445630350E+02  0.00000000000E+00 0. -1.
         25    1    1    2    0    0  0.00000000000E+00  0.00000000000E+00 -0.57586813642E+01  0.12513257934E+03  0.12500000000E+03 0.  0.
<mgrwt>
<rscale>  0 0.12500000E+03</rscale>
<asrwt>0</asrwt>
<pdfrwt beam="1">  1       21 0.91826076E-02 0.12500000E+03</pdfrwt>
<pdfrwt beam="2">  1       21 0.10068558E-01 0.12500000E+03</pdfrwt>
<totfact> 0.74025676E+06</totfact>
</mgrwt>
</event>
<event>
 3    1  0.1603864E-001  0.1250000E+03  0.7546771E-02  0.1235069E+00
         21   -1    0    0  502  501  0.00000000000E+00  0.00000000000E+00  0.18724020909E+04  0.18724020909E+04  0.00000000000E+00 0. -1.
         21   -1    0    0  501  502 -0.00000000000E+00 -0.00000000000E+00 -0.20862239040E+01  0.20862239040E+01  0.00000000000E+00 0. -1.
         25    1    1    2    0    0  0.00000000000E+00  0.00000000000E+00  0.18703158670E+04  0.18744883148E+04  0.12500000000E+03 0.  0.
<mgrwt>
<rscale>  0 0.12500000E+03</rscale>
<asrwt>0</asrwt>
<pdfrwt beam="1">  1       21 0.28806052E+00 0.12500000E+03</pdfrwt>
<pdfrwt beam="2">  1       21 0.32095902E-03 0.12500000E+03</pdfrwt>
<totfact> 0.92384822E+05</totfact>
</mgrwt>
</event>
<event>
 3    1  0.1603864E-001  0.1250000E+03  0.7546771E-02  0.1235069E+00
         21   -1    0    0  502  501  0.00000000000E+00  0.00000000000E+00  0.30145610632E+02  0.30145610632E+02  0.00000000000E+00 0.  1.
         21   -1    0    0  501  502 -0.00000000000E+00 -0.00000000000E+00 -0.12957939541E+03  0.12957939541E+03  0.00000000000E+00 0.  1.
         25    1    1    2    0    0  0.00000000000E+00  0.00000000000E+00 -0.99433784781E+02  0.15972500604E+03  0.12500000000E+03 0.  0.
<mgrwt>
<rscale>  0 0.12500000E+03</rscale>
<asrwt>0</asrwt>
<pdfrwt beam="1">  1       21 0.46377863E-02 0.12500000E+03</pdfrwt>
<pdfrwt beam="2">  1       21 0.19935291E-01 0.12500000E+03</pdfrwt>
<totfact> 0.69553113E+06</totfact>
</mgrwt>
</event>
<event>
 3    1  0.1603864E-001  0.1250000E+03  0.7546771E-02  0.1235069E+00
         21   -1    0    0  502  501  0.00000000000E+00  0.00000000000E+00  0.42630784428E+02  0.42630784428E+02  0.00000000000E+00 0.  1.
         21   -1    0    0  501  502 -0.00000000000E+00 -0.00000000000E+00 -0.91629794113E+02  0.91629794113E+02  0.00000000000E+00 0.  1.
         25    1    1    2    0    0  0.00000000000E+00  0.00000000000E+00 -0.48999009685E+02  0.13426057854E+03  0.12500000000E+03 0.  0.
<mgrwt>
<rscale>  0 0.12500000E+03</rscale>
<asrwt>0</asrwt>
<pdfrwt beam="1">  1       21 0.65585823E-02 0.12500000E+03</pdfrwt>
<pdfrwt beam="2">  1       21 0.14096891E-01 0.12500000E+03</pdfrwt>
<totfact> 0.72794526E+06</totfact>
</mgrwt>
</event>
<event>
 3    1  0.1603864E-001  0.1250000E+03  0.7546771E-02  0.1235069E+00
         21   -1    0    0  502  501  0.00000000000E+00  0.00000000000E+00  0.29290099126E+03  0.29290099126E+03  0.00000000000E+00 0. -1.
         21   -1    0    0  501  502 -0.00000000000E+00 -0.00000000000E+00 -0.13336417822E+02  0.13336417822E+02  0.00000000000E+00 0. -1.
         25    1    1    2    0    0  0.00000000000E+00  0.00000000000E+00  0.27956457344E+03  0.30623740909E+03  0.12500000000E+03 0.  0.
<mgrwt>
<rscale>  0 0.12500000E+03</rscale>
<asrwt>0</asrwt>
<pdfrwt beam="1">  1       21 0.45061686E-01 0.12500000E+03</pdfrwt>
<pdfrwt beam="2">  1       21 0.20517568E-02 0.12500000E+03</pdfrwt>
<totfact> 0.54941774E+06</totfact>
</mgrwt>
</event>
<event>
 3    1  0.1603864E-001  0.1250000E+03  0.7546771E-02  0.1235069E+00
         21   -1    0    0  502  501  0.00000000000E+00  0.00000000000E+00  0.10064898533E+03  0.10064898533E+03  0.00000000000E+00 0. -1.
         21   -1    0    0  501  502 -0.00000000000E+00 -0.00000000000E+00 -0.38810624739E+02  0.38810624739E+02  0.00000000000E+00 0. -1.
         25    1    1    2    0    0  0.00000000000E+00  0.00000000000E+00  0.61838360591E+02  0.13945961007E+03  0.12500000000E+03 0.  0.
<mgrwt>
<rscale>  0 0.12500000E+03</rscale>
<asrwt>0</asrwt>
<pdfrwt beam="1">  1       21 0.15484459E-01 0.12500000E+03</pdfrwt>
<pdfrwt beam="2">  1       21 0.59708654E-02 0.12500000E+03</pdfrwt>
<totfact> 0.72109934E+06</totfact>
</mgrwt>
</event>
<event>
 3    1  0.1603864E-001  0.1250000E+03  0.7546771E-02  0.1235069E+00
         21   -1    0    0  502  501  0.00000000000E+00  0.00000000000E+00  0.21160353682E+03  0.21160353682E+03  0.00000000000E+00 0.  1.
         21   -1    0    0  501  502 -0.00000000000E+00 -0.00000000000E+00 -0.18460230196E+02  0.18460230196E+02  0.00000000000E+00 0.  1.
         25    1    1    2    0    0  0.00000000000E+00  0.00000000000E+00  0.19314330663E+03  0.23006376702E+03  0.12500000000E+03 0.  0.
<mgrwt>
<rscale>  0 0.12500000E+03</rscale>
<asrwt>0</asrwt>
<pdfrwt beam="1">  1       21 0.32554389E-01 0.12500000E+03</pdfrwt>
<pdfrwt beam="2">  1       21 0.28400356E-02 0.12500000E+03</pdfrwt>
<totfact> 0.61807635E+06</totfact>
</mgrwt>
</event>
<event>
 3    1  0.1603864E-001  0.1250000E+03  0.7546771E-02  0.1235069E+00
         21   -1    0    0  502  501  0.00000000000E+00  0.00000000000E+00  0.15841525789E+03  0.15841525789E+03  0.00000000000E+00 0. -1.
         21   -1    0    0  501  502 -0.00000000000E+00 -0.00000000000E+00 -0.24658293980E+02  0.24658293980E+02  0.00000000000E+00 0. -1.
         25    1    1    2    0    0  0.00000000000E+00  0.00000000000E+00  0.13375696391E+03  0.18307355187E+03  0.12500000000E+03 0.  0.
<mgrwt>
<rscale>  0 0.12500000E+03</rscale>
<asrwt>0</asrwt>
<pdfrwt beam="1">  1       21 0.24371577E-01 0.12500000E+03</pdfrwt>
<pdfrwt beam="2">  1       21 0.37935838E-02 0.12500000E+03</pdfrwt>
<totfact> 0.66800686E+06</totfact>
</mgrwt>
</event>
<event>
 3    1  0.1603864E-001  0.1250000E+03  0.7546771E-02  0.1235069E+00
         21   -1    0    0  502  501  0.00000000000E+00  0.00000000000E+00  0.17299108955E+03  0.17299108955E+03  0.00000000000E+00 0.  1.
         21   -1    0    0  501  502 -0.00000000000E+00 -0.00000000000E+00 -0.22580642796E+02  0.22580642796E+02  0.00000000000E+00 0.  1.
         25    1    1    2    0    0  0.00000000000E+00  0.00000000000E+00  0.15041044675E+03  0.19557173234E+03  0.12500000000E+03 0.  0.
<mgrwt>
<rscale>  0 0.12500000E+03</rscale>
<asrwt>0</asrwt>
<pdfrwt beam="1">  1       21 0.26614013E-01 0.12500000E+03</pdfrwt>
<pdfrwt beam="2">  1       21 0.34739452E-02 0.12500000E+03</pdfrwt>
<totfact> 0.65408503E+06</totfact>
</mgrwt>
</event>
<event>
 3    1  0.1603864E-001  0.1250000E+03  0.7546771E-02  0.1235069E+00
         21   -1    0    0  502  501  0.00000000000E+00  0.00000000000E+00  0.22560055691E+03  0.22560055691E+03  0.00000000000E+00 0.  1.
         21   -1    0    0  501  502 -0.00000000000E+00 -0.00000000000E+00 -0.17314895200E+02  0.17314895200E+02  0.00000000000E+00 0.  1.
         25    1    1    2    0    0  0.00000000000E+00  0.00000000000E+00  0.20828566171E+03  0.24291545211E+03  0.12500000000E+03 0.  0.
<mgrwt>
<rscale>  0 0.12500000E+03</rscale>
<asrwt>0</asrwt>
<pdfrwt beam="1">  1       21 0.34707776E-01 0.12500000E+03</pdfrwt>
<pdfrwt beam="2">  1       21 0.26638302E-02 0.12500000E+03</pdfrwt>
<totfact> 0.60551677E+06</totfact>
</mgrwt>
</event>
<event>
 3    1  0.1603864E-001  0.1250000E+03  0.7546771E-02  0.1235069E+00
         21   -1    0    0  502  501  0.00000000000E+00  0.00000000000E+00  0.12608831553E+03  0.12608831553E+03  0.00000000000E+00 0. -1.
         21   -1    0    0  501  502 -0.00000000000E+00 -0.00000000000E+00 -0.30980269533E+02  0.30980269533E+02  0.00000000000E+00 0. -1.
         25    1    1    2    0    0  0.00000000000E+00  0.00000000000E+00  0.95108045992E+02  0.15706858506E+03  0.12500000000E+03 0.  0.
<mgrwt>
<rscale>  0 0.12500000E+03</rscale>
<asrwt>0</asrwt>
<pdfrwt beam="1">  1       21 0.19398202E-01 0.12500000E+03</pdfrwt>
<pdfrwt beam="2">  1       21 0.47661954E-02 0.12500000E+03</pdfrwt>
<totfact> 0.69879469E+06</totfact>
</mgrwt>
</event>
<event>
 3    1  0.1603864E-001  0.1250000E+03  0.7546771E-02  0.1235069E+00
         21   -1    0    0  502  501  0.00000000000E+00  0.00000000000E+00  0.81685054211E+03  0.81685054211E+03  0.00000000000E+00 0. -1.
         21   -1    0    0  501  502 -0.00000000000E+00 -0.00000000000E+00 -0.47820865613E+01  0.47820865613E+01  0.00000000000E+00 0. -1.
         25    1    1    2    0    0  0.00000000000E+00  0.00000000000E+00  0.81206845555E+03  0.82163262867E+03  0.12500000000E+03 0.  0.
<mgrwt>
<rscale>  0 0.12500000E+03</rscale>
<asrwt>0</asrwt>
<pdfrwt beam="1">  1       21 0.12566920E+00 0.12500000E+03</pdfrwt>
<pdfrwt beam="2">  1       21 0.73570628E-03 0.12500000E+03</pdfrwt>
<totfact> 0.28658532E+06</totfact>
</mgrwt>
</event>
<event>
 3    1  0.1603864E-001  0.1250000E+03  0.7546771E-02  0.1235069E+00
         21   -1    0    0  502  501  0.00000000000E+00  0.00000000000E+00  0.58466821144E+02  0.58466821144E+02  0.00000000000E+00 0.  1.
         21   -1    0    0  501  502 -0.00000000000E+00 -0.00000000000E+00 -0.66811397021E+02  0.66811397021E+02  0.00000000000E+00 0.  1.
         25    1    1    2    0    0  0.00000000000E+00  0.00000000000E+00 -0.83445758776E+01  0.12527821816E+03  0.12500000000E+03 0.  0.
<mgrwt>
<rscale>  0 0.12500000E+03</rscale>
<asrwt>0</asrwt>
<pdfrwt beam="1">  1       21 0.89948955E-02 0.12500000E+03</pdfrwt>
<pdfrwt beam="2">  1       21 0.10278676E-01 0.12500000E+03</pdfrwt>
<totfact> 0.74006012E+06</totfact>
</mgrwt>
</event>
<event>
 3    1  0.1603864E-001  0.1250000E+03  0.7546771E-02  0.1235069E+00
         21   -1    0    0  502  501  0.00000000000E+00  0.00000000000E+00  0.13999096270E+04  0.13999096270E+04  0.00000000000E+00 0.  1.
         21   -1    0    0  501  502 -0.00000000000E+00 -0.00000000000E+00 -0.27903586952E+01  0.27903586952E+01  0.00000000000E+00 0.  1.
         25    1    1    2    0    0  0.00000000000E+00  0.00000000000E+00  0.13971192683E+04  0.14026999856E+04  0.12500000000E+03 0.  0.
<mgrwt>
<rscale>  0 0.12500000E+03</rscale>
<asrwt>0</asrwt>
<pdfrwt beam="1">  1       21 0.21537015E+00 0.12500000E+03</pdfrwt>
<pdfrwt beam="2">  1       21 0.42928707E-03 0.12500000E+03</pdfrwt>
<totfact> 0.15500950E+06</totfact>
</mgrwt>
</event>
<event>
 3    1  0.1603864E-001  0.1250000E+03  0.7546771E-02  0.1235069E+00
         21   -1    0    0  502  501  0.00000000000E+00  0.00000000000E+00  0.15044556666E+02  0.15044556666E+02  0.00000000000E+00 0. -1.
         21   -1    0    0  501  502 -0.00000000000E+00 -0.00000000000E+00 -0.25964540443E+03  0.25964540443E+03  0.00000000000E+00 0. -1.
         25    1    1    2    0    0  0.00000000000E+00  0.00000000000E+00 -0.24460084777E+03  0.27468996110E+03  0.12500000000E+03 0.  0.
<mgrwt>
<rscale>  0 0.12500000E+03</rscale>
<asrwt>0</asrwt>
<pdfrwt beam="1">  1       21 0.23145474E-02 0.12500000E+03</pdfrwt>
<pdfrwt beam="2">  1       21 0.39945443E-01 0.12500000E+03</pdfrwt>
<totfact> 0.57627387E+06</totfact>
</mgrwt>
</event>
<event>
 3    1  0.1603864E-001  0.1250000E+03  0.7546771E-02  0.1235069E+00
         21   -1    0    0  502  501  0.00000000000E+00  0.00000000000E+00  0.10387654049E+04  0.10387654049E+04  0.00000000000E+00 0.  1.
         21   -1    0    0  501  502 -0.00000000000E+00 -0.00000000000E+00 -0.37604737140E+01  0.37604737140E+01  0.00000000000E+00 0.  1.
         25    1    1    2    0    0  0.00000000000E+00  0.00000000000E+00  0.10350049312E+04  0.10425258786E+04  0.12500000000E+03 0.  0.
<mgrwt>
<rscale>  0 0.12500000E+03</rscale>
<asrwt>0</asrwt>
<pdfrwt beam="1">  1       21 0.15980983E+00 0.12500000E+03</pdfrwt>
<pdfrwt beam="2">  1       21 0.57853524E-03 0.12500000E+03</pdfrwt>
<totfact> 0.22576950E+06</totfact>
</mgrwt>
</event>
<event>
 3    1  0.1603864E-001  0.1250000E+03  0.7546771E-02  0.1235069E+00
         21   -1    0    0  502  501  0.00000000000E+00  0.00000000000E+00  0.17647076523E+02  0.17647076523E+02  0.00000000000E+00 0.  1.
         21   -1    0    0  501  502 -0.00000000000E+00 -0.00000000000E+00 -0.22135394465E+03  0.22135394465E+03  0.00000000000E+00 0.  1.
         25    1    1    2    0    0  0.00000000000E+00  0.00000000000E+00 -0.20370686813E+03  0.23900102118E+03  0.12500000000E+03 0.  0.
<mgrwt>
<rscale>  0 0.12500000E+03</rscale>
<asrwt>0</asrwt>
<pdfrwt beam="1">  1       21 0.27149348E-02 0.12500000E+03</pdfrwt>
<pdfrwt beam="2">  1       21 0.34054453E-01 0.12500000E+03</pdfrwt>
<totfact> 0.60929465E+06</totfact>
</mgrwt>
</event>
<event>
 3    1  0.1603864E-001  0.1250000E+03  0.7546771E-02  0.1235069E+00
         21   -1    0    0  502  501  0.00000000000E+00  0.00000000000E+00  0.72199415211E+01  0.72199415211E+01  0.00000000000E+00 0.  1.
         21   -1    0    0  501  502 -0.00000000000E+00 -0.00000000000E+00 -0.54103623812E+03  0.54103623812E+03  0.00000000000E+00 0.  1.
         25    1    1    2    0    0  0.00000000000E+00  0.00000000000E+00 -0.53381629660E+03  0.54825617964E+03  0.12500000000E+03 0.  0.
<mgrwt>
<rscale>  0 0.12500000E+03</rscale>
<asrwt>0</asrwt>
<pdfrwt beam="1">  1       21 0.11107605E-02 0.12500000E+03</pdfrwt>
<pdfrwt beam="2">  1       21 0.83236326E-01 0.12500000E+03</pdfrwt>
<totfact> 0.39542382E+06</totfact>
</mgrwt>
</event>
<event>
 3    1  0.1603864E-001  0.1250000E+03  0.7546771E-02  0.1235069E+00
         21   -1    0    0  502  501  0.00000000000E+00  0.00000000000E+00  0.47912669496E+03  0.47912669496E+03  0.00000000000E+00 0. -1.
         21   -1    0    0  501  502 -0.00000000000E+00 -0.00000000000E+00 -0.81528540176E+01  0.81528540176E+01  0.00000000000E+00 0. -1.
         25    1    1    2    0    0  0.00000000000E+00  0.00000000000E+00  0.47097384095E+03  0.48727954898E+03  0.12500000000E+03 0.  0.
<mgrwt>
<rscale>  0 0.12500000E+03</rscale>
<asrwt>0</asrwt>
<pdfrwt beam="1">  1       21 0.73711777E-01 0.12500000E+03</pdfrwt>
<pdfrwt beam="2">  1       21 0.12542856E-02 0.12500000E+03</pdfrwt>
<totfact> 0.42742446E+06</totfact>
</mgrwt>
</event>
<event>
 3    1  0.1603864E-001  0.1250000E+03  0.7546771E-02  0.1235069E+00
         21   -1    0    0  502  501  0.00000000000E+00  0.00000000000E+00  0.18094581923E+03  0.18094581923E+03  0.00000000000E+00 0. -1.
         21   -1    0    0  501  502 -0.00000000000E+00 -0.00000000000E+00 -0.21587953878E+02  0.21587953878E+02  0.00000000000E+00 0. -1.
         25    1    1    2    0    0  0.00000000000E+00  0.00000000000E+00  0.15935786536E+03  0.20253377311E+03  0.12500000000E+03 0.  0.
<mgrwt>
<rscale>  0 0.12500000E+03</rscale>
<asrwt>0</asrwt>
<pdfrwt beam="1">  1       21 0.27837817E-01 0.12500000E+03</pdfrwt>
<pdfrwt beam="2">  1       21 0.33212238E-02 0.12500000E+03</pdfrwt>
<totfact> 0.64653731E+06</totfact>
</mgrwt>
</event>
<event>
 3    1  0.1603864E-001  0.1250000E+03  0.7546771E-02  0.1235069E+00
         21   -1    0    0  502  501  0.00000000000E+00  0.00000000000E+00  0.47014927638E+03  0.47014927638E+03  0.00000000000E+00 0.  1.
         21   -1    0    0  501  502 -0.00000000000E+00 -0.00000000000E+00 -0.83085313457E+01  0.83085313457E+01  0.00000000000E+00 0.  1.
         25    1    1    2    0    0  0.00000000000E+00  0.00000000000E+00  0.46184074504E+03  0.47845780773E+03  0.12500000000E+03 0.  0.
<mgrwt>
<rscale>  0 0.12500000E+03</rscale>
<asrwt>0</asrwt>
<pdfrwt beam="1">  1       21 0.72330637E-01 0.12500000E+03</pdfrwt>
<pdfrwt beam="2">  1       21 0.12782360E-02 0.12500000E+03</pdfrwt>
<totfact> 0.43236983E+06</totfact>
</mgrwt>
</event>
<event>
 3    1  0.1603864E-001  0.1250000E+03  0.7546771E-02  0.1235069E+00
         21   -1    0    0  502  501  0.00000000000E+00  0.00000000000E+00  0.26855991241E+02  0.26855991241E+02  0.00000000000E+00 0. -1.
         21   -1    0    0  501  502 -0.00000000000E+00 -0.00000000000E+00 -0.14545171560E+03  0.14545171560E+03  0.00000000000E+00 0. -1.
         25    1    1    2    0    0  0.00000000000E+00  0.00000000000E+00 -0.11859572435E+03  0.17230770684E+03  0.12500000000E+03 0.  0.
<mgrwt>
<rscale>  0 0.12500000E+03</rscale>
<asrwt>0</asrwt>
<pdfrwt beam="1">  1       21 0.41316909E-02 0.12500000E+03</pdfrwt>
<pdfrwt beam="2">  1       21 0.22377187E-01 0.12500000E+03</pdfrwt>
<totfact> 0.68045117E+06</totfact>
</mgrwt>
</event>
<event>
 3    1  0.1603864E-001  0.1250000E+03  0.7546771E-02  0.1235069E+00
         21   -1    0    0  502  501  0.00000000000E+00  0.00000000000E+00  0.88350773682E+02  0.88350773682E+02  0.00000000000E+00 0.  1.
         21   -1    0    0  501  502 -0.00000000000E+00 -0.00000000000E+00 -0.44212968797E+02  0.44212968797E+02  0.00000000000E+00 0.  1.
         25    1    1    2    0    0  0.00000000000E+00  0.00000000000E+00  0.44137804885E+02  0.13256374248E+03  0.12500000000E+03 0.  0.
<mgrwt>
<rscale>  0 0.12500000E+03</rscale>
<asrwt>0</asrwt>
<pdfrwt beam="1">  1       21 0.13592427E-01 0.12500000E+03</pdfrwt>
<pdfrwt beam="2">  1       21 0.68019952E-02 0.12500000E+03</pdfrwt>
<totfact> 0.73020709E+06</totfact>
</mgrwt>
</event>
<event>
 3    1  0.1603864E-001  0.1250000E+03  0.7546771E-02  0.1235069E+00
         21   -1    0    0  502  501  0.00000000000E+00  0.00000000000E+00  0.30149610159E+02  0.30149610159E+02  0.00000000000E+00 0.  1.
         21   -1    0    0  501  502 -0.00000000000E+00 -0.00000000000E+00 -0.12956220593E+03  0.12956220593E+03  0.00000000000E+00 0.  1.
         25    1    1    2    0    0  0.00000000000E+00  0.00000000000E+00 -0.99412595766E+02  0.15971181608E+03  0.12500000000E+03 0.  0.
<mgrwt>
<rscale>  0 0.12500000E+03</rscale>
<asrwt>0</asrwt>
<pdfrwt beam="1">  1       21 0.46384016E-02 0.12500000E+03</pdfrwt>
<pdfrwt beam="2">  1       21 0.19932647E-01 0.12500000E+03</pdfrwt>
<totfact> 0.69554726E+06</totfact>
</mgrwt>
</event>
<event>
 3    1  0.1603864E-001  0.1250000E+03  0.7546771E-02  0.1235069E+00
         21   -1    0    0  502  501  0.00000000000E+00  0.00000000000E+00  0.23600336543E+03  0.23600336543E+03  0.00000000000E+00 0.  1.
         21   -1    0    0  501  502 -0.00000000000E+00 -0.00000000000E+00 -0.16551670748E+02  0.16551670748E+02  0.00000000000E+00 0.  1.
         25    1    1    2    0    0  0.00000000000E+00  0.00000000000E+00  0.21945169468E+03  0.25255503618E+03  0.12500000000E+03 0.  0.
<mgrwt>
<rscale>  0 0.12500000E+03</rscale>
<asrwt>0</asrwt>
<pdfrwt beam="1">  1       21 0.36308208E-01 0.12500000E+03</pdfrwt>
<pdfrwt beam="2">  1       21 0.25464111E-02 0.12500000E+03</pdfrwt>
<totfact> 0.59638468E+06</totfact>
</mgrwt>
</event>
<event>
 3    1  0.1603864E-001  0.1250000E+03  0.7546771E-02  0.1235069E+00
         21   -1    0    0  502  501  0.00000000000E+00  0.00000000000E+00  0.18175614716E+03  0.18175614716E+03  0.00000000000E+00 0. -1.
         21   -1    0    0  501  502 -0.00000000000E+00 -0.00000000000E+00 -0.21491707769E+02  0.21491707769E+02  0.00000000000E+00 0. -1.
         25    1    1    2    0    0  0.00000000000E+00  0.00000000000E+00  0.16026443939E+03  0.20324785493E+03  0.12500000000E+03 0.  0.
<mgrwt>
<rscale>  0 0.12500000E+03</rscale>
<asrwt>0</asrwt>
<pdfrwt beam="1">  1       21 0.27962483E-01 0.12500000E+03</pdfrwt>
<pdfrwt beam="2">  1       21 0.33064167E-02 0.12500000E+03</pdfrwt>
<totfact> 0.64577016E+06</totfact>
</mgrwt>
</event>
<event>
 3    1  0.1603864E-001  0.1250000E+03  0.7546771E-02  0.1235069E+00
         21   -1    0    0  502  501  0.00000000000E+00  0.00000000000E+00  0.45000003914E+02  0.45000003914E+02  0.00000000000E+00 0. -1.
         21   -1    0    0  501  502 -0.00000000000E+00 -0.00000000000E+00 -0.86805548006E+02  0.86805548006E+02  0.00000000000E+00 0. -1.
         25    1    1    2    0    0  0.00000000000E+00  0.00000000000E+00 -0.41805544092E+02  0.13180555192E+03  0.12500000000E+03 0.  0.
<mgrwt>
<rscale>  0 0.12500000E+03</rscale>
<asrwt>0</asrwt>
<pdfrwt beam="1">  1       21 0.69230776E-02 0.12500000E+03</pdfrwt>
<pdfrwt beam="2">  1       21 0.13354699E-01 0.12500000E+03</pdfrwt>
<totfact> 0.73122322E+06</totfact>
</mgrwt>
</event>
<event>
 3    1  0.1603864E-001  0.1250000E+03  0.7546771E-02  0.1235069E+00
         21   -1    0    0  502  501  0.00000000000E+00  0.00000000000E+00  0.10488694399E+03  0.10488694399E+03  0.00000000000E+00 0.  1.
         21   -1    0    0  501  502 -0.00000000000E+00 -0.00000000000E+00 -0.37242480822E+02  0.37242480822E+02  0.00000000000E+00 0.  1.
         25    1    1    2    0    0  0.00000000000E+00  0.00000000000E+00  0.67644463167E+02  0.14212942481E+03  0.12500000000E+03 0.  0.
<mgrwt>
<rscale>  0 0.12500000E+03</rscale>
<asrwt>0</asrwt>
<pdfrwt beam="1">  1       21 0.16136453E-01 0.12500000E+03</pdfrwt>
<pdfrwt beam="2">  1       21 0.57296125E-02 0.12500000E+03</pdfrwt>
<totfact> 0.71762521E+06</totfact>
</mgrwt>
</event>
<event>
 3    1  0.1603864E-001  0.1250000E+03  0.7546771E-02  0.1235069E+00
         21   -1    0    0  502  501  0.00000000000E+00  0.00000000000E+00  0.47717475461E+01  0.47717475461E+01  0.00000000000E+00 0.  1.
         21   -1    0    0  501  502 -0.00000000000E+00 -0.00000000000E+00 -0.81862042412E+03  0.81862042412E+03  0.00000000000E+00 0.  1.
         25    1    1    2    0    0  0.00000000000E+00  0.00000000000E+00 -0.81384867657E+03  0.82339217167E+03  0.12500000000E+03 0.  0.
<mgrwt>
<rscale>  0 0.12500000E+03</rscale>
<asrwt>0</asrwt>
<pdfrwt beam="1">  1       21 0.73411610E-03 0.12500000E+03</pdfrwt>
<pdfrwt beam="2">  1       21 0.12594142E+00 0.12500000E+03</pdfrwt>
<totfact> 0.28602345E+06</totfact>
</mgrwt>
</event>
<event>
 3    1  0.1603864E-001  0.1250000E+03  0.7546771E-02  0.1235069E+00
         21   -1    0    0  502  501  0.00000000000E+00  0.00000000000E+00  0.88783114681E+01  0.88783114681E+01  0.00000000000E+00 0. -1.
         21   -1    0    0  501  502 -0.00000000000E+00 -0.00000000000E+00 -0.43997667958E+03  0.43997667958E+03  0.00000000000E+00 0. -1.
         25    1    1    2    0    0  0.00000000000E+00  0.00000000000E+00 -0.43109836811E+03  0.44885499105E+03  0.12500000000E+03 0.  0.
<mgrwt>
<rscale>  0 0.12500000E+03</rscale>
<asrwt>0</asrwt>
<pdfrwt beam="1">  1       21 0.13658943E-02 0.12500000E+03</pdfrwt>
<pdfrwt beam="2">  1       21 0.67688708E-01 0.12500000E+03</pdfrwt>
<totfact> 0.44960868E+06</totfact>
</mgrwt>
</event>
<event>
 3    1  0.1603864E-001  0.1250000E+03  0.7546771E-02  0.1235069E+00
         21   -1    0    0  502  501  0.00000000000E+00  0.00000000000E+00  0.44823732718E+03  0.44823732718E+03  0.00000000000E+00 0.  1.
         21   -1    0    0  501  502 -0.00000000000E+00 -0.00000000000E+00 -0.87146914439E+01  0.87146914439E+01  0.00000000000E+00 0.  1.
         25    1    1    2    0    0  0.00000000000E+00  0.00000000000E+00  0.43952263574E+03  0.45695201862E+03  0.12500000000E+03 0.  0.
<mgrwt>
<rscale>  0 0.12500000E+03</rscale>
<asrwt>0</asrwt>
<pdfrwt beam="1">  1       21 0.68959571E-01 0.12500000E+03</pdfrwt>
<pdfrwt beam="2">  1       21 0.13407221E-02 0.12500000E+03</pdfrwt>
<totfact> 0.44479183E+06</totfact>
</mgrwt>
</event>
<event>
 3    1  0.1603864E-001  0.1250000E+03  0.7546771E-02  0.1235069E+00
         21   -1    0    0  502  501  0.00000000000E+00  0.00000000000E+00  0.30683130976E+02  0.30683130976E+02  0.00000000000E+00 0. -1.
         21   -1    0    0  501  502 -0.00000000000E+00 -0.00000000000E+00 -0.12730936758E+03  0.12730936758E+03  0.00000000000E+00 0. -1.
         25    1    1    2    0    0  0.00000000000E+00  0.00000000000E+00 -0.96626236607E+02  0.15799249856E+03  0.12500000000E+03 0.  0.
<mgrwt>
<rscale>  0 0.12500000E+03</rscale>
<asrwt>0</asrwt>
<pdfrwt beam="1">  1       21 0.47204817E-02 0.12500000E+03</pdfrwt>
<pdfrwt beam="2">  1       21 0.19586056E-01 0.12500000E+03</pdfrwt>
<totfact> 0.69765626E+06</totfact>
</mgrwt>
</event>
<event>
 3    1  0.1603864E-001  0.1250000E+03  0.7546771E-02  0.1235069E+00
         21   -1    0    0  502  501  0.00000000000E+00  0.00000000000E+00  0.31535200888E+02  0.31535200888E+02  0.00000000000E+00 0. -1.
         21   -1    0    0  501  502 -0.00000000000E+00 -0.00000000000E+00 -0.12386951375E+03  0.12386951375E+03  0.00000000000E+00 0. -1.
         25    1    1    2    0    0  0.00000000000E+00  0.00000000000E+00 -0.92334312864E+02  0.15540471464E+03  0.12500000000E+03 0.  0.
<mgrwt>
<rscale>  0 0.12500000E+03</rscale>
<asrwt>0</asrwt>
<pdfrwt beam="1">  1       21 0.48515693E-02 0.12500000E+03</pdfrwt>
<pdfrwt beam="2">  1       21 0.19056849E-01 0.12500000E+03</pdfrwt>
<totfact> 0.70085393E+06</totfact>
</mgrwt>
</event>
<event>
 3    1  0.1603864E-001  0.1250000E+03  0.7546771E-02  0.1235069E+00
         21   -1    0    0  502  501  0.00000000000E+00  0.00000000000E+00  0.56235610258E+01  0.56235610258E+01  0.00000000000E+00 0.  1.
         21   -1    0    0  501  502 -0.00000000000E+00 -0.00000000000E+00 -0.69462214104E+03  0.69462214104E+03  0.00000000000E+00 0.  1.
         25    1    1    2    0    0  0.00000000000E+00  0.00000000000E+00 -0.68899858002E+03  0.70024570207E+03  0.12500000000E+03 0.  0.
<mgrwt>
<rscale>  0 0.12500000E+03</rscale>
<asrwt>0</asrwt>
<pdfrwt beam="1">  1       21 0.86516331E-03 0.12500000E+03</pdfrwt>
<pdfrwt beam="2">  1       21 0.10686494E+00 0.12500000E+03</pdfrwt>
<totfact> 0.32900671E+06</totfact>
</mgrwt>
</event>
<event>
 3    1  0.1603864E-001  0.1250000E+03  0.7546771E-02  0.1235069E+00
         21   -1    0    0  502  501  0.00000000000E+00  0.00000000000E+00  0.27647054009E+03  0.27647054009E+03  0.00000000000E+00 0.  1.
         21   -1    0    0  501  502 -0.00000000000E+00 -0.00000000000E+00 -0.14128991822E+02  0.14128991822E+02  0.00000000000E+00 0.  1.
         25    1    1    2    0    0  0.00000000000E+00  0.00000000000E+00  0.26234154826E+03  0.29059953191E+03  0.12500000000E+03 0.  0.
<mgrwt>
<rscale>  0 0.12500000E+03</rscale>
<asrwt>0</asrwt>
<pdfrwt beam="1">  1       21 0.42533925E-01 0.12500000E+03</pdfrwt>
<pdfrwt beam="2">  1       21 0.21736913E-02 0.12500000E+03</pdfrwt>
<totfact> 0.56246552E+06</totfact>
</mgrwt>
</event>
<event>
 3    1  0.1603864E-001  0.1250000E+03  0.7546771E-02  0.1235069E+00
         21   -1    0    0  502  501  0.00000000000E+00  0.00000000000E+00  0.52005030311E+01  0.52005030311E+01  0.00000000000E+00 0.  1.
         21   -1    0    0  501  502 -0.00000000000E+00 -0.00000000000E+00 -0.75112926127E+03  0.75112926127E+03  0.00000000000E+00 0.  1.
         25    1    1    2    0    0  0.00000000000E+00  0.00000000000E+00 -0.74592875824E+03  0.75632976430E+03  0.12500000000E+03 0.  0.
<mgrwt>
<rscale>  0 0.12500000E+03</rscale>
<asrwt>0</asrwt>
<pdfrwt beam="1">  1       21 0.80007720E-03 0.12500000E+03</pdfrwt>
<pdfrwt beam="2">  1       21 0.11555838E+00 0.12500000E+03</pdfrwt>
<totfact> 0.30847469E+06</totfact>
</mgrwt>
</event>
<event>
 3    1  0.1603864E-001  0.1250000E+03  0.7546771E-02  0.1235069E+00
         21   -1    0    0  502  501  0.00000000000E+00  0.00000000000E+00  0.47870652778E+03  0.47870652778E+03  0.00000000000E+00 0.  1.
         21   -1    0    0  501  502 -0.00000000000E+00 -0.00000000000E+00 -0.81600098877E+01  0.81600098877E+01  0.00000000000E+00 0.  1.
         25    1    1    2    0    0  0.00000000000E+00  0.00000000000E+00  0.47054651789E+03  0.48686653767E+03  0.12500000000E+03 0.  0.
<mgrwt>
<rscale>  0 0.12500000E+03</rscale>
<asrwt>0</asrwt>
<pdfrwt beam="1">  1       21 0.73647136E-01 0.12500000E+03</pdfrwt>
<pdfrwt beam="2">  1       21 0.12553865E-02 0.12500000E+03</pdfrwt>
<totfact> 0.42765410E+06</totfact>
</mgrwt>
</event>
<event>
 3    1  0.1603864E-001  0.1250000E+03  0.7546771E-02  0.1235069E+00
         21   -1    0    0  502  501  0.00000000000E+00  0.00000000000E+00  0.15421345806E+03  0.15421345806E+03  0.00000000000E+00 0. -1.
         21   -1    0    0  501  502 -0.00000000000E+00 -0.00000000000E+00 -0.25330149840E+02  0.25330149840E+02  0.00000000000E+00 0. -1.
         25    1    1    2    0    0  0.00000000000E+00  0.00000000000E+00  0.12888330822E+03  0.17954360790E+03  0.12500000000E+03 0.  0.
<mgrwt>
<rscale>  0 0.12500000E+03</rscale>
<asrwt>0</asrwt>
<pdfrwt beam="1">  1       21 0.23725147E-01 0.12500000E+03</pdfrwt>
<pdfrwt beam="2">  1       21 0.38969462E-02 0.12500000E+03</pdfrwt>
<totfact> 0.67203931E+06</totfact>
</mgrwt>
</event>
<event>
 3    1  0.1603864E-001  0.1250000E+03  0.7546771E-02  0.1235069E+00
         21   -1    0    0  502  501  0.00000000000E+00  0.00000000000E+00  0.44077270197E+01  0.44077270197E+01  0.00000000000E+00 0.  1.
         21   -1    0    0  501  502 -0.00000000000E+00 -0.00000000000E+00 -0.88622775016E+03  0.88622775016E+03  0.00000000000E+00 0.  1.
         25    1    1    2    0    0  0.00000000000E+00  0.00000000000E+00 -0.88182002314E+03  0.89063547718E+03  0.12500000000E+03 0.  0.
<mgrwt>
<rscale>  0 0.12500000E+03</rscale>
<asrwt>0</asrwt>
<pdfrwt beam="1">  1       21 0.67811108E-03 0.12500000E+03</pdfrwt>
<pdfrwt beam="2">  1       21 0.13634289E+00 0.12500000E+03</pdfrwt>
<totfact> 0.26569001E+06</totfact>
</mgrwt>
</event>
<event>
 3    1  0.1603864E-001  0.1250000E+03  0.7546771E-02  0.1235069E+00
         21   -1    0    0  502  501  0.00000000000E+00  0.00000000000E+00  0.40135786405E+01  0.40135786405E+01  0.00000000000E+00 0. -1.
         21   -1    0    0  501  502 -0.00000000000E+00 -0.00000000000E+00 -0.97325861778E+03  0.97325861778E+03  0.00000000000E+00 0. -1.
         25    1    1    2    0    0  0.00000000000E+00  0.00000000000E+00 -0.96924503914E+03  0.97727219642E+03  0.12500000000E+03 0.  0.
<mgrwt>
<rscale>  0 0.12500000E+03</rscale>
<asrwt>0</asrwt>
<pdfrwt beam="1">  1       21 0.61747385E-03 0.12500000E+03</pdfrwt>
<pdfrwt beam="2">  1       21 0.14973204E+00 0.12500000E+03</pdfrwt>
<totfact> 0.24195178E+06</totfact>
</mgrwt>
</event>
<event>
 3    1  0.1603864E-001  0.1250000E+03  0.7546771E-02  0.1235069E+00
         21   -1    0    0  502  501  0.00000000000E+00  0.00000000000E+00  0.77963930458E+02  0.77963930458E+02  0.00000000000E+00 0.  1.
         21   -1    0    0  501  502 -0.00000000000E+00 -0.00000000000E+00 -0.50103297474E+02  0.50103297474E+02  0.00000000000E+00 0.  1.
         25    1    1    2    0    0  0.00000000000E+00  0.00000000000E+00  0.27860632984E+02  0.12806722793E+03  0.12500000000E+03 0.  0.
<mgrwt>
<rscale>  0 0.12500000E+03</rscale>
<asrwt>0</asrwt>
<pdfrwt beam="1">  1       21 0.11994451E-01 0.12500000E+03</pdfrwt>
<pdfrwt beam="2">  1       21 0.77081996E-02 0.12500000E+03</pdfrwt>
<totfact> 0.73624480E+06</totfact>
</mgrwt>
</event>
<event>
 3    1  0.1603864E-001  0.1250000E+03  0.7546771E-02  0.1235069E+00
         21   -1    0    0  502  501  0.00000000000E+00  0.00000000000E+00  0.50657220870E+02  0.50657220870E+02  0.00000000000E+00 0.  1.
         21   -1    0    0  501  502 -0.00000000000E+00 -0.00000000000E+00 -0.77111415370E+02  0.77111415370E+02  0.00000000000E+00 0.  1.
         25    1    1    2    0    0  0.00000000000E+00  0.00000000000E+00 -0.26454194500E+02  0.12776863624E+03  0.12500000000E+03 0.  0.
<mgrwt>
<rscale>  0 0.12500000E+03</rscale>
<asrwt>0</asrwt>
<pdfrwt beam="1">  1       21 0.77934186E-02 0.12500000E+03</pdfrwt>
<pdfrwt beam="2">  1       21 0.11863295E-01 0.12500000E+03</pdfrwt>
<totfact> 0.73664837E+06</totfact>
</mgrwt>
</event>
<event>
 3    1  0.1603864E-001  0.1250000E+03  0.7546771E-02  0.1235069E+00
         21   -1    0    0  502  501  0.00000000000E+00  0.00000000000E+00  0.20145741119E+02  0.20145741119E+02  0.00000000000E+00 0.  1.
         21   -1    0    0  501  502 -0.00000000000E+00 -0.00000000000E+00 -0.19389954318E+03  0.19389954318E+03  0.00000000000E+00 0.  1.
         25    1    1    2    0    0  0.00000000000E+00  0.00000000000E+00 -0.17375380206E+03  0.21404528430E+03  0.12500000000E+03 0.  0.
<mgrwt>
<rscale>  0 0.12500000E+03</rscale>
<asrwt>0</asrwt>
<pdfrwt beam="1">  1       21 0.30993449E-02 0.12500000E+03</pdfrwt>
<pdfrwt beam="2">  1       21 0.29830698E-01 0.12500000E+03</pdfrwt>
<totfact> 0.63436423E+06</totfact>
</mgrwt>
</event>
<event>
 3    1  0.1603864E-001  0.1250000E+03  0.7546771E-02  0.1235069E+00
         21   -1    0    0  502  501  0.00000000000E+00  0.00000000000E+00  0.70729422303E+01  0.70729422303E+01  0.00000000000E+00 0. -1.
         21   -1    0    0  501  502 -0.00000000000E+00 -0.00000000000E+00 -0.55228077267E+03  0.55228077267E+03  0.00000000000E+00 0. -1.
         25    1    1    2    0    0  0.00000000000E+00  0.00000000000E+00 -0.54520783044E+03  0.55935371490E+03  0.12500000000E+03 0.  0.
<mgrwt>
<rscale>  0 0.12500000E+03</rscale>
<asrwt>0</asrwt>
<pdfrwt beam="1">  1       21 0.10881449E-02 0.12500000E+03</pdfrwt>
<pdfrwt beam="2">  1       21 0.84966278E-01 0.12500000E+03</pdfrwt>
<totfact> 0.38997786E+06</totfact>
</mgrwt>
</event>
<event>
 3    1  0.1603864E-001  0.1250000E+03  0.7546771E-02  0.1235069E+00
         21   -1    0    0  502  501  0.00000000000E+00  0.00000000000E+00  0.40404639145E+02  0.40404639145E+02  0.00000000000E+00 0. -1.
         21   -1    0    0  501  502 -0.00000000000E+00 -0.00000000000E+00 -0.96678254841E+02  0.96678254841E+02  0.00000000000E+00 0. -1.
         25    1    1    2    0    0  0.00000000000E+00  0.00000000000E+00 -0.56273615696E+02  0.13708289399E+03  0.12500000000E+03 0.  0.
<mgrwt>
<rscale>  0 0.12500000E+03</rscale>
<asrwt>0</asrwt>
<pdfrwt beam="1">  1       21 0.62160984E-02 0.12500000E+03</pdfrwt>
<pdfrwt beam="2">  1       21 0.14873577E-01 0.12500000E+03</pdfrwt>
<totfact> 0.72421841E+06</totfact>
</mgrwt>
</event>
<event>
 3    1  0.1603864E-001  0.1250000E+03  0.7546771E-02  0.1235069E+00
         21   -1    0    0  502  501  0.00000000000E+00  0.00000000000E+00  0.12499434346E+02  0.12499434346E+02  0.00000000000E+00 0.  1.
         21   -1    0    0  501  502 -0.00000000000E+00 -0.00000000000E+00 -0.31251414200E+03  0.31251414200E+03  0.00000000000E+00 0.  1.
         25    1    1    2    0    0  0.00000000000E+00  0.00000000000E+00 -0.30001470765E+03  0.32501357634E+03  0.12500000000E+03 0.  0.
<mgrwt>
<rscale>  0 0.12500000E+03</rscale>
<asrwt>0</asrwt>
<pdfrwt beam="1">  1       21 0.19229899E-02 0.12500000E+03</pdfrwt>
<pdfrwt beam="2">  1       21 0.48079099E-01 0.12500000E+03</pdfrwt>
<totfact> 0.53438418E+06</totfact>
</mgrwt>
</event>
<event>
 3    1  0.1603864E-001  0.1250000E+03  0.7546771E-02  0.1235069E+00
         21   -1    0    0  502  501  0.00000000000E+00  0.00000000000E+00  0.26721295420E+02  0.26721295420E+02  0.00000000000E+00 0.  1.
         21   -1    0    0  501  502 -0.00000000000E+00 -0.00000000000E+00 -0.14618490378E+03  0.14618490378E+03  0.00000000000E+00 0.  1.
         25    1    1    2    0    0  0.00000000000E+00  0.00000000000E+00 -0.11946360836E+03  0.17290619920E+03  0.12500000000E+03 0.  0.
<mgrwt>
<rscale>  0 0.12500000E+03</rscale>
<asrwt>0</asrwt>
<pdfrwt beam="1">  1       21 0.41109686E-02 0.12500000E+03</pdfrwt>
<pdfrwt beam="2">  1       21 0.22489985E-01 0.12500000E+03</pdfrwt>
<totfact> 0.67974781E+06</totfact>
</mgrwt>
</event>
<event>
 3    1  0.1603864E-001  0.1250000E+03  0.7546771E-02  0.1235069E+00
         21   -1    0    0  502  501  0.00000000000E+00  0.00000000000E+00  0.55528093358E+02  0.55528093358E+02  0.00000000000E+00 0. -1.
         21   -1    0    0  501  502 -0.00000000000E+00 -0.00000000000E+00 -0.70347274033E+02  0.70347274033E+02  0.00000000000E+00 0. -1.
         25    1    1    2    0    0  0.00000000000E+00  0.00000000000E+00 -0.14819180674E+02  0.12587536739E+03  0.12500000000E+03 0.  0.
<mgrwt>
<rscale>  0 0.12500000E+03</rscale>
<asrwt>0</asrwt>
<pdfrwt beam="1">  1       21 0.85427836E-02 0.12500000E+03</pdfrwt>
<pdfrwt beam="2">  1       21 0.10822657E-01 0.12500000E+03</pdfrwt>
<totfact> 0.73923245E+06</totfact>
</mgrwt>
</event>
<event>
 3    1  0.1603864E-001  0.1250000E+03  0.7546771E-02  0.1235069E+00
         21   -1    0    0  502  501  0.00000000000E+00  0.00000000000E+00  0.52283564771E+03  0.52283564771E+03  0.00000000000E+00 0. -1.
         21   -1    0    0  501  502 -0.00000000000E+00 -0.00000000000E+00 -0.74712770966E+01  0.74712770966E+01  0.00000000000E+00 0. -1.
         25    1    1    2    0    0  0.00000000000E+00  0.00000000000E+00  0.51536437061E+03  0.53030692480E+03  0.12500000000E+03 0.  0.
<mgrwt>
<rscale>  0 0.12500000E+03</rscale>
<asrwt>0</asrwt>
<pdfrwt beam="1">  1       21 0.80436225E-01 0.12500000E+03</pdfrwt>
<pdfrwt beam="2">  1       21 0.11494277E-02 0.12500000E+03</pdfrwt>
<totfact> 0.40446761E+06</totfact>
</mgrwt>
</event>
<event>
 3    1  0.1603864E-001  0.1250000E+03  0.7546771E-02  0.1235069E+00
         21   -1    0    0  502  501  0.00000000000E+00  0.00000000000E+00  0.28179618091E+02  0.28179618091E+02  0.00000000000E+00 0.  1.
         21   -1    0    0  501  502 -0.00000000000E+00 -0.00000000000E+00 -0.13861969269E+03  0.13861969269E+03  0.00000000000E+00 0.  1.
         25    1    1    2    0    0  0.00000000000E+00  0.00000000000E+00 -0.11044007460E+03  0.16679931078E+03  0.12500000000E+03 0.  0.
<mgrwt>
<rscale>  0 0.12500000E+03</rscale>
<asrwt>0</asrwt>
<pdfrwt beam="1">  1       21 0.43353259E-02 0.12500000E+03</pdfrwt>
<pdfrwt beam="2">  1       21 0.21326106E-01 0.12500000E+03</pdfrwt>
<totfact> 0.68698090E+06</totfact>
</mgrwt>
</event>
<event>
 3    1  0.1603864E-001  0.1250000E+03  0.7546771E-02  0.1235069E+00
         21   -1    0    0  502  501  0.00000000000E+00  0.00000000000E+00  0.58983436111E+02  0.58983436111E+02  0.00000000000E+00 0.  1.
         21   -1    0    0  501  502 -0.00000000000E+00 -0.00000000000E+00 -0.66226219725E+02  0.66226219725E+02  0.00000000000E+00 0.  1.
         25    1    1    2    0    0  0.00000000000E+00  0.00000000000E+00 -0.72427836147E+01  0.12520965584E+03  0.12500000000E+03 0.  0.
<mgrwt>
<rscale>  0 0.12500000E+03</rscale>
<asrwt>0</asrwt>
<pdfrwt beam="1">  1       21 0.90743747E-02 0.12500000E+03</pdfrwt>
<pdfrwt beam="2">  1       21 0.10188649E-01 0.12500000E+03</pdfrwt>
<totfact> 0.74015268E+06</totfact>
</mgrwt>
</event>
<event>
 3    1  0.1603864E-001  0.1250000E+03  0.7546771E-02  0.1235069E+00
         21   -1    0    0  502  501  0.00000000000E+00  0.00000000000E+00  0.48685593488E+01  0.48685593488E+01  0.00000000000E+00 0. -1.
         21   -1    0    0  501  502 -0.00000000000E+00 -0.00000000000E+00 -0.80234207291E+03  0.80234207291E+03  0.00000000000E+00 0. -1.
         25    1    1    2    0    0  0.00000000000E+00  0.00000000000E+00 -0.79747351356E+03  0.80721063226E+03  0.12500000000E+03 0.  0.
<mgrwt>
<rscale>  0 0.12500000E+03</rscale>
<asrwt>0</asrwt>
<pdfrwt beam="1">  1       21 0.74900835E-03 0.12500000E+03</pdfrwt>
<pdfrwt beam="2">  1       21 0.12343737E+00 0.12500000E+03</pdfrwt>
<totfact> 0.29125268E+06</totfact>
</mgrwt>
</event>
<event>
 3    1  0.1603864E-001  0.1250000E+03  0.7546771E-02  0.1235069E+00
         21   -1    0    0  502  501  0.00000000000E+00  0.00000000000E+00  0.87352200494E+02  0.87352200494E+02  0.00000000000E+00 0. -1.
         21   -1    0    0  501  502 -0.00000000000E+00 -0.00000000000E+00 -0.44718392644E+02  0.44718392644E+02  0.00000000000E+00 0. -1.
         25    1    1    2    0    0  0.00000000000E+00  0.00000000000E+00  0.42633807849E+02  0.13207059314E+03  0.12500000000E+03 0.  0.
<mgrwt>
<rscale>  0 0.12500000E+03</rscale>
<asrwt>0</asrwt>
<pdfrwt beam="1">  1       21 0.13438800E-01 0.12500000E+03</pdfrwt>
<pdfrwt beam="2">  1       21 0.68797528E-02 0.12500000E+03</pdfrwt>
<totfact> 0.73086762E+06</totfact>
</mgrwt>
</event>
<event>
 3    1  0.1603864E-001  0.1250000E+03  0.7546771E-02  0.1235069E+00
         21   -1    0    0  502  501  0.00000000000E+00  0.00000000000E+00  0.38169241746E+03  0.38169241746E+03  0.00000000000E+00 0.  1.
         21   -1    0    0  501  502 -0.00000000000E+00 -0.00000000000E+00 -0.10234025675E+02  0.10234025675E+02  0.00000000000E+00 0.  1.
         25    1    1    2    0    0  0.00000000000E+00  0.00000000000E+00  0.37145839178E+03  0.39192644313E+03  0.12500000000E+03 0.  0.
<mgrwt>
<rscale>  0 0.12500000E+03</rscale>
<asrwt>0</asrwt>
<pdfrwt beam="1">  1       21 0.58721899E-01 0.12500000E+03</pdfrwt>
<pdfrwt beam="2">  1       21 0.15744658E-02 0.12500000E+03</pdfrwt>
<totfact> 0.48581516E+06</totfact>
</mgrwt>
</event>
<event>
 3    1  0.1603864E-001  0.1250000E+03  0.7546771E-02  0.1235069E+00
         21   -1    0    0  502  501  0.00000000000E+00  0.00000000000E+00  0.30791681750E+03  0.30791681750E+03  0.00000000000E+00 0.  1.
         21   -1    0    0  501  502 -0.00000000000E+00 -0.00000000000E+00 -0.12686056032E+02  0.12686056032E+02  0.00000000000E+00 0.  1.
         25    1    1    2    0    0  0.00000000000E+00  0.00000000000E+00  0.29523076147E+03  0.32060287353E+03  0.12500000000E+03 0.  0.
<mgrwt>
<rscale>  0 0.12500000E+03</rscale>
<asrwt>0</asrwt>
<pdfrwt beam="1">  1       21 0.47371812E-01 0.12500000E+03</pdfrwt>
<pdfrwt beam="2">  1       21 0.19517012E-02 0.12500000E+03</pdfrwt>
<totfact> 0.53785605E+06</totfact>
</mgrwt>
</event>
<event>
 3    1  0.1603864E-001  0.1250000E+03  0.7546771E-02  0.1235069E+00
         21   -1    0    0  502  501  0.00000000000E+00  0.00000000000E+00  0.21250656869E+02  0.21250656869E+02  0.00000000000E+00 0.  1.
         21   -1    0    0  501  502 -0.00000000000E+00 -0.00000000000E+00 -0.18381784733E+03  0.18381784733E+03  0.00000000000E+00 0.  1.
         25    1    1    2    0    0  0.00000000000E+00  0.00000000000E+00 -0.16256719046E+03  0.20506850420E+03  0.12500000000E+03 0.  0.
<mgrwt>
<rscale>  0 0.12500000E+03</rscale>
<asrwt>0</asrwt>
<pdfrwt beam="1">  1       21 0.32693317E-02 0.12500000E+03</pdfrwt>
<pdfrwt beam="2">  1       21 0.28279670E-01 0.12500000E+03</pdfrwt>
<totfact> 0.64382149E+06</totfact>
</mgrwt>
</event>
<event>
 3    1  0.1603864E-001  0.1250000E+03  0.7546771E-02  0.1235069E+00
         21   -1    0    0  502  501  0.00000000000E+00  0.00000000000E+00  0.15344238329E+04  0.15344238329E+04  0.00000000000E+00 0.  1.
         21   -1    0    0  501  502 -0.00000000000E+00 -0.00000000000E+00 -0.25457438266E+01  0.25457438266E+01  0.00000000000E+00 0.  1.
         25    1    1    2    0    0  0.00000000000E+00  0.00000000000E+00  0.15318780891E+04  0.15369695767E+04  0.12500000000E+03 0.  0.
<mgrwt>
<rscale>  0 0.12500000E+03</rscale>
<asrwt>0</asrwt>
<pdfrwt beam="1">  1       21 0.23606447E+00 0.12500000E+03</pdfrwt>
<pdfrwt beam="2">  1       21 0.39165412E-03 0.12500000E+03</pdfrwt>
<totfact> 0.13453460E+06</totfact>
</mgrwt>
</event>
<event>
 3    1  0.1603864E-001  0.1250000E+03  0.7546771E-02  0.1235069E+00
         21   -1    0    0  502  501  0.00000000000E+00  0.00000000000E+00  0.32103635976E+03  0.32103635976E+03  0.00000000000E+00 0.  1.
         21   -1    0    0  501  502 -0.00000000000E+00 -0.00000000000E+00 -0.12167624885E+02  0.12167624885E+02  0.00000000000E+00 0.  1.
         25    1    1    2    0    0  0.00000000000E+00  0.00000000000E+00  0.30886873488E+03  0.33320398465E+03  0.12500000000E+03 0.  0.
<mgrwt>
<rscale>  0 0.12500000E+03</rscale>
<asrwt>0</asrwt>
<pdfrwt beam="1">  1       21 0.49390203E-01 0.12500000E+03</pdfrwt>
<pdfrwt beam="2">  1       21 0.18719425E-02 0.12500000E+03</pdfrwt>
<totfact> 0.52803308E+06</totfact>
</mgrwt>
</event>
<event>
 3    1  0.1603864E-001  0.1250000E+03  0.7546771E-02  0.1235069E+00
         21   -1    0    0  502  501  0.00000000000E+00  0.00000000000E+00  0.38210563097E+02  0.38210563097E+02  0.00000000000E+00 0. -1.
         21   -1    0    0  501  502 -0.00000000000E+00 -0.00000000000E+00 -0.10222958479E+03  0.10222958479E+03  0.00000000000E+00 0. -1.
         25    1    1    2    0    0  0.00000000000E+00  0.00000000000E+00 -0.64019021691E+02  0.14044014789E+03  0.12500000000E+03 0.  0.
<mgrwt>
<rscale>  0 0.12500000E+03</rscale>
<asrwt>0</asrwt>
<pdfrwt beam="1">  1       21 0.58785482E-02 0.12500000E+03</pdfrwt>
<pdfrwt beam="2">  1       21 0.15727628E-01 0.12500000E+03</pdfrwt>
<totfact> 0.71981900E+06</totfact>
</mgrwt>
</event>
<event>
 3    1  0.1603864E-001  0.1250000E+03  0.7546771E-02  0.1235069E+00
         21   -1    0    0  502  501  0.00000000000E+00  0.00000000000E+00  0.18301266900E+02  0.18301266900E+02  0.00000000000E+00 0.  1.
         21   -1    0    0  501  502 -0.00000000000E+00 -0.00000000000E+00 -0.21344150770E+03  0.21344150770E+03  0.00000000000E+00 0.  1.
         25    1    1    2    0    0  0.00000000000E+00  0.00000000000E+00 -0.19514024080E+03  0.23174277460E+03  0.12500000000E+03 0.  0.
<mgrwt>
<rscale>  0 0.12500000E+03</rscale>
<asrwt>0</asrwt>
<pdfrwt beam="1">  1       21 0.28155795E-02 0.12500000E+03</pdfrwt>
<pdfrwt beam="2">  1       21 0.32837155E-01 0.12500000E+03</pdfrwt>
<totfact> 0.61640969E+06</totfact>
</mgrwt>
</event>
<event>
 3    1  0.1603864E-001  0.1250000E+03  0.7546771E-02  0.1235069E+00
         21   -1    0    0  502  501  0.00000000000E+00  0.00000000000E+00  0.28571403156E+02  0.28571403156E+02  0.00000000000E+00 0. -1.
         21   -1    0    0  501  502 -0.00000000000E+00 -0.00000000000E+00 -0.13671887161E+03  0.13671887161E+03  0.00000000000E+00 0. -1.
         25    1    1    2    0    0  0.00000000000E+00  0.00000000000E+00 -0.10814746846E+03  0.16529027477E+03  0.12500000000E+03 0.  0.
<mgrwt>
<rscale>  0 0.12500000E+03</rscale>
<asrwt>0</asrwt>
<pdfrwt beam="1">  1       21 0.43956006E-02 0.12500000E+03</pdfrwt>
<pdfrwt beam="2">  1       21 0.21033672E-01 0.12500000E+03</pdfrwt>
<totfact> 0.68878790E+06</totfact>
</mgrwt>
</event>
<event>
 3    1  0.1603864E-001  0.1250000E+03  0.7546771E-02  0.1235069E+00
         21   -1    0    0  502  501  0.00000000000E+00  0.00000000000E+00  0.43371890819E+02  0.43371890819E+02  0.00000000000E+00 0. -1.
         21   -1    0    0  501  502 -0.00000000000E+00 -0.00000000000E+00 -0.90064092809E+02  0.90064092809E+02  0.00000000000E+00 0. -1.
         25    1    1    2    0    0  0.00000000000E+00  0.00000000000E+00 -0.46692201990E+02  0.13343598363E+03  0.12500000000E+03 0.  0.
<mgrwt>
<rscale>  0 0.12500000E+03</rscale>
<asrwt>0</asrwt>
<pdfrwt beam="1">  1       21 0.66725986E-02 0.12500000E+03</pdfrwt>
<pdfrwt beam="2">  1       21 0.13856014E-01 0.12500000E+03</pdfrwt>
<totfact> 0.72904235E+06</totfact>
</mgrwt>
</event>
<event>
 3    1  0.1603864E-001  0.1250000E+03  0.7546771E-02  0.1235069E+00
         21   -1    0    0  502  501  0.00000000000E+00  0.00000000000E+00  0.87733295530E+01  0.87733295530E+01  0.00000000000E+00 0.  1.
         21   -1    0    0  501  502 -0.00000000000E+00 -0.00000000000E+00 -0.44524145325E+03  0.44524145325E+03  0.00000000000E+00 0.  1.
         25    1    1    2    0    0  0.00000000000E+00  0.00000000000E+00 -0.43646812369E+03  0.45401478280E+03  0.12500000000E+03 0.  0.
<mgrwt>
<rscale>  0 0.12500000E+03</rscale>
<asrwt>0</asrwt>
<pdfrwt beam="1">  1       21 0.13497434E-02 0.12500000E+03</pdfrwt>
<pdfrwt beam="2">  1       21 0.68498664E-01 0.12500000E+03</pdfrwt>
<totfact> 0.44653012E+06</totfact>
</mgrwt>
</event>
<event>
 3    1  0.1603864E-001  0.1250000E+03  0.7546771E-02  0.1235069E+00
         21   -1    0    0  502  501  0.00000000000E+00  0.00000000000E+00  0.86451953131E+02  0.86451953131E+02  0.00000000000E+00 0.  1.
         21   -1    0    0  501  502 -0.00000000000E+00 -0.00000000000E+00 -0.45184057254E+02  0.45184057254E+02  0.00000000000E+00 0.  1.
         25    1    1    2    0    0  0.00000000000E+00  0.00000000000E+00  0.41267895877E+02  0.13163601039E+03  0.12500000000E+03 0.  0.
<mgrwt>
<rscale>  0 0.12500000E+03</rscale>
<asrwt>0</asrwt>
<pdfrwt beam="1">  1       21 0.13300300E-01 0.12500000E+03</pdfrwt>
<pdfrwt beam="2">  1       21 0.69513934E-02 0.12500000E+03</pdfrwt>
<totfact> 0.73145092E+06</totfact>
</mgrwt>
</event>
<event>
 3    1  0.1603864E-001  0.1250000E+03  0.7546771E-02  0.1235069E+00
         21   -1    0    0  502  501  0.00000000000E+00  0.00000000000E+00  0.59132193711E+03  0.59132193711E+03  0.00000000000E+00 0.  1.
         21   -1    0    0  501  502 -0.00000000000E+00 -0.00000000000E+00 -0.66059615834E+01  0.66059615834E+01  0.00000000000E+00 0.  1.
         25    1    1    2    0    0  0.00000000000E+00  0.00000000000E+00  0.58471597553E+03  0.59792789869E+03  0.12500000000E+03 0.  0.
<mgrwt>
<rscale>  0 0.12500000E+03</rscale>
<asrwt>0</asrwt>
<pdfrwt beam="1">  1       21 0.90972564E-01 0.12500000E+03</pdfrwt>
<pdfrwt beam="2">  1       21 0.10163022E-02 0.12500000E+03</pdfrwt>
<totfact> 0.37186519E+06</totfact>
</mgrwt>
</event>
<event>
 3    1  0.1603864E-001  0.1250000E+03  0.7546771E-02  0.1235069E+00
         21   -1    0    0  502  501  0.00000000000E+00  0.00000000000E+00  0.11650436593E+02  0.11650436593E+02  0.00000000000E+00 0. -1.
         21   -1    0    0  501  502 -0.00000000000E+00 -0.00000000000E+00 -0.33528786401E+03  0.33528786401E+03  0.00000000000E+00 0. -1.
         25    1    1    2    0    0  0.00000000000E+00  0.00000000000E+00 -0.32363742741E+03  0.34693830060E+03  0.12500000000E+03 0.  0.
<mgrwt>
<rscale>  0 0.12500000E+03</rscale>
<asrwt>0</asrwt>
<pdfrwt beam="1">  1       21 0.17923749E-02 0.12500000E+03</pdfrwt>
<pdfrwt beam="2">  1       21 0.51582747E-01 0.12500000E+03</pdfrwt>
<totfact> 0.51765345E+06</totfact>
</mgrwt>
</event>
<event>
 3    1  0.1603864E-001  0.1250000E+03  0.7546771E-02  0.1235069E+00
         21   -1    0    0  502  501  0.00000000000E+00  0.00000000000E+00  0.22648020081E+03  0.22648020081E+03  0.00000000000E+00 0.  1.
         21   -1    0    0  501  502 -0.00000000000E+00 -0.00000000000E+00 -0.17247644545E+02  0.17247644545E+02  0.00000000000E+00 0.  1.
         25    1    1    2    0    0  0.00000000000E+00  0.00000000000E+00  0.20923255627E+03  0.24372784536E+03  0.12500000000E+03 0.  0.
<mgrwt>
<rscale>  0 0.12500000E+03</rscale>
<asrwt>0</asrwt>
<pdfrwt beam="1">  1       21 0.34843106E-01 0.12500000E+03</pdfrwt>
<pdfrwt beam="2">  1       21 0.26534839E-02 0.12500000E+03</pdfrwt>
<totfact> 0.60473782E+06</totfact>
</mgrwt>
</event>
<event>
 3    1  0.1603864E-001  0.1250000E+03  0.7546771E-02  0.1235069E+00
         21   -1    0    0  502  501  0.00000000000E+00  0.00000000000E+00  0.42611213483E+03  0.42611213483E+03  0.00000000000E+00 0. -1.
         21   -1    0    0  501  502 -0.00000000000E+00 -0.00000000000E+00 -0.91671878849E+01  0.91671878849E+01  0.00000000000E+00 0. -1.
         25    1    1    2    0    0  0.00000000000E+00  0.00000000000E+00  0.41694494694E+03  0.43527932271E+03  0.12500000000E+03 0.  0.
<mgrwt>
<rscale>  0 0.12500000E+03</rscale>
<asrwt>0</asrwt>
<pdfrwt beam="1">  1       21 0.65555698E-01 0.12500000E+03</pdfrwt>
<pdfrwt beam="2">  1       21 0.14103369E-02 0.12500000E+03</pdfrwt>
<totfact> 0.45786085E+06</totfact>
</mgrwt>
</event>
<event>
 3    1  0.1603864E-001  0.1250000E+03  0.7546771E-02  0.1235069E+00
         21   -1    0    0  502  501  0.00000000000E+00  0.00000000000E+00  0.16969780055E+03  0.16969780055E+03  0.00000000000E+00 0.  1.
         21   -1    0    0  501  502 -0.00000000000E+00 -0.00000000000E+00 -0.23018860512E+02  0.23018860512E+02  0.00000000000E+00 0.  1.
         25    1    1    2    0    0  0.00000000000E+00  0.00000000000E+00  0.14667894004E+03  0.19271666106E+03  0.12500000000E+03 0.  0.
<mgrwt>
<rscale>  0 0.12500000E+03</rscale>
<asrwt>0</asrwt>
<pdfrwt beam="1">  1       21 0.26107353E-01 0.12500000E+03</pdfrwt>
<pdfrwt beam="2">  1       21 0.35413633E-02 0.12500000E+03</pdfrwt>
<totfact> 0.65721798E+06</totfact>
</mgrwt>
</event>
<event>
 3    1  0.1603864E-001  0.1250000E+03  0.7546771E-02  0.1235069E+00
         21   -1    0    0  502  501  0.00000000000E+00  0.00000000000E+00  0.54716109519E+02  0.54716109519E+02  0.00000000000E+00 0. -1.
         21   -1    0    0  501  502 -0.00000000000E+00 -0.00000000000E+00 -0.71391223432E+02  0.71391223432E+02  0.00000000000E+00 0. -1.
         25    1    1    2    0    0  0.00000000000E+00  0.00000000000E+00 -0.16675113913E+02  0.12610733295E+03  0.12500000000E+03 0.  0.
<mgrwt>
<rscale>  0 0.12500000E+03</rscale>
<asrwt>0</asrwt>
<pdfrwt beam="1">  1       21 0.84178630E-02 0.12500000E+03</pdfrwt>
<pdfrwt beam="2">  1       21 0.10983265E-01 0.12500000E+03</pdfrwt>
<totfact> 0.73891253E+06</totfact>
</mgrwt>
</event>
<event>
 3    1  0.1603864E-001  0.1250000E+03  0.7546771E-02  0.1235069E+00
         21   -1    0    0  502  501  0.00000000000E+00  0.00000000000E+00  0.13918002938E+02  0.13918002938E+02  0.00000000000E+00 0.  1.
         21   -1    0    0  501  502 -0.00000000000E+00 -0.00000000000E+00 -0.28066167376E+03  0.28066167376E+03  0.00000000000E+00 0.  1.
         25    1    1    2    0    0  0.00000000000E+00  0.00000000000E+00 -0.26674367082E+03  0.29457967670E+03  0.12500000000E+03 0.  0.
<mgrwt>
<rscale>  0 0.12500000E+03</rscale>
<asrwt>0</asrwt>
<pdfrwt beam="1">  1       21 0.21412312E-02 0.12500000E+03</pdfrwt>
<pdfrwt beam="2">  1       21 0.43178720E-01 0.12500000E+03</pdfrwt>
<totfact> 0.55909652E+06</totfact>
</mgrwt>
</event>
<event>
 3    1  0.1603864E-001  0.1250000E+03  0.7546771E-02  0.1235069E+00
         21   -1    0    0  502  501  0.00000000000E+00  0.00000000000E+00  0.14020264765E+02  0.14020264765E+02  0.00000000000E+00 0.  1.
         21   -1    0    0  501  502 -0.00000000000E+00 -0.00000000000E+00 -0.27861456724E+03  0.27861456724E+03  0.00000000000E+00 0.  1.
         25    1    1    2    0    0  0.00000000000E+00  0.00000000000E+00 -0.26459430247E+03  0.29263483200E+03  0.12500000000E+03 0.  0.
<mgrwt>
<rscale>  0 0.12500000E+03</rscale>
<asrwt>0</asrwt>
<pdfrwt beam="1">  1       21 0.21569640E-02 0.12500000E+03</pdfrwt>
<pdfrwt beam="2">  1       21 0.42863776E-01 0.12500000E+03</pdfrwt>
<totfact> 0.56073858E+06</totfact>
</mgrwt>
</event>
<event>
 3    1  0.1603864E-001  0.1250000E+03  0.7546771E-02  0.1235069E+00
         21   -1    0    0  502  501  0.00000000000E+00  0.00000000000E+00  0.46260318282E+03  0.46260318282E+03  0.00000000000E+00 0.  1.
         21   -1    0    0  501  502 -0.00000000000E+00 -0.00000000000E+00 -0.84440620928E+01  0.84440620928E+01  0.00000000000E+00 0.  1.
         25    1    1    2    0    0  0.00000000000E+00  0.00000000000E+00  0.45415912072E+03  0.47104724491E+03  0.12500000000E+03 0.  0.
<mgrwt>
<rscale>  0 0.12500000E+03</rscale>
<asrwt>0</asrwt>
<pdfrwt beam="1">  1       21 0.71169701E-01 0.12500000E+03</pdfrwt>
<pdfrwt beam="2">  1       21 0.12990868E-02 0.12500000E+03</pdfrwt>
<totfact> 0.43659066E+06</totfact>
</mgrwt>
</event>
<event>
 3    1  0.1603864E-001  0.1250000E+03  0.7546771E-02  0.1235069E+00
         21   -1    0    0  502  501  0.00000000000E+00  0.00000000000E+00  0.35770620732E+03  0.35770620732E+03  0.00000000000E+00 0. -1.
         21   -1    0    0  501  502 -0.00000000000E+00 -0.00000000000E+00 -0.10920274572E+02  0.10920274572E+02  0.00000000000E+00 0. -1.
         25    1    1    2    0    0  0.00000000000E+00  0.00000000000E+00  0.34678593275E+03  0.36862648189E+03  0.12500000000E+03 0.  0.
<mgrwt>
<rscale>  0 0.12500000E+03</rscale>
<asrwt>0</asrwt>
<pdfrwt beam="1">  1       21 0.55031715E-01 0.12500000E+03</pdfrwt>
<pdfrwt beam="2">  1       21 0.16800425E-02 0.12500000E+03</pdfrwt>
<totfact> 0.50191554E+06</totfact>
</mgrwt>
</event>
<event>
 3    1  0.1603864E-001  0.1250000E+03  0.7546771E-02  0.1235069E+00
         21   -1    0    0  502  501  0.00000000000E+00  0.00000000000E+00  0.12633288029E+02  0.12633288029E+02  0.00000000000E+00 0. -1.
         21   -1    0    0  501  502 -0.00000000000E+00 -0.00000000000E+00 -0.30920295581E+03  0.30920295581E+03  0.00000000000E+00 0. -1.
         25    1    1    2    0    0  0.00000000000E+00  0.00000000000E+00 -0.29656966778E+03  0.32183624384E+03  0.12500000000E+03 0.  0.
<mgrwt>
<rscale>  0 0.12500000E+03</rscale>
<asrwt>0</asrwt>
<pdfrwt beam="1">  1       21 0.19435826E-02 0.12500000E+03</pdfrwt>
<pdfrwt beam="2">  1       21 0.47569690E-01 0.12500000E+03</pdfrwt>
<totfact> 0.53688147E+06</totfact>
</mgrwt>
</event>
<event>
 3    1  0.1603864E-001  0.1250000E+03  0.7546771E-02  0.1235069E+00
         21   -1    0    0  502  501  0.00000000000E+00  0.00000000000E+00  0.10520740483E+02  0.10520740483E+02  0.00000000000E+00 0. -1.
         21   -1    0    0  501  502 -0.00000000000E+00 -0.00000000000E+00 -0.37129040550E+03  0.37129040550E+03  0.00000000000E+00 0. -1.
         25    1    1    2    0    0  0.00000000000E+00  0.00000000000E+00 -0.36076966502E+03  0.38181114598E+03  0.12500000000E+03 0.  0.
<mgrwt>
<rscale>  0 0.12500000E+03</rscale>
<asrwt>0</asrwt>
<pdfrwt beam="1">  1       21 0.16185754E-02 0.12500000E+03</pdfrwt>
<pdfrwt beam="2">  1       21 0.57121602E-01 0.12500000E+03</pdfrwt>
<totfact> 0.49271533E+06</totfact>
</mgrwt>
</event>
<event>
 3    1  0.1603864E-001  0.1250000E+03  0.7546771E-02  0.1235069E+00
         21   -1    0    0  502  501  0.00000000000E+00  0.00000000000E+00  0.28408798753E+02  0.28408798753E+02  0.00000000000E+00 0.  1.
         21   -1    0    0  501  502 -0.00000000000E+00 -0.00000000000E+00 -0.13750141405E+03  0.13750141405E+03  0.00000000000E+00 0.  1.
         25    1    1    2    0    0  0.00000000000E+00  0.00000000000E+00 -0.10909261529E+03  0.16591021280E+03  0.12500000000E+03 0.  0.
<mgrwt>
<rscale>  0 0.12500000E+03</rscale>
<asrwt>0</asrwt>
<pdfrwt beam="1">  1       21 0.43705844E-02 0.12500000E+03</pdfrwt>
<pdfrwt beam="2">  1       21 0.21154064E-01 0.12500000E+03</pdfrwt>
<totfact> 0.68804446E+06</totfact>
</mgrwt>
</event>
<event>
 3    1  0.1603864E-001  0.1250000E+03  0.7546771E-02  0.1235069E+00
         21   -1    0    0  502  501  0.00000000000E+00  0.00000000000E+00  0.81275446817E+02  0.81275446817E+02  0.00000000000E+00 0.  1.
         21   -1    0    0  501  502 -0.00000000000E+00 -0.00000000000E+00 -0.48061870503E+02  0.48061870503E+02  0.00000000000E+00 0.  1.
         25    1    1    2    0    0  0.00000000000E+00  0.00000000000E+00  0.33213576314E+02  0.12933731732E+03  0.12500000000E+03 0.  0.
<mgrwt>
<rscale>  0 0.12500000E+03</rscale>
<asrwt>0</asrwt>
<pdfrwt beam="1">  1       21 0.12503915E-01 0.12500000E+03</pdfrwt>
<pdfrwt beam="2">  1       21 0.73941339E-02 0.12500000E+03</pdfrwt>
<totfact> 0.73453618E+06</totfact>
</mgrwt>
</event>
<event>
 3    1  0.1603864E-001  0.1250000E+03  0.7546771E-02  0.1235069E+00
         21   -1    0    0  502  501  0.00000000000E+00  0.00000000000E+00  0.12611780887E+02  0.12611780887E+02  0.00000000000E+00 0.  1.
         21   -1    0    0  501  502 -0.00000000000E+00 -0.00000000000E+00 -0.30973024627E+03  0.30973024627E+03  0.00000000000E+00 0.  1.
         25    1    1    2    0    0  0.00000000000E+00  0.00000000000E+00 -0.29711846539E+03  0.32234202716E+03  0.12500000000E+03 0.  0.
<mgrwt>
<rscale>  0 0.12500000E+03</rscale>
<asrwt>0</asrwt>
<pdfrwt beam="1">  1       21 0.19402741E-02 0.12500000E+03</pdfrwt>
<pdfrwt beam="2">  1       21 0.47650804E-01 0.12500000E+03</pdfrwt>
<totfact> 0.53648270E+06</totfact>
</mgrwt>
</event>
<event>
 3    1  0.1603864E-001  0.1250000E+03  0.7546771E-02  0.1235069E+00
         21   -1    0    0  502  501  0.00000000000E+00  0.00000000000E+00  0.63003618459E+03  0.63003618459E+03  0.00000000000E+00 0. -1.
         21   -1    0    0  501  502 -0.00000000000E+00 -0.00000000000E+00 -0.62000407207E+01  0.62000407207E+01  0.00000000000E+00 0. -1.
         25    1    1    2    0    0  0.00000000000E+00  0.00000000000E+00  0.62383614387E+03  0.63623622531E+03  0.12500000000E+03 0.  0.
<mgrwt>
<rscale>  0 0.12500000E+03</rscale>
<asrwt>0</asrwt>
<pdfrwt beam="1">  1       21 0.96928593E-01 0.12500000E+03</pdfrwt>
<pdfrwt beam="2">  1       21 0.95385292E-03 0.12500000E+03</pdfrwt>
<totfact> 0.35503531E+06</totfact>
</mgrwt>
</event>
<event>
 3    1  0.1603864E-001  0.1250000E+03  0.7546771E-02  0.1235069E+00
         21   -1    0    0  502  501  0.00000000000E+00  0.00000000000E+00  0.10305089289E+03  0.10305089289E+03  0.00000000000E+00 0. -1.
         21   -1    0    0  501  502 -0.00000000000E+00 -0.00000000000E+00 -0.37906027698E+02  0.37906027698E+02  0.00000000000E+00 0. -1.
         25    1    1    2    0    0  0.00000000000E+00  0.00000000000E+00  0.65144865188E+02  0.14095692058E+03  0.12500000000E+03 0.  0.
<mgrwt>
<rscale>  0 0.12500000E+03</rscale>
<asrwt>0</asrwt>
<pdfrwt beam="1">  1       21 0.15853983E-01 0.12500000E+03</pdfrwt>
<pdfrwt beam="2">  1       21 0.58316966E-02 0.12500000E+03</pdfrwt>
<totfact> 0.71914630E+06</totfact>
</mgrwt>
</event>
<event>
 3    1  0.1603864E-001  0.1250000E+03  0.7546771E-02  0.1235069E+00
         21   -1    0    0  502  501  0.00000000000E+00  0.00000000000E+00  0.17045496475E+03  0.17045496475E+03  0.00000000000E+00 0.  1.
         21   -1    0    0  501  502 -0.00000000000E+00 -0.00000000000E+00 -0.22916610295E+02  0.22916610295E+02  0.00000000000E+00 0.  1.
         25    1    1    2    0    0  0.00000000000E+00  0.00000000000E+00  0.14753835446E+03  0.19337157505E+03  0.12500000000E+03 0.  0.
<mgrwt>
<rscale>  0 0.12500000E+03</rscale>
<asrwt>0</asrwt>
<pdfrwt beam="1">  1       21 0.26223840E-01 0.12500000E+03</pdfrwt>
<pdfrwt beam="2">  1       21 0.35256325E-02 0.12500000E+03</pdfrwt>
<totfact> 0.65649691E+06</totfact>
</mgrwt>
</event>
<event>
 3    1  0.1603864E-001  0.1250000E+03  0.7546771E-02  0.1235069E+00
         21   -1    0    0  502  501  0.00000000000E+00  0.00000000000E+00  0.12714173035E+03  0.12714173035E+03  0.00000000000E+00 0. -1.
         21   -1    0    0  501  502 -0.00000000000E+00 -0.00000000000E+00 -0.30723586891E+02  0.30723586891E+02  0.00000000000E+00 0. -1.
         25    1    1    2    0    0  0.00000000000E+00  0.00000000000E+00  0.96418143461E+02  0.15786531724E+03  0.12500000000E+03 0.  0.
<mgrwt>
<rscale>  0 0.12500000E+03</rscale>
<asrwt>0</asrwt>
<pdfrwt beam="1">  1       21 0.19560266E-01 0.12500000E+03</pdfrwt>
<pdfrwt beam="2">  1       21 0.47267057E-02 0.12500000E+03</pdfrwt>
<totfact> 0.69781276E+06</totfact>
</mgrwt>
</event>
<event>
 3    1  0.1603864E-001  0.1250000E+03  0.7546771E-02  0.1235069E+00
         21   -1    0    0  502  501  0.00000000000E+00  0.00000000000E+00  0.75838398111E+02  0.75838398111E+02  0.00000000000E+00 0.  1.
         21   -1    0    0  501  502 -0.00000000000E+00 -0.00000000000E+00 -0.51507548911E+02  0.51507548911E+02  0.00000000000E+00 0.  1.
         25    1    1    2    0    0  0.00000000000E+00  0.00000000000E+00  0.24330849200E+02  0.12734594702E+03  0.12500000000E+03 0.  0.
<mgrwt>
<rscale>  0 0.12500000E+03</rscale>
<asrwt>0</asrwt>
<pdfrwt beam="1">  1       21 0.11667446E-01 0.12500000E+03</pdfrwt>
<pdfrwt beam="2">  1       21 0.79242383E-02 0.12500000E+03</pdfrwt>
<totfact> 0.73722114E+06</totfact>
</mgrwt>
</event>
<event>
 3    1  0.1603864E-001  0.1250000E+03  0.7546771E-02  0.1235069E+00
         21   -1    0    0  502  501  0.00000000000E+00  0.00000000000E+00  0.10973880282E+03  0.10973880282E+03  0.00000000000E+00 0. -1.
         21   -1    0    0  501  502 -0.00000000000E+00 -0.00000000000E+00 -0.35595886774E+02  0.35595886774E+02  0.00000000000E+00 0. -1.
         25    1    1    2    0    0  0.00000000000E+00  0.00000000000E+00  0.74142916049E+02  0.14533468960E+03  0.12500000000E+03 0.  0.
<mgrwt>
<rscale>  0 0.12500000E+03</rscale>
<asrwt>0</asrwt>
<pdfrwt beam="1">  1       21 0.16882893E-01 0.12500000E+03</pdfrwt>
<pdfrwt beam="2">  1       21 0.54762903E-02 0.12500000E+03</pdfrwt>
<totfact> 0.71350294E+06</totfact>
</mgrwt>
</event>
<event>
 3    1  0.1603864E-001  0.1250000E+03  0.7546771E-02  0.1235069E+00
         21   -1    0    0  502  501  0.00000000000E+00  0.00000000000E+00  0.10237037181E+02  0.10237037181E+02  0.00000000000E+00 0.  1.
         21   -1    0    0  501  502 -0.00000000000E+00 -0.00000000000E+00 -0.38158013213E+03  0.38158013213E+03  0.00000000000E+00 0.  1.
         25    1    1    2    0    0  0.00000000000E+00  0.00000000000E+00 -0.37134309495E+03  0.39181716931E+03  0.12500000000E+03 0.  0.
<mgrwt>
<rscale>  0 0.12500000E+03</rscale>
<asrwt>0</asrwt>
<pdfrwt beam="1">  1       21 0.15749288E-02 0.12500000E+03</pdfrwt>
<pdfrwt beam="2">  1       21 0.58704635E-01 0.12500000E+03</pdfrwt>
<totfact> 0.48588887E+06</totfact>
</mgrwt>
</event>
<event>
 3    1  0.1603864E-001  0.1250000E+03  0.7546771E-02  0.1235069E+00
         21   -1    0    0  502  501  0.00000000000E+00  0.00000000000E+00  0.53477415455E+01  0.53477415455E+01  0.00000000000E+00 0.  1.
         21   -1    0    0  501  502 -0.00000000000E+00 -0.00000000000E+00 -0.73044853921E+03  0.73044853921E+03  0.00000000000E+00 0.  1.
         25    1    1    2    0    0  0.00000000000E+00  0.00000000000E+00 -0.72510079766E+03  0.73579628076E+03  0.12500000000E+03 0.  0.
<mgrwt>
<rscale>  0 0.12500000E+03</rscale>
<asrwt>0</asrwt>
<pdfrwt beam="1">  1       21 0.82272927E-03 0.12500000E+03</pdfrwt>
<pdfrwt beam="2">  1       21 0.11237673E+00 0.12500000E+03</pdfrwt>
<totfact> 0.31574841E+06</totfact>
</mgrwt>
</event>
<event>
 3    1  0.1603864E-001  0.1250000E+03  0.7546771E-02  0.1235069E+00
         21   -1    0    0  502  501  0.00000000000E+00  0.00000000000E+00  0.43939650420E+02  0.43939650420E+02  0.00000000000E+00 0. -1.
         21   -1    0    0  501  502 -0.00000000000E+00 -0.00000000000E+00 -0.88900343145E+02  0.88900343145E+02  0.00000000000E+00 0. -1.
         25    1    1    2    0    0  0.00000000000E+00  0.00000000000E+00 -0.44960692725E+02  0.13283999356E+03  0.12500000000E+03 0.  0.
<mgrwt>
<rscale>  0 0.12500000E+03</rscale>
<asrwt>0</asrwt>
<pdfrwt beam="1">  1       21 0.67599463E-02 0.12500000E+03</pdfrwt>
<pdfrwt beam="2">  1       21 0.13676976E-01 0.12500000E+03</pdfrwt>
<totfact> 0.72983772E+06</totfact>
</mgrwt>
</event>
<event>
 3    1  0.1603864E-001  0.1250000E+03  0.7546771E-02  0.1235069E+00
         21   -1    0    0  502  501  0.00000000000E+00  0.00000000000E+00  0.63141473076E+02  0.63141473076E+02  0.00000000000E+00 0.  1.
         21   -1    0    0  501  502 -0.00000000000E+00 -0.00000000000E+00 -0.61865043841E+02  0.61865043841E+02  0.00000000000E+00 0.  1.
         25    1    1    2    0    0  0.00000000000E+00  0.00000000000E+00  0.12764292348E+01  0.12500651692E+03  0.12500000000E+03 0.  0.
<mgrwt>
<rscale>  0 0.12500000E+03</rscale>
<asrwt>0</asrwt>
<pdfrwt beam="1">  1       21 0.97140727E-02 0.12500000E+03</pdfrwt>
<pdfrwt beam="2">  1       21 0.95176991E-02 0.12500000E+03</pdfrwt>
<totfact> 0.74042701E+06</totfact>
</mgrwt>
</event>
<event>
 3    1  0.1603864E-001  0.1250000E+03  0.7546771E-02  0.1235069E+00
         21   -1    0    0  502  501  0.00000000000E+00  0.00000000000E+00  0.10702977937E+03  0.10702977937E+03  0.00000000000E+00 0. -1.
         21   -1    0    0  501  502 -0.00000000000E+00 -0.00000000000E+00 -0.36496851839E+02  0.36496851839E+02  0.00000000000E+00 0. -1.
         25    1    1    2    0    0  0.00000000000E+00  0.00000000000E+00  0.70532927529E+02  0.14352663121E+03  0.12500000000E+03 0.  0.
<mgrwt>
<rscale>  0 0.12500000E+03</rscale>
<asrwt>0</asrwt>
<pdfrwt beam="1">  1       21 0.16466120E-01 0.12500000E+03</pdfrwt>
<pdfrwt beam="2">  1       21 0.56149003E-02 0.12500000E+03</pdfrwt>
<totfact> 0.71582191E+06</totfact>
</mgrwt>
</event>
<event>
 3    1  0.1603864E-001  0.1250000E+03  0.7546771E-02  0.1235069E+00
         21   -1    0    0  502  501  0.00000000000E+00  0.00000000000E+00  0.84641228219E+02  0.84641228219E+02  0.00000000000E+00 0.  1.
         21   -1    0    0  501  502 -0.00000000000E+00 -0.00000000000E+00 -0.46150677184E+02  0.46150677184E+02  0.00000000000E+00 0.  1.
         25    1    1    2    0    0  0.00000000000E+00  0.00000000000E+00  0.38490551035E+02  0.13079190540E+03  0.12500000000E+03 0.  0.
<mgrwt>
<rscale>  0 0.12500000E+03</rscale>
<asrwt>0</asrwt>
<pdfrwt beam="1">  1       21 0.13021727E-01 0.12500000E+03</pdfrwt>
<pdfrwt beam="2">  1       21 0.71001042E-02 0.12500000E+03</pdfrwt>
<totfact> 0.73258728E+06</totfact>
</mgrwt>
</event>
<event>
 3    1  0.1603864E-001  0.1250000E+03  0.7546771E-02  0.1235069E+00
         21   -1    0    0  502  501  0.00000000000E+00  0.00000000000E+00  0.44594341025E+02  0.44594341025E+02  0.00000000000E+00 0.  1.
         21   -1    0    0  501  502 -0.00000000000E+00 -0.00000000000E+00 -0.87595195045E+02  0.87595195045E+02  0.00000000000E+00 0.  1.
         25    1    1    2    0    0  0.00000000000E+00  0.00000000000E+00 -0.43000854020E+02  0.13218953607E+03  0.12500000000E+03 0.  0.
<mgrwt>
<rscale>  0 0.12500000E+03</rscale>
<asrwt>0</asrwt>
<pdfrwt beam="1">  1       21 0.68606679E-02 0.12500000E+03</pdfrwt>
<pdfrwt beam="2">  1       21 0.13476184E-01 0.12500000E+03</pdfrwt>
<totfact> 0.73070817E+06</totfact>
</mgrwt>
</event>
<event>
 3    1  0.1603864E-001  0.1250000E+03  0.7546771E-02  0.1235069E+00
         21   -1    0    0  502  501  0.00000000000E+00  0.00000000000E+00  0.84543249592E+01  0.84543249592E+01  0.00000000000E+00 0. -1.
         21   -1    0    0  501  502 -0.00000000000E+00 -0.00000000000E+00 -0.46204161998E+03  0.46204161998E+03  0.00000000000E+00 0. -1.
         25    1    1    2    0    0  0.00000000000E+00  0.00000000000E+00 -0.45358729502E+03  0.47049594494E+03  0.12500000000E+03 0.  0.
<mgrwt>
<rscale>  0 0.12500000E+03</rscale>
<asrwt>0</asrwt>
<pdfrwt beam="1">  1       21 0.13006652E-02 0.12500000E+03</pdfrwt>
<pdfrwt beam="2">  1       21 0.71083338E-01 0.12500000E+03</pdfrwt>
<totfact> 0.43690702E+06</totfact>
</mgrwt>
</event>
<event>
 3    1  0.1603864E-001  0.1250000E+03  0.7546771E-02  0.1235069E+00
         21   -1    0    0  502  501  0.00000000000E+00  0.00000000000E+00  0.30279578740E+02  0.30279578740E+02  0.00000000000E+00 0. -1.
         21   -1    0    0  501  502 -0.00000000000E+00 -0.00000000000E+00 -0.12900608802E+03  0.12900608802E+03  0.00000000000E+00 0. -1.
         25    1    1    2    0    0  0.00000000000E+00  0.00000000000E+00 -0.98726509277E+02  0.15928566676E+03  0.12500000000E+03 0.  0.
<mgrwt>
<rscale>  0 0.12500000E+03</rscale>
<asrwt>0</asrwt>
<pdfrwt beam="1">  1       21 0.46583966E-02 0.12500000E+03</pdfrwt>
<pdfrwt beam="2">  1       21 0.19847091E-01 0.12500000E+03</pdfrwt>
<totfact> 0.69606885E+06</totfact>
</mgrwt>
</event>
<event>
 3    1  0.1603864E-001  0.1250000E+03  0.7546771E-02  0.1235069E+00
         21   -1    0    0  502  501  0.00000000000E+00  0.00000000000E+00  0.35941009609E+02  0.35941009609E+02  0.00000000000E+00 0. -1.
         21   -1    0    0  501  502 -0.00000000000E+00 -0.00000000000E+00 -0.10868503814E+03  0.10868503814E+03  0.00000000000E+00 0. -1.
         25    1    1    2    0    0  0.00000000000E+00  0.00000000000E+00 -0.72744028526E+02  0.14462604774E+03  0.12500000000E+03 0.  0.
<mgrwt>
<rscale>  0 0.12500000E+03</rscale>
<asrwt>0</asrwt>
<pdfrwt beam="1">  1       21 0.55293862E-02 0.12500000E+03</pdfrwt>
<pdfrwt beam="2">  1       21 0.16720775E-01 0.12500000E+03</pdfrwt>
<totfact> 0.71440990E+06</totfact>
</mgrwt>
</event>
<event>
 3    1  0.1603864E-001  0.1250000E+03  0.7546771E-02  0.1235069E+00
         21   -1    0    0  502  501  0.00000000000E+00  0.00000000000E+00  0.28274801409E+03  0.28274801409E+03  0.00000000000E+00 0. -1.
         21   -1    0    0  501  502 -0.00000000000E+00 -0.00000000000E+00 -0.13815304813E+02  0.13815304813E+02  0.00000000000E+00 0. -1.
         25    1    1    2    0    0  0.00000000000E+00  0.00000000000E+00  0.26893270927E+03  0.29656331890E+03  0.12500000000E+03 0.  0.
<mgrwt>
<rscale>  0 0.12500000E+03</rscale>
<asrwt>0</asrwt>
<pdfrwt beam="1">  1       21 0.43499690E-01 0.12500000E+03</pdfrwt>
<pdfrwt beam="2">  1       21 0.21254317E-02 0.12500000E+03</pdfrwt>
<totfact> 0.55742992E+06</totfact>
</mgrwt>
</event>
<event>
 3    1  0.1603864E-001  0.1250000E+03  0.7546771E-02  0.1235069E+00
         21   -1    0    0  502  501  0.00000000000E+00  0.00000000000E+00  0.13963528425E+03  0.13963528425E+03  0.00000000000E+00 0.  1.
         21   -1    0    0  501  502 -0.00000000000E+00 -0.00000000000E+00 -0.27974662858E+02  0.27974662858E+02  0.00000000000E+00 0.  1.
         25    1    1    2    0    0  0.00000000000E+00  0.00000000000E+00  0.11166062139E+03  0.16760994711E+03  0.12500000000E+03 0.  0.
<mgrwt>
<rscale>  0 0.12500000E+03</rscale>
<asrwt>0</asrwt>
<pdfrwt beam="1">  1       21 0.21482351E-01 0.12500000E+03</pdfrwt>
<pdfrwt beam="2">  1       21 0.43037944E-02 0.12500000E+03</pdfrwt>
<totfact> 0.68601391E+06</totfact>
</mgrwt>
</event>
<event>
 3    1  0.1603864E-001  0.1250000E+03  0.7546771E-02  0.1235069E+00
         21   -1    0    0  502  501  0.00000000000E+00  0.00000000000E+00  0.14158882986E+02  0.14158882986E+02  0.00000000000E+00 0. -1.
         21   -1    0    0  501  502 -0.00000000000E+00 -0.00000000000E+00 -0.27588687638E+03  0.27588687638E+03  0.00000000000E+00 0. -1.
         25    1    1    2    0    0  0.00000000000E+00  0.00000000000E+00 -0.26172799340E+03  0.29004575937E+03  0.12500000000E+03 0.  0.
<mgrwt>
<rscale>  0 0.12500000E+03</rscale>
<asrwt>0</asrwt>
<pdfrwt beam="1">  1       21 0.21782895E-02 0.12500000E+03</pdfrwt>
<pdfrwt beam="2">  1       21 0.42444138E-01 0.12500000E+03</pdfrwt>
<totfact> 0.56293688E+06</totfact>
</mgrwt>
</event>
<event>
 3    1  0.1603864E-001  0.1250000E+03  0.7546771E-02  0.1235069E+00
         21   -1    0    0  502  501  0.00000000000E+00  0.00000000000E+00  0.11653250721E+04  0.11653250721E+04  0.00000000000E+00 0.  1.
         21   -1    0    0  501  502 -0.00000000000E+00 -0.00000000000E+00 -0.33520689579E+01  0.33520689579E+01  0.00000000000E+00 0.  1.
         25    1    1    2    0    0  0.00000000000E+00  0.00000000000E+00  0.11619730031E+04  0.11686771410E+04  0.12500000000E+03 0.  0.
<mgrwt>
<rscale>  0 0.12500000E+03</rscale>
<asrwt>0</asrwt>
<pdfrwt beam="1">  1       21 0.17928046E+00 0.12500000E+03</pdfrwt>
<pdfrwt beam="2">  1       21 0.51570384E-03 0.12500000E+03</pdfrwt>
<totfact> 0.19779039E+06</totfact>
</mgrwt>
</event>
<event>
 3    1  0.1603864E-001  0.1250000E+03  0.7546771E-02  0.1235069E+00
         21   -1    0    0  502  501  0.00000000000E+00  0.00000000000E+00  0.15025544568E+03  0.15025544568E+03  0.00000000000E+00 0.  1.
         21   -1    0    0  501  502 -0.00000000000E+00 -0.00000000000E+00 -0.25997393853E+02  0.25997393853E+02  0.00000000000E+00 0.  1.
         25    1    1    2    0    0  0.00000000000E+00  0.00000000000E+00  0.12425805183E+03  0.17625283954E+03  0.12500000000E+03 0.  0.
<mgrwt>
<rscale>  0 0.12500000E+03</rscale>
<asrwt>0</asrwt>
<pdfrwt beam="1">  1       21 0.23116222E-01 0.12500000E+03</pdfrwt>
<pdfrwt beam="2">  1       21 0.39995991E-02 0.12500000E+03</pdfrwt>
<totfact> 0.67584021E+06</totfact>
</mgrwt>
</event>
<event>
 3    1  0.1603864E-001  0.1250000E+03  0.7546771E-02  0.1235069E+00
         21   -1    0    0  502  501  0.00000000000E+00  0.00000000000E+00  0.30322774521E+02  0.30322774521E+02  0.00000000000E+00 0. -1.
         21   -1    0    0  501  502 -0.00000000000E+00 -0.00000000000E+00 -0.12882231464E+03  0.12882231464E+03  0.00000000000E+00 0. -1.
         25    1    1    2    0    0  0.00000000000E+00  0.00000000000E+00 -0.98499540114E+02  0.15914508916E+03  0.12500000000E+03 0.  0.
<mgrwt>
<rscale>  0 0.12500000E+03</rscale>
<asrwt>0</asrwt>
<pdfrwt beam="1">  1       21 0.46650422E-02 0.12500000E+03</pdfrwt>
<pdfrwt beam="2">  1       21 0.19818818E-01 0.12500000E+03</pdfrwt>
<totfact> 0.69624108E+06</totfact>
</mgrwt>
</event>
<event>
 3    1  0.1603864E-001  0.1250000E+03  0.7546771E-02  0.1235069E+00
         21   -1    0    0  502  501  0.00000000000E+00  0.00000000000E+00  0.83147484497E+02  0.83147484497E+02  0.00000000000E+00 0. -1.
         21   -1    0    0  501  502 -0.00000000000E+00 -0.00000000000E+00 -0.46979773635E+02  0.46979773635E+02  0.00000000000E+00 0. -1.
         25    1    1    2    0    0  0.00000000000E+00  0.00000000000E+00  0.36167710861E+02  0.13012725813E+03  0.12500000000E+03 0.  0.
<mgrwt>
<rscale>  0 0.12500000E+03</rscale>
<asrwt>0</asrwt>
<pdfrwt beam="1">  1       21 0.12791921E-01 0.12500000E+03</pdfrwt>
<pdfrwt beam="2">  1       21 0.72276575E-02 0.12500000E+03</pdfrwt>
<totfact> 0.73347912E+06</totfact>
</mgrwt>
</event>
<event>
 3    1  0.1603864E-001  0.1250000E+03  0.7546771E-02  0.1235069E+00
         21   -1    0    0  502  501  0.00000000000E+00  0.00000000000E+00  0.63487125505E+02  0.63487125505E+02  0.00000000000E+00 0. -1.
         21   -1    0    0  501  502 -0.00000000000E+00 -0.00000000000E+00 -0.61528222753E+02  0.61528222753E+02  0.00000000000E+00 0. -1.
         25    1    1    2    0    0  0.00000000000E+00  0.00000000000E+00  0.19589027524E+01  0.12501534826E+03  0.12500000000E+03 0.  0.
<mgrwt>
<rscale>  0 0.12500000E+03</rscale>
<asrwt>0</asrwt>
<pdfrwt beam="1">  1       21 0.97672500E-02 0.12500000E+03</pdfrwt>
<pdfrwt beam="2">  1       21 0.94658805E-02 0.12500000E+03</pdfrwt>
<totfact> 0.74041508E+06</totfact>
</mgrwt>
</event>
<event>
 3    1  0.1603864E-001  0.1250000E+03  0.7546771E-02  0.1235069E+00
         21   -1    0    0  502  501  0.00000000000E+00  0.00000000000E+00  0.43902613146E+02  0.43902613146E+02  0.00000000000E+00 0.  1.
         21   -1    0    0  501  502 -0.00000000000E+00 -0.00000000000E+00 -0.88975341559E+02  0.88975341559E+02  0.00000000000E+00 0.  1.
         25    1    1    2    0    0  0.00000000000E+00  0.00000000000E+00 -0.45072728413E+02  0.13287795471E+03  0.12500000000E+03 0.  0.
<mgrwt>
<rscale>  0 0.12500000E+03</rscale>
<asrwt>0</asrwt>
<pdfrwt beam="1">  1       21 0.67542482E-02 0.12500000E+03</pdfrwt>
<pdfrwt beam="2">  1       21 0.13688514E-01 0.12500000E+03</pdfrwt>
<totfact> 0.72978700E+06</totfact>
</mgrwt>
</event>
<event>
 3    1  0.1603864E-001  0.1250000E+03  0.7546771E-02  0.1235069E+00
         21   -1    0    0  502  501  0.00000000000E+00  0.00000000000E+00  0.51964711313E+03  0.51964711313E+03  0.00000000000E+00 0. -1.
         21   -1    0    0  501  502 -0.00000000000E+00 -0.00000000000E+00 -0.75171205637E+01  0.75171205637E+01  0.00000000000E+00 0. -1.
         25    1    1    2    0    0  0.00000000000E+00  0.00000000000E+00  0.51212999257E+03  0.52716423369E+03  0.12500000000E+03 0.  0.
<mgrwt>
<rscale>  0 0.12500000E+03</rscale>
<asrwt>0</asrwt>
<pdfrwt beam="1">  1       21 0.79945681E-01 0.12500000E+03</pdfrwt>
<pdfrwt beam="2">  1       21 0.11564805E-02 0.12500000E+03</pdfrwt>
<totfact> 0.40608207E+06</totfact>
</mgrwt>
</event>
<event>
 3    1  0.1603864E-001  0.1250000E+03  0.7546771E-02  0.1235069E+00
         21   -1    0    0  502  501  0.00000000000E+00  0.00000000000E+00  0.55725932022E+02  0.55725932022E+02  0.00000000000E+00 0. -1.
         21   -1    0    0  501  502 -0.00000000000E+00 -0.00000000000E+00 -0.70097526560E+02  0.70097526560E+02  0.00000000000E+00 0. -1.
         25    1    1    2    0    0  0.00000000000E+00  0.00000000000E+00 -0.14371594537E+02  0.12582345858E+03  0.12500000000E+03 0.  0.
<mgrwt>
<rscale>  0 0.12500000E+03</rscale>
<asrwt>0</asrwt>
<pdfrwt beam="1">  1       21 0.85732203E-02 0.12500000E+03</pdfrwt>
<pdfrwt beam="2">  1       21 0.10784235E-01 0.12500000E+03</pdfrwt>
<totfact> 0.73930424E+06</totfact>
</mgrwt>
</event>
<event>
 3    1  0.1603864E-001  0.1250000E+03  0.7546771E-02  0.1235069E+00
         21   -1    0    0  502  501  0.00000000000E+00  0.00000000000E+00  0.48323013856E+01  0.48323013856E+01  0.00000000000E+00 0. -1.
         21   -1    0    0  501  502 -0.00000000000E+00 -0.00000000000E+00 -0.80836224571E+03  0.80836224571E+03  0.00000000000E+00 0. -1.
         25    1    1    2    0    0  0.00000000000E+00  0.00000000000E+00 -0.80352994432E+03  0.81319454709E+03  0.12500000000E+03 0.  0.
<mgrwt>
<rscale>  0 0.12500000E+03</rscale>
<asrwt>0</asrwt>
<pdfrwt beam="1">  1       21 0.74343057E-03 0.12500000E+03</pdfrwt>
<pdfrwt beam="2">  1       21 0.12436349E+00 0.12500000E+03</pdfrwt>
<totfact> 0.28930272E+06</totfact>
</mgrwt>
</event>
<event>
 3    1  0.1603864E-001  0.1250000E+03  0.7546771E-02  0.1235069E+00
         21   -1    0    0  502  501  0.00000000000E+00  0.00000000000E+00  0.30796339575E+01  0.30796339575E+01  0.00000000000E+00 0. -1.
         21   -1    0    0  501  502 -0.00000000000E+00 -0.00000000000E+00 -0.12684137316E+04  0.12684137316E+04  0.00000000000E+00 0. -1.
         25    1    1    2    0    0  0.00000000000E+00  0.00000000000E+00 -0.12653340976E+04  0.12714933656E+04  0.12500000000E+03 0.  0.
<mgrwt>
<rscale>  0 0.12500000E+03</rscale>
<asrwt>0</asrwt>
<pdfrwt beam="1">  1       21 0.47378987E-03 0.12500000E+03</pdfrwt>
<pdfrwt beam="2">  1       21 0.19514056E+00 0.12500000E+03</pdfrwt>
<totfact> 0.17772081E+06</totfact>
</mgrwt>
</event>
<event>
 3    1  0.1603864E-001  0.1250000E+03  0.7546771E-02  0.1235069E+00
         21   -1    0    0  502  501  0.00000000000E+00  0.00000000000E+00  0.99233838737E+02  0.99233838737E+02  0.00000000000E+00 0. -1.
         21   -1    0    0  501  502 -0.00000000000E+00 -0.00000000000E+00 -0.39364092428E+02  0.39364092428E+02  0.00000000000E+00 0. -1.
         25    1    1    2    0    0  0.00000000000E+00  0.00000000000E+00  0.59869746309E+02  0.13859793116E+03  0.12500000000E+03 0.  0.
<mgrwt>
<rscale>  0 0.12500000E+03</rscale>
<asrwt>0</asrwt>
<pdfrwt beam="1">  1       21 0.15266744E-01 0.12500000E+03</pdfrwt>
<pdfrwt beam="2">  1       21 0.60560143E-02 0.12500000E+03</pdfrwt>
<totfact> 0.72222878E+06</totfact>
</mgrwt>
</event>
<event>
 3    1  0.1603864E-001  0.1250000E+03  0.7546771E-02  0.1235069E+00
         21   -1    0    0  502  501  0.00000000000E+00  0.00000000000E+00  0.12929830185E+03  0.12929830185E+03  0.00000000000E+00 0. -1.
         21   -1    0    0  501  502 -0.00000000000E+00 -0.00000000000E+00 -0.30211146969E+02  0.30211146969E+02  0.00000000000E+00 0. -1.
         25    1    1    2    0    0  0.00000000000E+00  0.00000000000E+00  0.99087154879E+02  0.15950944882E+03  0.12500000000E+03 0.  0.
<mgrwt>
<rscale>  0 0.12500000E+03</rscale>
<asrwt>0</asrwt>
<pdfrwt beam="1">  1       21 0.19892046E-01 0.12500000E+03</pdfrwt>
<pdfrwt beam="2">  1       21 0.46478688E-02 0.12500000E+03</pdfrwt>
<totfact> 0.69579486E+06</totfact>
</mgrwt>
</event>
<event>
 3    1  0.1603864E-001  0.1250000E+03  0.7546771E-02  0.1235069E+00
         21   -1    0    0  502  501  0.00000000000E+00  0.00000000000E+00  0.40890442984E+02  0.40890442984E+02  0.00000000000E+00 0. -1.
         21   -1    0    0  501  502 -0.00000000000E+00 -0.00000000000E+00 -0.95529657176E+02  0.95529657176E+02  0.00000000000E+00 0. -1.
         25    1    1    2    0    0  0.00000000000E+00  0.00000000000E+00 -0.54639214193E+02  0.13642010016E+03  0.12500000000E+03 0.  0.
<mgrwt>
<rscale>  0 0.12500000E+03</rscale>
<asrwt>0</asrwt>
<pdfrwt beam="1">  1       21 0.62908375E-02 0.12500000E+03</pdfrwt>
<pdfrwt beam="2">  1       21 0.14696870E-01 0.12500000E+03</pdfrwt>
<totfact> 0.72508983E+06</totfact>
</mgrwt>
</event>
<event>
 3    1  0.1603864E-001  0.1250000E+03  0.7546771E-02  0.1235069E+00
         21   -1    0    0  502  501  0.00000000000E+00  0.00000000000E+00  0.29908028260E+03  0.29908028260E+03  0.00000000000E+00 0.  1.
         21   -1    0    0  501  502 -0.00000000000E+00 -0.00000000000E+00 -0.13060874378E+02  0.13060874378E+02  0.00000000000E+00 0.  1.
         25    1    1    2    0    0  0.00000000000E+00  0.00000000000E+00  0.28601940822E+03  0.31214115698E+03  0.12500000000E+03 0.  0.
<mgrwt>
<rscale>  0 0.12500000E+03</rscale>
<asrwt>0</asrwt>
<pdfrwt beam="1">  1       21 0.46012346E-01 0.12500000E+03</pdfrwt>
<pdfrwt beam="2">  1       21 0.20093655E-02 0.12500000E+03</pdfrwt>
<totfact> 0.54462051E+06</totfact>
</mgrwt>
</event>
<event>
 3    1  0.1603864E-001  0.1250000E+03  0.7546771E-02  0.1235069E+00
         21   -1    0    0  502  501  0.00000000000E+00  0.00000000000E+00  0.22969602245E+02  0.22969602245E+02  0.00000000000E+00 0. -1.
         21   -1    0    0  501  502 -0.00000000000E+00 -0.00000000000E+00 -0.17006171715E+03  0.17006171715E+03  0.00000000000E+00 0. -1.
         25    1    1    2    0    0  0.00000000000E+00  0.00000000000E+00 -0.14709211490E+03  0.19303131939E+03  0.12500000000E+03 0.  0.
<mgrwt>
<rscale>  0 0.12500000E+03</rscale>
<asrwt>0</asrwt>
<pdfrwt beam="1">  1       21 0.35337851E-02 0.12500000E+03</pdfrwt>
<pdfrwt beam="2">  1       21 0.26163340E-01 0.12500000E+03</pdfrwt>
<totfact> 0.65687136E+06</totfact>
</mgrwt>
</event>
<event>
 3    1  0.1603864E-001  0.1250000E+03  0.7546771E-02  0.1235069E+00
         21   -1    0    0  502  501  0.00000000000E+00  0.00000000000E+00  0.18491893046E+03  0.18491893046E+03  0.00000000000E+00 0.  1.
         21   -1    0    0  501  502 -0.00000000000E+00 -0.00000000000E+00 -0.21124121745E+02  0.21124121745E+02  0.00000000000E+00 0.  1.
         25    1    1    2    0    0  0.00000000000E+00  0.00000000000E+00  0.16379480872E+03  0.20604305221E+03  0.12500000000E+03 0.  0.
<mgrwt>
<rscale>  0 0.12500000E+03</rscale>
<asrwt>0</asrwt>
<pdfrwt beam="1">  1       21 0.28449065E-01 0.12500000E+03</pdfrwt>
<pdfrwt beam="2">  1       21 0.32498650E-02 0.12500000E+03</pdfrwt>
<totfact> 0.64278272E+06</totfact>
</mgrwt>
</event>
<event>
 3    1  0.1603864E-001  0.1250000E+03  0.7546771E-02  0.1235069E+00
         21   -1    0    0  502  501  0.00000000000E+00  0.00000000000E+00  0.44127996787E+02  0.44127996787E+02  0.00000000000E+00 0.  1.
         21   -1    0    0  501  502 -0.00000000000E+00 -0.00000000000E+00 -0.88520900209E+02  0.88520900209E+02  0.00000000000E+00 0.  1.
         25    1    1    2    0    0  0.00000000000E+00  0.00000000000E+00 -0.44392903422E+02  0.13264889700E+03  0.12500000000E+03 0.  0.
<mgrwt>
<rscale>  0 0.12500000E+03</rscale>
<asrwt>0</asrwt>
<pdfrwt beam="1">  1       21 0.67889226E-02 0.12500000E+03</pdfrwt>
<pdfrwt beam="2">  1       21 0.13618600E-01 0.12500000E+03</pdfrwt>
<totfact> 0.73009319E+06</totfact>
</mgrwt>
</event>
<event>
 3    1  0.1603864E-001  0.1250000E+03  0.7546771E-02  0.1235069E+00
         21   -1    0    0  502  501  0.00000000000E+00  0.00000000000E+00  0.17587594152E+03  0.17587594152E+03  0.00000000000E+00 0. -1.
         21   -1    0    0  501  502 -0.00000000000E+00 -0.00000000000E+00 -0.22210257788E+02  0.22210257788E+02  0.00000000000E+00 0. -1.
         25    1    1    2    0    0  0.00000000000E+00  0.00000000000E+00  0.15366568374E+03  0.19808619931E+03  0.12500000000E+03 0.  0.
<mgrwt>
<rscale>  0 0.12500000E+03</rscale>
<asrwt>0</asrwt>
<pdfrwt beam="1">  1       21 0.27057836E-01 0.12500000E+03</pdfrwt>
<pdfrwt beam="2">  1       21 0.34169629E-02 0.12500000E+03</pdfrwt>
<totfact> 0.65134821E+06</totfact>
</mgrwt>
</event>
<event>
 3    1  0.1603864E-001  0.1250000E+03  0.7546771E-02  0.1235069E+00
         21   -1    0    0  502  501  0.00000000000E+00  0.00000000000E+00  0.95324559547E+01  0.95324559547E+01  0.00000000000E+00 0.  1.
         21   -1    0    0  501  502 -0.00000000000E+00 -0.00000000000E+00 -0.40978421705E+03  0.40978421705E+03  0.00000000000E+00 0.  1.
         25    1    1    2    0    0  0.00000000000E+00  0.00000000000E+00 -0.40025176110E+03  0.41931667301E+03  0.12500000000E+03 0.  0.
<mgrwt>
<rscale>  0 0.12500000E+03</rscale>
<asrwt>0</asrwt>
<pdfrwt beam="1">  1       21 0.14665317E-02 0.12500000E+03</pdfrwt>
<pdfrwt beam="2">  1       21 0.63043724E-01 0.12500000E+03</pdfrwt>
<totfact> 0.46785946E+06</totfact>
</mgrwt>
</event>
<event>
 3    1  0.1603864E-001  0.1250000E+03  0.7546771E-02  0.1235069E+00
         21   -1    0    0  502  501  0.00000000000E+00  0.00000000000E+00  0.11356598403E+02  0.11356598403E+02  0.00000000000E+00 0.  1.
         21   -1    0    0  501  502 -0.00000000000E+00 -0.00000000000E+00 -0.34396303025E+03  0.34396303025E+03  0.00000000000E+00 0.  1.
         25    1    1    2    0    0  0.00000000000E+00  0.00000000000E+00 -0.33260643185E+03  0.35531962866E+03  0.12500000000E+03 0.  0.
<mgrwt>
<rscale>  0 0.12500000E+03</rscale>
<asrwt>0</asrwt>
<pdfrwt beam="1">  1       21 0.17471690E-02 0.12500000E+03</pdfrwt>
<pdfrwt beam="2">  1       21 0.52917389E-01 0.12500000E+03</pdfrwt>
<totfact> 0.51147946E+06</totfact>
</mgrwt>
</event>
<event>
 3    1  0.1603864E-001  0.1250000E+03  0.7546771E-02  0.1235069E+00
         21   -1    0    0  502  501  0.00000000000E+00  0.00000000000E+00  0.17433099162E+03  0.17433099162E+03  0.00000000000E+00 0.  1.
         21   -1    0    0  501  502 -0.00000000000E+00 -0.00000000000E+00 -0.22407088744E+02  0.22407088744E+02  0.00000000000E+00 0.  1.
         25    1    1    2    0    0  0.00000000000E+00  0.00000000000E+00  0.15192390288E+03  0.19673808036E+03  0.12500000000E+03 0.  0.
<mgrwt>
<rscale>  0 0.12500000E+03</rscale>
<asrwt>0</asrwt>
<pdfrwt beam="1">  1       21 0.26820152E-01 0.12500000E+03</pdfrwt>
<pdfrwt beam="2">  1       21 0.34472445E-02 0.12500000E+03</pdfrwt>
<totfact> 0.65281296E+06</totfact>
</mgrwt>
</event>
<event>
 3    1  0.1603864E-001  0.1250000E+03  0.7546771E-02  0.1235069E+00
         21   -1    0    0  502  501  0.00000000000E+00  0.00000000000E+00  0.55379795919E+03  0.55379795919E+03  0.00000000000E+00 0.  1.
         21   -1    0    0  501  502 -0.00000000000E+00 -0.00000000000E+00 -0.70535651769E+01  0.70535651769E+01  0.00000000000E+00 0.  1.
         25    1    1    2    0    0  0.00000000000E+00  0.00000000000E+00  0.54674439401E+03  0.56085152437E+03  0.12500000000E+03 0.  0.
<mgrwt>
<rscale>  0 0.12500000E+03</rscale>
<asrwt>0</asrwt>
<pdfrwt beam="1">  1       21 0.85199652E-01 0.12500000E+03</pdfrwt>
<pdfrwt beam="2">  1       21 0.10851643E-02 0.12500000E+03</pdfrwt>
<totfact> 0.38925128E+06</totfact>
</mgrwt>
</event>
<event>
 3    1  0.1603864E-001  0.1250000E+03  0.7546771E-02  0.1235069E+00
         21   -1    0    0  502  501  0.00000000000E+00  0.00000000000E+00  0.96464391385E+02  0.96464391385E+02  0.00000000000E+00 0.  1.
         21   -1    0    0  501  502 -0.00000000000E+00 -0.00000000000E+00 -0.40494217026E+02  0.40494217026E+02  0.00000000000E+00 0.  1.
         25    1    1    2    0    0  0.00000000000E+00  0.00000000000E+00  0.55970174359E+02  0.13695860841E+03  0.12500000000E+03 0.  0.
<mgrwt>
<rscale>  0 0.12500000E+03</rscale>
<asrwt>0</asrwt>
<pdfrwt beam="1">  1       21 0.14840676E-01 0.12500000E+03</pdfrwt>
<pdfrwt beam="2">  1       21 0.62298796E-02 0.12500000E+03</pdfrwt>
<totfact> 0.72438164E+06</totfact>
</mgrwt>
</event>
<event>
 3    1  0.1603864E-001  0.1250000E+03  0.7546771E-02  0.1235069E+00
         21   -1    0    0  502  501  0.00000000000E+00  0.00000000000E+00  0.23805161371E+01  0.23805161371E+01  0.00000000000E+00 0. -1.
         21   -1    0    0  501  502 -0.00000000000E+00 -0.00000000000E+00 -0.16409256543E+04  0.16409256543E+04  0.00000000000E+00 0. -1.
         25    1    1    2    0    0  0.00000000000E+00  0.00000000000E+00 -0.16385451382E+04  0.16433061705E+04  0.12500000000E+03 0.  0.
<mgrwt>
<rscale>  0 0.12500000E+03</rscale>
<asrwt>0</asrwt>
<pdfrwt beam="1">  1       21 0.36623420E-03 0.12500000E+03</pdfrwt>
<pdfrwt beam="2">  1       21 0.25244944E+00 0.12500000E+03</pdfrwt>
<totfact> 0.11995469E+06</totfact>
</mgrwt>
</event>
<event>
 3    1  0.1603864E-001  0.1250000E+03  0.7546771E-02  0.1235069E+00
         21   -1    0    0  502  501  0.00000000000E+00  0.00000000000E+00  0.23282259678E+02  0.23282259678E+02  0.00000000000E+00 0. -1.
         21   -1    0    0  501  502 -0.00000000000E+00 -0.00000000000E+00 -0.16777795859E+03  0.16777795859E+03  0.00000000000E+00 0. -1.
         25    1    1    2    0    0  0.00000000000E+00  0.00000000000E+00 -0.14449569891E+03  0.19106021827E+03  0.12500000000E+03 0.  0.
<mgrwt>
<rscale>  0 0.12500000E+03</rscale>
<asrwt>0</asrwt>
<pdfrwt beam="1">  1       21 0.35818861E-02 0.12500000E+03</pdfrwt>
<pdfrwt beam="2">  1       21 0.25811994E-01 0.12500000E+03</pdfrwt>
<totfact> 0.65904824E+06</totfact>
</mgrwt>
</event>
<event>
 3    1  0.1603864E-001  0.1250000E+03  0.7546771E-02  0.1235069E+00
         21   -1    0    0  502  501  0.00000000000E+00  0.00000000000E+00  0.16315951850E+03  0.16315951850E+03  0.00000000000E+00 0.  1.
         21   -1    0    0  501  502 -0.00000000000E+00 -0.00000000000E+00 -0.23941293992E+02  0.23941293992E+02  0.00000000000E+00 0.  1.
         25    1    1    2    0    0  0.00000000000E+00  0.00000000000E+00  0.13921822451E+03  0.18710081249E+03  0.12500000000E+03 0.  0.
<mgrwt>
<rscale>  0 0.12500000E+03</rscale>
<asrwt>0</asrwt>
<pdfrwt beam="1">  1       21 0.25101464E-01 0.12500000E+03</pdfrwt>
<pdfrwt beam="2">  1       21 0.36832761E-02 0.12500000E+03</pdfrwt>
<totfact> 0.66346141E+06</totfact>
</mgrwt>
</event>
<event>
 3    1  0.1603864E-001  0.1250000E+03  0.7546771E-02  0.1235069E+00
         21   -1    0    0  502  501  0.00000000000E+00  0.00000000000E+00  0.44323083093E+02  0.44323083093E+02  0.00000000000E+00 0.  1.
         21   -1    0    0  501  502 -0.00000000000E+00 -0.00000000000E+00 -0.88131278949E+02  0.88131278949E+02  0.00000000000E+00 0.  1.
         25    1    1    2    0    0  0.00000000000E+00  0.00000000000E+00 -0.43808195856E+02  0.13245436204E+03  0.12500000000E+03 0.  0.
<mgrwt>
<rscale>  0 0.12500000E+03</rscale>
<asrwt>0</asrwt>
<pdfrwt beam="1">  1       21 0.68189359E-02 0.12500000E+03</pdfrwt>
<pdfrwt beam="2">  1       21 0.13558658E-01 0.12500000E+03</pdfrwt>
<totfact> 0.73035347E+06</totfact>
</mgrwt>
</event>
<event>
 3    1  0.1603864E-001  0.1250000E+03  0.7546771E-02  0.1235069E+00
         21   -1    0    0  502  501  0.00000000000E+00  0.00000000000E+00  0.84093942353E+02  0.84093942353E+02  0.00000000000E+00 0. -1.
         21   -1    0    0  501  502 -0.00000000000E+00 -0.00000000000E+00 -0.46451027157E+02  0.46451027157E+02  0.00000000000E+00 0. -1.
         25    1    1    2    0    0  0.00000000000E+00  0.00000000000E+00  0.37642915196E+02  0.13054496951E+03  0.12500000000E+03 0.  0.
<mgrwt>
<rscale>  0 0.12500000E+03</rscale>
<asrwt>0</asrwt>
<pdfrwt beam="1">  1       21 0.12937530E-01 0.12500000E+03</pdfrwt>
<pdfrwt beam="2">  1       21 0.71463119E-02 0.12500000E+03</pdfrwt>
<totfact> 0.73292058E+06</totfact>
</mgrwt>
</event>
<event>
 3    1  0.1603864E-001  0.1250000E+03  0.7546771E-02  0.1235069E+00
         21   -1    0    0  502  501  0.00000000000E+00  0.00000000000E+00  0.59537377705E+02  0.59537377705E+02  0.00000000000E+00 0.  1.
         21   -1    0    0  501  502 -0.00000000000E+00 -0.00000000000E+00 -0.65610044490E+02  0.65610044490E+02  0.00000000000E+00 0.  1.
         25    1    1    2    0    0  0.00000000000E+00  0.00000000000E+00 -0.60726667851E+01  0.12514742219E+03  0.12500000000E+03 0.  0.
<mgrwt>
<rscale>  0 0.12500000E+03</rscale>
<asrwt>0</asrwt>
<pdfrwt beam="1">  1       21 0.91595966E-02 0.12500000E+03</pdfrwt>
<pdfrwt beam="2">  1       21 0.10093853E-01 0.12500000E+03</pdfrwt>
<totfact> 0.74023671E+06</totfact>
</mgrwt>
</event>
<event>
 3    1  0.1603864E-001  0.1250000E+03  0.7546771E-02  0.1235069E+00
         21   -1    0    0  502  501  0.00000000000E+00  0.00000000000E+00  0.20703042443E+01  0.20703042443E+01  0.00000000000E+00 0.  1.
         21   -1    0    0  501  502 -0.00000000000E+00 -0.00000000000E+00 -0.18867999767E+04  0.18867999767E+04  0.00000000000E+00 0.  1.
         25    1    1    2    0    0  0.00000000000E+00  0.00000000000E+00 -0.18847296725E+04  0.18888702810E+04  0.12500000000E+03 0.  0.
<mgrwt>
<rscale>  0 0.12500000E+03</rscale>
<asrwt>0</asrwt>
<pdfrwt beam="1">  1       21 0.31850783E-03 0.12500000E+03</pdfrwt>
<pdfrwt beam="2">  1       21 0.29027739E+00 0.12500000E+03</pdfrwt>
<totfact> 0.90835140E+05</totfact>
</mgrwt>
</event>
<event>
 3    1  0.1603864E-001  0.1250000E+03  0.7546771E-02  0.1235069E+00
         21   -1    0    0  502  501  0.00000000000E+00  0.00000000000E+00  0.52134635752E+02  0.52134635752E+02  0.00000000000E+00 0. -1.
         21   -1    0    0  501  502 -0.00000000000E+00 -0.00000000000E+00 -0.74926197213E+02  0.74926197213E+02  0.00000000000E+00 0. -1.
         25    1    1    2    0    0  0.00000000000E+00  0.00000000000E+00 -0.22791561461E+02  0.12706083297E+03  0.12500000000E+03 0.  0.
<mgrwt>
<rscale>  0 0.12500000E+03</rscale>
<asrwt>0</asrwt>
<pdfrwt beam="1">  1       21 0.80207132E-02 0.12500000E+03</pdfrwt>
<pdfrwt beam="2">  1       21 0.11527107E-01 0.12500000E+03</pdfrwt>
<totfact> 0.73760857E+06</totfact>
</mgrwt>
</event>
<event>
 3    1  0.1603864E-001  0.1250000E+03  0.7546771E-02  0.1235069E+00
         21   -1    0    0  502  501  0.00000000000E+00  0.00000000000E+00  0.52956173714E+02  0.52956173714E+02  0.00000000000E+00 0. -1.
         21   -1    0    0  501  502 -0.00000000000E+00 -0.00000000000E+00 -0.73763826312E+02  0.73763826312E+02  0.00000000000E+00 0. -1.
         25    1    1    2    0    0  0.00000000000E+00  0.00000000000E+00 -0.20807652598E+02  0.12672000003E+03  0.12500000000E+03 0.  0.
<mgrwt>
<rscale>  0 0.12500000E+03</rscale>
<asrwt>0</asrwt>
<pdfrwt beam="1">  1       21 0.81471036E-02 0.12500000E+03</pdfrwt>
<pdfrwt beam="2">  1       21 0.11348281E-01 0.12500000E+03</pdfrwt>
<totfact> 0.73807304E+06</totfact>
</mgrwt>
</event>
<event>
 3    1  0.1603864E-001  0.1250000E+03  0.7546771E-02  0.1235069E+00
         21   -1    0    0  502  501  0.00000000000E+00  0.00000000000E+00  0.14702741833E+02  0.14702741833E+02  0.00000000000E+00 0.  1.
         21   -1    0    0  501  502 -0.00000000000E+00 -0.00000000000E+00 -0.26568173776E+03  0.26568173776E+03  0.00000000000E+00 0.  1.
         25    1    1    2    0    0  0.00000000000E+00  0.00000000000E+00 -0.25097899593E+03  0.28038447959E+03  0.12500000000E+03 0.  0.
<mgrwt>
<rscale>  0 0.12500000E+03</rscale>
<asrwt>0</asrwt>
<pdfrwt beam="1">  1       21 0.22619603E-02 0.12500000E+03</pdfrwt>
<pdfrwt beam="2">  1       21 0.40874113E-01 0.12500000E+03</pdfrwt>
<totfact> 0.57126741E+06</totfact>
</mgrwt>
</event>
<event>
 3    1  0.1603864E-001  0.1250000E+03  0.7546771E-02  0.1235069E+00
         21   -1    0    0  502  501  0.00000000000E+00  0.00000000000E+00  0.17899918745E+03  0.17899918745E+03  0.00000000000E+00 0.  1.
         21   -1    0    0  501  502 -0.00000000000E+00 -0.00000000000E+00 -0.21822724761E+02  0.21822724761E+02  0.00000000000E+00 0.  1.
         25    1    1    2    0    0  0.00000000000E+00  0.00000000000E+00  0.15717646269E+03  0.20082191221E+03  0.12500000000E+03 0.  0.
<mgrwt>
<rscale>  0 0.12500000E+03</rscale>
<asrwt>0</asrwt>
<pdfrwt beam="1">  1       21 0.27538336E-01 0.12500000E+03</pdfrwt>
<pdfrwt beam="2">  1       21 0.33573424E-02 0.12500000E+03</pdfrwt>
<totfact> 0.64838302E+06</totfact>
</mgrwt>
</event>
<event>
 3    1  0.1603864E-001  0.1250000E+03  0.7546771E-02  0.1235069E+00
         21   -1    0    0  502  501  0.00000000000E+00  0.00000000000E+00  0.84598585396E+01  0.84598585396E+01  0.00000000000E+00 0. -1.
         21   -1    0    0  501  502 -0.00000000000E+00 -0.00000000000E+00 -0.46173939927E+03  0.46173939927E+03  0.00000000000E+00 0. -1.
         25    1    1    2    0    0  0.00000000000E+00  0.00000000000E+00 -0.45327954073E+03  0.47019925781E+03  0.12500000000E+03 0.  0.
<mgrwt>
<rscale>  0 0.12500000E+03</rscale>
<asrwt>0</asrwt>
<pdfrwt beam="1">  1       21 0.13015164E-02 0.12500000E+03</pdfrwt>
<pdfrwt beam="2">  1       21 0.71036844E-01 0.12500000E+03</pdfrwt>
<totfact> 0.43707747E+06</totfact>
</mgrwt>
</event>
<event>
 3    1  0.1603864E-001  0.1250000E+03  0.7546771E-02  0.1235069E+00
         21   -1    0    0  502  501  0.00000000000E+00  0.00000000000E+00  0.24146346366E+02  0.24146346366E+02  0.00000000000E+00 0.  1.
         21   -1    0    0  501  502 -0.00000000000E+00 -0.00000000000E+00 -0.16177395705E+03  0.16177395705E+03  0.00000000000E+00 0.  1.
         25    1    1    2    0    0  0.00000000000E+00  0.00000000000E+00 -0.13762761069E+03  0.18592030342E+03  0.12500000000E+03 0.  0.
<mgrwt>
<rscale>  0 0.12500000E+03</rscale>
<asrwt>0</asrwt>
<pdfrwt beam="1">  1       21 0.37148226E-02 0.12500000E+03</pdfrwt>
<pdfrwt beam="2">  1       21 0.24888301E-01 0.12500000E+03</pdfrwt>
<totfact> 0.66478782E+06</totfact>
</mgrwt>
</event>
<event>
 3    1  0.1603864E-001  0.1250000E+03  0.7546771E-02  0.1235069E+00
         21   -1    0    0  502  501  0.00000000000E+00  0.00000000000E+00  0.95689770611E+01  0.95689770611E+01  0.00000000000E+00 0. -1.
         21   -1    0    0  501  502 -0.00000000000E+00 -0.00000000000E+00 -0.40822022825E+03  0.40822022825E+03  0.00000000000E+00 0. -1.
         25    1    1    2    0    0  0.00000000000E+00  0.00000000000E+00 -0.39865125119E+03  0.41778920531E+03  0.12500000000E+03 0.  0.
<mgrwt>
<rscale>  0 0.12500000E+03</rscale>
<asrwt>0</asrwt>
<pdfrwt beam="1">  1       21 0.14721501E-02 0.12500000E+03</pdfrwt>
<pdfrwt beam="2">  1       21 0.62803121E-01 0.12500000E+03</pdfrwt>
<totfact> 0.46883366E+06</totfact>
</mgrwt>
</event>
<event>
 3    1  0.1603864E-001  0.1250000E+03  0.7546771E-02  0.1235069E+00
         21   -1    0    0  502  501  0.00000000000E+00  0.00000000000E+00  0.13372925424E+04  0.13372925424E+04  0.00000000000E+00 0. -1.
         21   -1    0    0  501  502 -0.00000000000E+00 -0.00000000000E+00 -0.29210138218E+01  0.29210138218E+01  0.00000000000E+00 0. -1.
         25    1    1    2    0    0  0.00000000000E+00  0.00000000000E+00  0.13343715285E+04  0.13402135562E+04  0.12500000000E+03 0.  0.
<mgrwt>
<rscale>  0 0.12500000E+03</rscale>
<asrwt>0</asrwt>
<pdfrwt beam="1">  1       21 0.20573683E+00 0.12500000E+03</pdfrwt>
<pdfrwt beam="2">  1       21 0.44938781E-03 0.12500000E+03</pdfrwt>
<totfact> 0.16545457E+06</totfact>
</mgrwt>
</event>
<event>
 3    1  0.1603864E-001  0.1250000E+03  0.7546771E-02  0.1235069E+00
         21   -1    0    0  502  501  0.00000000000E+00  0.00000000000E+00  0.14016623286E+02  0.14016623286E+02  0.00000000000E+00 0.  1.
         21   -1    0    0  501  502 -0.00000000000E+00 -0.00000000000E+00 -0.27868695051E+03  0.27868695051E+03  0.00000000000E+00 0.  1.
         25    1    1    2    0    0  0.00000000000E+00  0.00000000000E+00 -0.26467032723E+03  0.29270357380E+03  0.12500000000E+03 0.  0.
<mgrwt>
<rscale>  0 0.12500000E+03</rscale>
<asrwt>0</asrwt>
<pdfrwt beam="1">  1       21 0.21564034E-02 0.12500000E+03</pdfrwt>
<pdfrwt beam="2">  1       21 0.42874920E-01 0.12500000E+03</pdfrwt>
<totfact> 0.56068036E+06</totfact>
</mgrwt>
</event>
<event>
 3    1  0.1603864E-001  0.1250000E+03  0.7546771E-02  0.1235069E+00
         21   -1    0    0  502  501  0.00000000000E+00  0.00000000000E+00  0.42684638686E+02  0.42684638686E+02  0.00000000000E+00 0. -1.
         21   -1    0    0  501  502 -0.00000000000E+00 -0.00000000000E+00 -0.91514186841E+02  0.91514186841E+02  0.00000000000E+00 0. -1.
         25    1    1    2    0    0  0.00000000000E+00  0.00000000000E+00 -0.48829548155E+02  0.13419882553E+03  0.12500000000E+03 0.  0.
<mgrwt>
<rscale>  0 0.12500000E+03</rscale>
<asrwt>0</asrwt>
<pdfrwt beam="1">  1       21 0.65668675E-02 0.12500000E+03</pdfrwt>
<pdfrwt beam="2">  1       21 0.14079106E-01 0.12500000E+03</pdfrwt>
<totfact> 0.72802728E+06</totfact>
</mgrwt>
</event>
<event>
 3    1  0.1603864E-001  0.1250000E+03  0.7546771E-02  0.1235069E+00
         21   -1    0    0  502  501  0.00000000000E+00  0.00000000000E+00  0.31656451550E+02  0.31656451550E+02  0.00000000000E+00 0.  1.
         21   -1    0    0  501  502 -0.00000000000E+00 -0.00000000000E+00 -0.12339506826E+03  0.12339506826E+03  0.00000000000E+00 0.  1.
         25    1    1    2    0    0  0.00000000000E+00  0.00000000000E+00 -0.91738616714E+02  0.15505151981E+03  0.12500000000E+03 0.  0.
<mgrwt>
<rscale>  0 0.12500000E+03</rscale>
<asrwt>0</asrwt>
<pdfrwt beam="1">  1       21 0.48702231E-02 0.12500000E+03</pdfrwt>
<pdfrwt beam="2">  1       21 0.18983857E-01 0.12500000E+03</pdfrwt>
<totfact> 0.70129256E+06</totfact>
</mgrwt>
</event>
<event>
 3    1  0.1603864E-001  0.1250000E+03  0.7546771E-02  0.1235069E+00
         21   -1    0    0  502  501  0.00000000000E+00  0.00000000000E+00  0.97621833514E+02  0.97621833514E+02  0.00000000000E+00 0. -1.
         21   -1    0    0  501  502 -0.00000000000E+00 -0.00000000000E+00 -0.40014101963E+02  0.40014101963E+02  0.00000000000E+00 0. -1.
         25    1    1    2    0    0  0.00000000000E+00  0.00000000000E+00  0.57607731552E+02  0.13763593548E+03  0.12500000000E+03 0.  0.
<mgrwt>
<rscale>  0 0.12500000E+03</rscale>
<asrwt>0</asrwt>
<pdfrwt beam="1">  1       21 0.15018743E-01 0.12500000E+03</pdfrwt>
<pdfrwt beam="2">  1       21 0.61560157E-02 0.12500000E+03</pdfrwt>
<totfact> 0.72349301E+06</totfact>
</mgrwt>
</event>
<event>
 3    1  0.1603864E-001  0.1250000E+03  0.7546771E-02  0.1235069E+00
         21   -1    0    0  502  501  0.00000000000E+00  0.00000000000E+00  0.96360917698E+03  0.96360917698E+03  0.00000000000E+00 0.  1.
         21   -1    0    0  501  502 -0.00000000000E+00 -0.00000000000E+00 -0.40537700276E+01  0.40537700276E+01  0.00000000000E+00 0.  1.
         25    1    1    2    0    0  0.00000000000E+00  0.00000000000E+00  0.95955540695E+03  0.96766294701E+03  0.12500000000E+03 0.  0.
<mgrwt>
<rscale>  0 0.12500000E+03</rscale>
<asrwt>0</asrwt>
<pdfrwt beam="1">  1       21 0.14824738E+00 0.12500000E+03</pdfrwt>
<pdfrwt beam="2">  1       21 0.62365769E-03 0.12500000E+03</pdfrwt>
<totfact> 0.24444423E+06</totfact>
</mgrwt>
</event>
<event>
 3    1  0.1603864E-001  0.1250000E+03  0.7546771E-02  0.1235069E+00
         21   -1    0    0  502  501  0.00000000000E+00  0.00000000000E+00  0.51505331607E+02  0.51505331607E+02  0.00000000000E+00 0.  1.
         21   -1    0    0  501  502 -0.00000000000E+00 -0.00000000000E+00 -0.75841662952E+02  0.75841662952E+02  0.00000000000E+00 0.  1.
         25    1    1    2    0    0  0.00000000000E+00  0.00000000000E+00 -0.24336331345E+02  0.12734699456E+03  0.12500000000E+03 0.  0.
<mgrwt>
<rscale>  0 0.12500000E+03</rscale>
<asrwt>0</asrwt>
<pdfrwt beam="1">  1       21 0.79238972E-02 0.12500000E+03</pdfrwt>
<pdfrwt beam="2">  1       21 0.11667948E-01 0.12500000E+03</pdfrwt>
<totfact> 0.73721972E+06</totfact>
</mgrwt>
</event>
<event>
 3    1  0.1603864E-001  0.1250000E+03  0.7546771E-02  0.1235069E+00
         21   -1    0    0  502  501  0.00000000000E+00  0.00000000000E+00  0.39910693339E+03  0.39910693339E+03  0.00000000000E+00 0.  1.
         21   -1    0    0  501  502 -0.00000000000E+00 -0.00000000000E+00 -0.97874771726E+01  0.97874771726E+01  0.00000000000E+00 0.  1.
         25    1    1    2    0    0  0.00000000000E+00  0.00000000000E+00  0.38931945622E+03  0.40889441057E+03  0.12500000000E+03 0.  0.
<mgrwt>
<rscale>  0 0.12500000E+03</rscale>
<asrwt>0</asrwt>
<pdfrwt beam="1">  1       21 0.61401054E-01 0.12500000E+03</pdfrwt>
<pdfrwt beam="2">  1       21 0.15057660E-02 0.12500000E+03</pdfrwt>
<totfact> 0.47456942E+06</totfact>
</mgrwt>
</event>
<event>
 3    1  0.1603864E-001  0.1250000E+03  0.7546771E-02  0.1235069E+00
         21   -1    0    0  502  501  0.00000000000E+00  0.00000000000E+00  0.58742188548E+03  0.58742188548E+03  0.00000000000E+00 0.  1.
         21   -1    0    0  501  502 -0.00000000000E+00 -0.00000000000E+00 -0.66498203362E+01  0.66498203362E+01  0.00000000000E+00 0.  1.
         25    1    1    2    0    0  0.00000000000E+00  0.00000000000E+00  0.58077206514E+03  0.59407170581E+03  0.12500000000E+03 0.  0.
<mgrwt>
<rscale>  0 0.12500000E+03</rscale>
<asrwt>0</asrwt>
<pdfrwt beam="1">  1       21 0.90372557E-01 0.12500000E+03</pdfrwt>
<pdfrwt beam="2">  1       21 0.10230497E-02 0.12500000E+03</pdfrwt>
<totfact> 0.37362122E+06</totfact>
</mgrwt>
</event>
<event>
 3    1  0.1603864E-001  0.1250000E+03  0.7546771E-02  0.1235069E+00
         21   -1    0    0  502  501  0.00000000000E+00  0.00000000000E+00  0.37023042268E+02  0.37023042268E+02  0.00000000000E+00 0. -1.
         21   -1    0    0  501  502 -0.00000000000E+00 -0.00000000000E+00 -0.10550861736E+03  0.10550861736E+03  0.00000000000E+00 0. -1.
         25    1    1    2    0    0  0.00000000000E+00  0.00000000000E+00 -0.68485575088E+02  0.14253165962E+03  0.12500000000E+03 0.  0.
<mgrwt>
<rscale>  0 0.12500000E+03</rscale>
<asrwt>0</asrwt>
<pdfrwt beam="1">  1       21 0.56958527E-02 0.12500000E+03</pdfrwt>
<pdfrwt beam="2">  1       21 0.16232095E-01 0.12500000E+03</pdfrwt>
<totfact> 0.71710505E+06</totfact>
</mgrwt>
</event>
<event>
 3    1  0.1603864E-001  0.1250000E+03  0.7546771E-02  0.1235069E+00
         21   -1    0    0  502  501  0.00000000000E+00  0.00000000000E+00  0.22545586452E+03  0.22545586452E+03  0.00000000000E+00 0. -1.
         21   -1    0    0  501  502 -0.00000000000E+00 -0.00000000000E+00 -0.17326007502E+02  0.17326007502E+02  0.00000000000E+00 0. -1.
         25    1    1    2    0    0  0.00000000000E+00  0.00000000000E+00  0.20812985702E+03  0.24278187203E+03  0.12500000000E+03 0.  0.
<mgrwt>
<rscale>  0 0.12500000E+03</rscale>
<asrwt>0</asrwt>
<pdfrwt beam="1">  1       21 0.34685516E-01 0.12500000E+03</pdfrwt>
<pdfrwt beam="2">  1       21 0.26655398E-02 0.12500000E+03</pdfrwt>
<totfact> 0.60564502E+06</totfact>
</mgrwt>
</event>
<event>
 3    1  0.1603864E-001  0.1250000E+03  0.7546771E-02  0.1235069E+00
         21   -1    0    0  502  501  0.00000000000E+00  0.00000000000E+00  0.11849531803E+03  0.11849531803E+03  0.00000000000E+00 0. -1.
         21   -1    0    0  501  502 -0.00000000000E+00 -0.00000000000E+00 -0.32965437495E+02  0.32965437495E+02  0.00000000000E+00 0. -1.
         25    1    1    2    0    0  0.00000000000E+00  0.00000000000E+00  0.85529880538E+02  0.15146075553E+03  0.12500000000E+03 0.  0.
<mgrwt>
<rscale>  0 0.12500000E+03</rscale>
<asrwt>0</asrwt>
<pdfrwt beam="1">  1       21 0.18230049E-01 0.12500000E+03</pdfrwt>
<pdfrwt beam="2">  1       21 0.50716058E-02 0.12500000E+03</pdfrwt>
<totfact> 0.70576183E+06</totfact>
</mgrwt>
</event>
<event>
 3    1  0.1603864E-001  0.1250000E+03  0.7546771E-02  0.1235069E+00
         21   -1    0    0  502  501  0.00000000000E+00  0.00000000000E+00  0.84342870166E+01  0.84342870166E+01  0.00000000000E+00 0. -1.
         21   -1    0    0  501  502 -0.00000000000E+00 -0.00000000000E+00 -0.46313932551E+03  0.46313932551E+03  0.00000000000E+00 0. -1.
         25    1    1    2    0    0  0.00000000000E+00  0.00000000000E+00 -0.45470503849E+03  0.47157361252E+03  0.12500000000E+03 0.  0.
<mgrwt>
<rscale>  0 0.12500000E+03</rscale>
<asrwt>0</asrwt>
<pdfrwt beam="1">  1       21 0.12975827E-02 0.12500000E+03</pdfrwt>
<pdfrwt beam="2">  1       21 0.71252200E-01 0.12500000E+03</pdfrwt>
<totfact> 0.43628876E+06</totfact>
</mgrwt>
</event>
<event>
 3    1  0.1603864E-001  0.1250000E+03  0.7546771E-02  0.1235069E+00
         21   -1    0    0  502  501  0.00000000000E+00  0.00000000000E+00  0.49109167575E+02  0.49109167575E+02  0.00000000000E+00 0. -1.
         21   -1    0    0  501  502 -0.00000000000E+00 -0.00000000000E+00 -0.79542174972E+02  0.79542174972E+02  0.00000000000E+00 0. -1.
         25    1    1    2    0    0  0.00000000000E+00  0.00000000000E+00 -0.30433007397E+02  0.12865134255E+03  0.12500000000E+03 0.  0.
<mgrwt>
<rscale>  0 0.12500000E+03</rscale>
<asrwt>0</asrwt>
<pdfrwt beam="1">  1       21 0.75552566E-02 0.12500000E+03</pdfrwt>
<pdfrwt beam="2">  1       21 0.12237258E-01 0.12500000E+03</pdfrwt>
<totfact> 0.73545749E+06</totfact>
</mgrwt>
</event>
<event>
 3    1  0.1603864E-001  0.1250000E+03  0.7546771E-02  0.1235069E+00
         21   -1    0    0  502  501  0.00000000000E+00  0.00000000000E+00  0.36349965871E+03  0.36349965871E+03  0.00000000000E+00 0.  1.
         21   -1    0    0  501  502 -0.00000000000E+00 -0.00000000000E+00 -0.10746227421E+02  0.10746227421E+02  0.00000000000E+00 0.  1.
         25    1    1    2    0    0  0.00000000000E+00  0.00000000000E+00  0.35275343128E+03  0.37424588613E+03  0.12500000000E+03 0.  0.
<mgrwt>
<rscale>  0 0.12500000E+03</rscale>
<asrwt>0</asrwt>
<pdfrwt beam="1">  1       21 0.55923015E-01 0.12500000E+03</pdfrwt>
<pdfrwt beam="2">  1       21 0.16532660E-02 0.12500000E+03</pdfrwt>
<totfact> 0.49796157E+06</totfact>
</mgrwt>
</event>
<event>
 3    1  0.1603864E-001  0.1250000E+03  0.7546771E-02  0.1235069E+00
         21   -1    0    0  502  501  0.00000000000E+00  0.00000000000E+00  0.82661494195E+02  0.82661494195E+02  0.00000000000E+00 0.  1.
         21   -1    0    0  501  502 -0.00000000000E+00 -0.00000000000E+00 -0.47255981011E+02  0.47255981011E+02  0.00000000000E+00 0.  1.
         25    1    1    2    0    0  0.00000000000E+00  0.00000000000E+00  0.35405513185E+02  0.12991747521E+03  0.12500000000E+03 0.  0.
<mgrwt>
<rscale>  0 0.12500000E+03</rscale>
<asrwt>0</asrwt>
<pdfrwt beam="1">  1       21 0.12717153E-01 0.12500000E+03</pdfrwt>
<pdfrwt beam="2">  1       21 0.72701509E-02 0.12500000E+03</pdfrwt>
<totfact> 0.73375946E+06</totfact>
</mgrwt>
</event>
<event>
 3    1  0.1603864E-001  0.1250000E+03  0.7546771E-02  0.1235069E+00
         21   -1    0    0  502  501  0.00000000000E+00  0.00000000000E+00  0.30745815791E+02  0.30745815791E+02  0.00000000000E+00 0. -1.
         21   -1    0    0  501  502 -0.00000000000E+00 -0.00000000000E+00 -0.12704980823E+03  0.12704980823E+03  0.00000000000E+00 0. -1.
         25    1    1    2    0    0  0.00000000000E+00  0.00000000000E+00 -0.96303992437E+02  0.15779562402E+03  0.12500000000E+03 0.  0.
<mgrwt>
<rscale>  0 0.12500000E+03</rscale>
<asrwt>0</asrwt>
<pdfrwt beam="1">  1       21 0.47301255E-02 0.12500000E+03</pdfrwt>
<pdfrwt beam="2">  1       21 0.19546124E-01 0.12500000E+03</pdfrwt>
<totfact> 0.69789855E+06</totfact>
</mgrwt>
</event>
<event>
 3    1  0.1603864E-001  0.1250000E+03  0.7546771E-02  0.1235069E+00
         21   -1    0    0  502  501  0.00000000000E+00  0.00000000000E+00  0.73278802989E+02  0.73278802989E+02  0.00000000000E+00 0. -1.
         21   -1    0    0  501  502 -0.00000000000E+00 -0.00000000000E+00 -0.53306684070E+02  0.53306684070E+02  0.00000000000E+00 0. -1.
         25    1    1    2    0    0  0.00000000000E+00  0.00000000000E+00  0.19972118919E+02  0.12658548706E+03  0.12500000000E+03 0.  0.
<mgrwt>
<rscale>  0 0.12500000E+03</rscale>
<asrwt>0</asrwt>
<pdfrwt beam="1">  1       21 0.11273662E-01 0.12500000E+03</pdfrwt>
<pdfrwt beam="2">  1       21 0.82010283E-02 0.12500000E+03</pdfrwt>
<totfact> 0.73825680E+06</totfact>
</mgrwt>
</event>
<event>
 3    1  0.1603864E-001  0.1250000E+03  0.7546771E-02  0.1235069E+00
         21   -1    0    0  502  501  0.00000000000E+00  0.00000000000E+00  0.43199228833E+03  0.43199228833E+03  0.00000000000E+00 0.  1.
         21   -1    0    0  501  502 -0.00000000000E+00 -0.00000000000E+00 -0.90424067872E+01  0.90424067872E+01  0.00000000000E+00 0.  1.
         25    1    1    2    0    0  0.00000000000E+00  0.00000000000E+00  0.42294988154E+03  0.44103469512E+03  0.12500000000E+03 0.  0.
<mgrwt>
<rscale>  0 0.12500000E+03</rscale>
<asrwt>0</asrwt>
<pdfrwt beam="1">  1       21 0.66460336E-01 0.12500000E+03</pdfrwt>
<pdfrwt beam="2">  1       21 0.13911398E-02 0.12500000E+03</pdfrwt>
<totfact> 0.45433558E+06</totfact>
</mgrwt>
</event>
<event>
 3    1  0.1603864E-001  0.1250000E+03  0.7546771E-02  0.1235069E+00
         21   -1    0    0  502  501  0.00000000000E+00  0.00000000000E+00  0.11480747826E+04  0.11480747826E+04  0.00000000000E+00 0. -1.
         21   -1    0    0  501  502 -0.00000000000E+00 -0.00000000000E+00 -0.34024351543E+01  0.34024351543E+01  0.00000000000E+00 0. -1.
         25    1    1    2    0    0  0.00000000000E+00  0.00000000000E+00  0.11446723474E+04  0.11514772177E+04  0.12500000000E+03 0.  0.
<mgrwt>
<rscale>  0 0.12500000E+03</rscale>
<asrwt>0</asrwt>
<pdfrwt beam="1">  1       21 0.17662658E+00 0.12500000E+03</pdfrwt>
<pdfrwt beam="2">  1       21 0.52345248E-03 0.12500000E+03</pdfrwt>
<totfact> 0.20138026E+06</totfact>
</mgrwt>
</event>
<event>
 3    1  0.1603864E-001  0.1250000E+03  0.7546771E-02  0.1235069E+00
         21   -1    0    0  502  501  0.00000000000E+00  0.00000000000E+00  0.94032511295E+01  0.94032511295E+01  0.00000000000E+00 0. -1.
         21   -1    0    0  501  502 -0.00000000000E+00 -0.00000000000E+00 -0.41541483325E+03  0.41541483325E+03  0.00000000000E+00 0. -1.
         25    1    1    2    0    0  0.00000000000E+00  0.00000000000E+00 -0.40601158212E+03  0.42481808438E+03  0.12500000000E+03 0.  0.
<mgrwt>
<rscale>  0 0.12500000E+03</rscale>
<asrwt>0</asrwt>
<pdfrwt beam="1">  1       21 0.14466542E-02 0.12500000E+03</pdfrwt>
<pdfrwt beam="2">  1       21 0.63909966E-01 0.12500000E+03</pdfrwt>
<totfact> 0.46437615E+06</totfact>
</mgrwt>
</event>
<event>
 3    1  0.1603864E-001  0.1250000E+03  0.7546771E-02  0.1235069E+00
         21   -1    0    0  502  501  0.00000000000E+00  0.00000000000E+00  0.83627894036E+02  0.83627894036E+02  0.00000000000E+00 0. -1.
         21   -1    0    0  501  502 -0.00000000000E+00 -0.00000000000E+00 -0.46709893212E+02  0.46709893212E+02  0.00000000000E+00 0. -1.
         25    1    1    2    0    0  0.00000000000E+00  0.00000000000E+00  0.36918000824E+02  0.13033778725E+03  0.12500000000E+03 0.  0.
<mgrwt>
<rscale>  0 0.12500000E+03</rscale>
<asrwt>0</asrwt>
<pdfrwt beam="1">  1       21 0.12865830E-01 0.12500000E+03</pdfrwt>
<pdfrwt beam="2">  1       21 0.71861374E-02 0.12500000E+03</pdfrwt>
<totfact> 0.73319804E+06</totfact>
</mgrwt>
</event>
<event>
 3    1  0.1603864E-001  0.1250000E+03  0.7546771E-02  0.1235069E+00
         21   -1    0    0  502  501  0.00000000000E+00  0.00000000000E+00  0.52648347461E+02  0.52648347461E+02  0.00000000000E+00 0.  1.
         21   -1    0    0  501  502 -0.00000000000E+00 -0.00000000000E+00 -0.74195111307E+02  0.74195111307E+02  0.00000000000E+00 0.  1.
         25    1    1    2    0    0  0.00000000000E+00  0.00000000000E+00 -0.21546763846E+02  0.12684345877E+03  0.12500000000E+03 0.  0.
<mgrwt>
<rscale>  0 0.12500000E+03</rscale>
<asrwt>0</asrwt>
<pdfrwt beam="1">  1       21 0.80997458E-02 0.12500000E+03</pdfrwt>
<pdfrwt beam="2">  1       21 0.11414632E-01 0.12500000E+03</pdfrwt>
<totfact> 0.73790462E+06</totfact>
</mgrwt>
</event>
<event>
 3    1  0.1603864E-001  0.1250000E+03  0.7546771E-02  0.1235069E+00
         21   -1    0    0  502  501  0.00000000000E+00  0.00000000000E+00  0.90081156947E+03  0.90081156947E+03  0.00000000000E+00 0.  1.
         21   -1    0    0  501  502 -0.00000000000E+00 -0.00000000000E+00 -0.43363674851E+01  0.43363674851E+01  0.00000000000E+00 0.  1.
         25    1    1    2    0    0  0.00000000000E+00  0.00000000000E+00  0.89647520198E+03  0.90514793695E+03  0.12500000000E+03 0.  0.
<mgrwt>
<rscale>  0 0.12500000E+03</rscale>
<asrwt>0</asrwt>
<pdfrwt beam="1">  1       21 0.13858625E+00 0.12500000E+03</pdfrwt>
<pdfrwt beam="2">  1       21 0.66713417E-03 0.12500000E+03</pdfrwt>
<totfact> 0.26151662E+06</totfact>
</mgrwt>
</event>
<event>
 3    1  0.1603864E-001  0.1250000E+03  0.7546771E-02  0.1235069E+00
         21   -1    0    0  502  501  0.00000000000E+00  0.00000000000E+00  0.41784277790E+02  0.41784277790E+02  0.00000000000E+00 0. -1.
         21   -1    0    0  501  502 -0.00000000000E+00 -0.00000000000E+00 -0.93486119818E+02  0.93486119818E+02  0.00000000000E+00 0. -1.
         25    1    1    2    0    0  0.00000000000E+00  0.00000000000E+00 -0.51701842029E+02  0.13527039761E+03  0.12500000000E+03 0.  0.
<mgrwt>
<rscale>  0 0.12500000E+03</rscale>
<asrwt>0</asrwt>
<pdfrwt beam="1">  1       21 0.64283504E-02 0.12500000E+03</pdfrwt>
<pdfrwt beam="2">  1       21 0.14382480E-01 0.12500000E+03</pdfrwt>
<totfact> 0.72660689E+06</totfact>
</mgrwt>
</event>
<event>
 3    1  0.1603864E-001  0.1250000E+03  0.7546771E-02  0.1235069E+00
         21   -1    0    0  502  501  0.00000000000E+00  0.00000000000E+00  0.78919321562E+02  0.78919321562E+02  0.00000000000E+00 0. -1.
         21   -1    0    0  501  502 -0.00000000000E+00 -0.00000000000E+00 -0.49496750893E+02  0.49496750893E+02  0.00000000000E+00 0. -1.
         25    1    1    2    0    0  0.00000000000E+00  0.00000000000E+00  0.29422570670E+02  0.12841607246E+03  0.12500000000E+03 0.  0.
<mgrwt>
<rscale>  0 0.12500000E+03</rscale>
<asrwt>0</asrwt>
<pdfrwt beam="1">  1       21 0.12141434E-01 0.12500000E+03</pdfrwt>
<pdfrwt beam="2">  1       21 0.76148847E-02 0.12500000E+03</pdfrwt>
<totfact> 0.73577427E+06</totfact>
</mgrwt>
</event>
<event>
 3    1  0.1603864E-001  0.1250000E+03  0.7546771E-02  0.1235069E+00
         21   -1    0    0  502  501  0.00000000000E+00  0.00000000000E+00  0.10926863937E+03  0.10926863937E+03  0.00000000000E+00 0.  1.
         21   -1    0    0  501  502 -0.00000000000E+00 -0.00000000000E+00 -0.35749049523E+02  0.35749049523E+02  0.00000000000E+00 0.  1.
         25    1    1    2    0    0  0.00000000000E+00  0.00000000000E+00  0.73519589845E+02  0.14501768889E+03  0.12500000000E+03 0.  0.
<mgrwt>
<rscale>  0 0.12500000E+03</rscale>
<asrwt>0</asrwt>
<pdfrwt beam="1">  1       21 0.16810560E-01 0.12500000E+03</pdfrwt>
<pdfrwt beam="2">  1       21 0.54998538E-02 0.12500000E+03</pdfrwt>
<totfact> 0.71390835E+06</totfact>
</mgrwt>
</event>
<event>
 3    1  0.1603864E-001  0.1250000E+03  0.7546771E-02  0.1235069E+00
         21   -1    0    0  502  501  0.00000000000E+00  0.00000000000E+00  0.23322698908E+02  0.23322698908E+02  0.00000000000E+00 0.  1.
         21   -1    0    0  501  502 -0.00000000000E+00 -0.00000000000E+00 -0.16748704836E+03  0.16748704836E+03  0.00000000000E+00 0.  1.
         25    1    1    2    0    0  0.00000000000E+00  0.00000000000E+00 -0.14416434945E+03  0.19080974727E+03  0.12500000000E+03 0.  0.
<mgrwt>
<rscale>  0 0.12500000E+03</rscale>
<asrwt>0</asrwt>
<pdfrwt beam="1">  1       21 0.35881075E-02 0.12500000E+03</pdfrwt>
<pdfrwt beam="2">  1       21 0.25767238E-01 0.12500000E+03</pdfrwt>
<totfact> 0.65932581E+06</totfact>
</mgrwt>
</event>
<event>
 3    1  0.1603864E-001  0.1250000E+03  0.7546771E-02  0.1235069E+00
         21   -1    0    0  502  501  0.00000000000E+00  0.00000000000E+00  0.10239252642E+02  0.10239252642E+02  0.00000000000E+00 0. -1.
         21   -1    0    0  501  502 -0.00000000000E+00 -0.00000000000E+00 -0.38149756986E+03  0.38149756986E+03  0.00000000000E+00 0. -1.
         25    1    1    2    0    0  0.00000000000E+00  0.00000000000E+00 -0.37125831722E+03  0.39173682251E+03  0.12500000000E+03 0.  0.
<mgrwt>
<rscale>  0 0.12500000E+03</rscale>
<asrwt>0</asrwt>
<pdfrwt beam="1">  1       21 0.15752698E-02 0.12500000E+03</pdfrwt>
<pdfrwt beam="2">  1       21 0.58691927E-01 0.12500000E+03</pdfrwt>
<totfact> 0.48594314E+06</totfact>
</mgrwt>
</event>
<event>
 3    1  0.1603864E-001  0.1250000E+03  0.7546771E-02  0.1235069E+00
         21   -1    0    0  502  501  0.00000000000E+00  0.00000000000E+00  0.16572559486E+04  0.16572559486E+04  0.00000000000E+00 0.  1.
         21   -1    0    0  501  502 -0.00000000000E+00 -0.00000000000E+00 -0.23570589705E+01  0.23570589705E+01  0.00000000000E+00 0.  1.
         25    1    1    2    0    0  0.00000000000E+00  0.00000000000E+00  0.16548988896E+04  0.16596130076E+04  0.12500000000E+03 0.  0.
<mgrwt>
<rscale>  0 0.12500000E+03</rscale>
<asrwt>0</asrwt>
<pdfrwt beam="1">  1       21 0.25496152E+00 0.12500000E+03</pdfrwt>
<pdfrwt beam="2">  1       21 0.36262578E-03 0.12500000E+03</pdfrwt>
<totfact> 0.11783135E+06</totfact>
</mgrwt>
</event>
<event>
 3    1  0.1603864E-001  0.1250000E+03  0.7546771E-02  0.1235069E+00
         21   -1    0    0  502  501  0.00000000000E+00  0.00000000000E+00  0.29227312798E+02  0.29227312798E+02  0.00000000000E+00 0. -1.
         21   -1    0    0  501  502 -0.00000000000E+00 -0.00000000000E+00 -0.13365067213E+03  0.13365067213E+03  0.00000000000E+00 0. -1.
         25    1    1    2    0    0  0.00000000000E+00  0.00000000000E+00 -0.10442335933E+03  0.16287798493E+03  0.12500000000E+03 0.  0.
<mgrwt>
<rscale>  0 0.12500000E+03</rscale>
<asrwt>0</asrwt>
<pdfrwt beam="1">  1       21 0.44965097E-02 0.12500000E+03</pdfrwt>
<pdfrwt beam="2">  1       21 0.20561642E-01 0.12500000E+03</pdfrwt>
<totfact> 0.69169536E+06</totfact>
</mgrwt>
</event>
<event>
 3    1  0.1603864E-001  0.1250000E+03  0.7546771E-02  0.1235069E+00
         21   -1    0    0  502  501  0.00000000000E+00  0.00000000000E+00  0.45516314079E+03  0.45516314079E+03  0.00000000000E+00 0.  1.
         21   -1    0    0  501  502 -0.00000000000E+00 -0.00000000000E+00 -0.85820877175E+01  0.85820877175E+01  0.00000000000E+00 0.  1.
         25    1    1    2    0    0  0.00000000000E+00  0.00000000000E+00  0.44658105307E+03  0.46374522851E+03  0.12500000000E+03 0.  0.
<mgrwt>
<rscale>  0 0.12500000E+03</rscale>
<asrwt>0</asrwt>
<pdfrwt beam="1">  1       21 0.70025080E-01 0.12500000E+03</pdfrwt>
<pdfrwt beam="2">  1       21 0.13203215E-02 0.12500000E+03</pdfrwt>
<totfact> 0.44081054E+06</totfact>
</mgrwt>
</event>
<event>
 3    1  0.1603864E-001  0.1250000E+03  0.7546771E-02  0.1235069E+00
         21   -1    0    0  502  501  0.00000000000E+00  0.00000000000E+00  0.37221006854E+01  0.37221006854E+01  0.00000000000E+00 0.  1.
         21   -1    0    0  501  502 -0.00000000000E+00 -0.00000000000E+00 -0.10494745656E+04  0.10494745656E+04  0.00000000000E+00 0.  1.
         25    1    1    2    0    0  0.00000000000E+00  0.00000000000E+00 -0.10457524649E+04  0.10531966663E+04  0.12500000000E+03 0.  0.
<mgrwt>
<rscale>  0 0.12500000E+03</rscale>
<asrwt>0</asrwt>
<pdfrwt beam="1">  1       21 0.57263002E-03 0.12500000E+03</pdfrwt>
<pdfrwt beam="2">  1       21 0.16145787E+00 0.12500000E+03</pdfrwt>
<totfact> 0.22323411E+06</totfact>
</mgrwt>
</event>
<event>
 3    1  0.1603864E-001  0.1250000E+03  0.7546771E-02  0.1235069E+00
         21   -1    0    0  502  501  0.00000000000E+00  0.00000000000E+00  0.33002940141E+03  0.33002940141E+03  0.00000000000E+00 0. -1.
         21   -1    0    0  501  502 -0.00000000000E+00 -0.00000000000E+00 -0.11836066675E+02  0.11836066675E+02  0.00000000000E+00 0. -1.
         25    1    1    2    0    0  0.00000000000E+00  0.00000000000E+00  0.31819333474E+03  0.34186546809E+03  0.12500000000E+03 0.  0.
<mgrwt>
<rscale>  0 0.12500000E+03</rscale>
<asrwt>0</asrwt>
<pdfrwt beam="1">  1       21 0.50773747E-01 0.12500000E+03</pdfrwt>
<pdfrwt beam="2">  1       21 0.18209336E-02 0.12500000E+03</pdfrwt>
<totfact> 0.52144861E+06</totfact>
</mgrwt>
</event>
<event>
 3    1  0.1603864E-001  0.1250000E+03  0.7546771E-02  0.1235069E+00
         21   -1    0    0  502  501  0.00000000000E+00  0.00000000000E+00  0.44324478444E+02  0.44324478444E+02  0.00000000000E+00 0.  1.
         21   -1    0    0  501  502 -0.00000000000E+00 -0.00000000000E+00 -0.88128504545E+02  0.88128504545E+02  0.00000000000E+00 0.  1.
         25    1    1    2    0    0  0.00000000000E+00  0.00000000000E+00 -0.43804026101E+02  0.13245298299E+03  0.12500000000E+03 0.  0.
<mgrwt>
<rscale>  0 0.12500000E+03</rscale>
<asrwt>0</asrwt>
<pdfrwt beam="1">  1       21 0.68191506E-02 0.12500000E+03</pdfrwt>
<pdfrwt beam="2">  1       21 0.13558231E-01 0.12500000E+03</pdfrwt>
<totfact> 0.73035532E+06</totfact>
</mgrwt>
</event>
<event>
 3    1  0.1603864E-001  0.1250000E+03  0.7546771E-02  0.1235069E+00
         21   -1    0    0  502  501  0.00000000000E+00  0.00000000000E+00  0.60923146479E+03  0.60923146479E+03  0.00000000000E+00 0. -1.
         21   -1    0    0  501  502 -0.00000000000E+00 -0.00000000000E+00 -0.64117666696E+01  0.64117666696E+01  0.00000000000E+00 0. -1.
         25    1    1    2    0    0  0.00000000000E+00  0.00000000000E+00  0.60281969812E+03  0.61564323146E+03  0.12500000000E+03 0.  0.
<mgrwt>
<rscale>  0 0.12500000E+03</rscale>
<asrwt>0</asrwt>
<pdfrwt beam="1">  1       21 0.93727873E-01 0.12500000E+03</pdfrwt>
<pdfrwt beam="2">  1       21 0.98642612E-03 0.12500000E+03</pdfrwt>
<totfact> 0.36394620E+06</totfact>
</mgrwt>
</event>
<event>
 3    1  0.1603864E-001  0.1250000E+03  0.7546771E-02  0.1235069E+00
         21   -1    0    0  502  501  0.00000000000E+00  0.00000000000E+00  0.28708925414E+02  0.28708925414E+02  0.00000000000E+00 0.  1.
         21   -1    0    0  501  502 -0.00000000000E+00 -0.00000000000E+00 -0.13606395724E+03  0.13606395724E+03  0.00000000000E+00 0.  1.
         25    1    1    2    0    0  0.00000000000E+00  0.00000000000E+00 -0.10735503183E+03  0.16477288266E+03  0.12500000000E+03 0.  0.
<mgrwt>
<rscale>  0 0.12500000E+03</rscale>
<asrwt>0</asrwt>
<pdfrwt beam="1">  1       21 0.44167578E-02 0.12500000E+03</pdfrwt>
<pdfrwt beam="2">  1       21 0.20932916E-01 0.12500000E+03</pdfrwt>
<totfact> 0.68940953E+06</totfact>
</mgrwt>
</event>
<event>
 3    1  0.1603864E-001  0.1250000E+03  0.7546771E-02  0.1235069E+00
         21   -1    0    0  502  501  0.00000000000E+00  0.00000000000E+00  0.13388780556E+03  0.13388780556E+03  0.00000000000E+00 0. -1.
         21   -1    0    0  501  502 -0.00000000000E+00 -0.00000000000E+00 -0.29175547269E+02  0.29175547269E+02  0.00000000000E+00 0. -1.
         25    1    1    2    0    0  0.00000000000E+00  0.00000000000E+00  0.10471225829E+03  0.16306335283E+03  0.12500000000E+03 0.  0.
<mgrwt>
<rscale>  0 0.12500000E+03</rscale>
<asrwt>0</asrwt>
<pdfrwt beam="1">  1       21 0.20598124E-01 0.12500000E+03</pdfrwt>
<pdfrwt beam="2">  1       21 0.44885458E-02 0.12500000E+03</pdfrwt>
<totfact> 0.69147111E+06</totfact>
</mgrwt>
</event>
<event>
 3    1  0.1603864E-001  0.1250000E+03  0.7546771E-02  0.1235069E+00
         21   -1    0    0  502  501  0.00000000000E+00  0.00000000000E+00  0.30114496639E+02  0.30114496639E+02  0.00000000000E+00 0.  1.
         21   -1    0    0  501  502 -0.00000000000E+00 -0.00000000000E+00 -0.12971327553E+03  0.12971327553E+03  0.00000000000E+00 0.  1.
         25    1    1    2    0    0  0.00000000000E+00  0.00000000000E+00 -0.99598778892E+02  0.15982777217E+03  0.12500000000E+03 0.  0.
<mgrwt>
<rscale>  0 0.12500000E+03</rscale>
<asrwt>0</asrwt>
<pdfrwt beam="1">  1       21 0.46329994E-02 0.12500000E+03</pdfrwt>
<pdfrwt beam="2">  1       21 0.19955889E-01 0.12500000E+03</pdfrwt>
<totfact> 0.69540546E+06</totfact>
</mgrwt>
</event>
<event>
 3    1  0.1603864E-001  0.1250000E+03  0.7546771E-02  0.1235069E+00
         21   -1    0    0  502  501  0.00000000000E+00  0.00000000000E+00  0.20629001057E+02  0.20629001057E+02  0.00000000000E+00 0. -1.
         21   -1    0    0  501  502 -0.00000000000E+00 -0.00000000000E+00 -0.18935720587E+03  0.18935720587E+03  0.00000000000E+00 0. -1.
         25    1    1    2    0    0  0.00000000000E+00  0.00000000000E+00 -0.16872820482E+03  0.20998620693E+03  0.12500000000E+03 0.  0.
<mgrwt>
<rscale>  0 0.12500000E+03</rscale>
<asrwt>0</asrwt>
<pdfrwt beam="1">  1       21 0.31736927E-02 0.12500000E+03</pdfrwt>
<pdfrwt beam="2">  1       21 0.29131876E-01 0.12500000E+03</pdfrwt>
<totfact> 0.63860988E+06</totfact>
</mgrwt>
</event>
<event>
 3    1  0.1603864E-001  0.1250000E+03  0.7546771E-02  0.1235069E+00
         21   -1    0    0  502  501  0.00000000000E+00  0.00000000000E+00  0.26554354129E+03  0.26554354129E+03  0.00000000000E+00 0.  1.
         21   -1    0    0  501  502 -0.00000000000E+00 -0.00000000000E+00 -0.14710393561E+02  0.14710393561E+02  0.00000000000E+00 0.  1.
         25    1    1    2    0    0  0.00000000000E+00  0.00000000000E+00  0.25083314773E+03  0.28025393485E+03  0.12500000000E+03 0.  0.
<mgrwt>
<rscale>  0 0.12500000E+03</rscale>
<asrwt>0</asrwt>
<pdfrwt beam="1">  1       21 0.40852849E-01 0.12500000E+03</pdfrwt>
<pdfrwt beam="2">  1       21 0.22631377E-02 0.12500000E+03</pdfrwt>
<totfact> 0.57138139E+06</totfact>
</mgrwt>
</event>
<event>
 3    1  0.1603864E-001  0.1250000E+03  0.7546771E-02  0.1235069E+00
         21   -1    0    0  502  501  0.00000000000E+00  0.00000000000E+00  0.14928127016E+03  0.14928127016E+03  0.00000000000E+00 0.  1.
         21   -1    0    0  501  502 -0.00000000000E+00 -0.00000000000E+00 -0.26167046916E+02  0.26167046916E+02  0.00000000000E+00 0.  1.
         25    1    1    2    0    0  0.00000000000E+00  0.00000000000E+00  0.12311422325E+03  0.17544831708E+03  0.12500000000E+03 0.  0.
<mgrwt>
<rscale>  0 0.12500000E+03</rscale>
<asrwt>0</asrwt>
<pdfrwt beam="1">  1       21 0.22966349E-01 0.12500000E+03</pdfrwt>
<pdfrwt beam="2">  1       21 0.40256996E-02 0.12500000E+03</pdfrwt>
<totfact> 0.67677566E+06</totfact>
</mgrwt>
</event>
<event>
 3    1  0.1603864E-001  0.1250000E+03  0.7546771E-02  0.1235069E+00
         21   -1    0    0  502  501  0.00000000000E+00  0.00000000000E+00  0.23988570065E+03  0.23988570065E+03  0.00000000000E+00 0.  1.
         21   -1    0    0  501  502 -0.00000000000E+00 -0.00000000000E+00 -0.16283796781E+02  0.16283796781E+02  0.00000000000E+00 0.  1.
         25    1    1    2    0    0  0.00000000000E+00  0.00000000000E+00  0.22360190386E+03  0.25616949743E+03  0.12500000000E+03 0.  0.
<mgrwt>
<rscale>  0 0.12500000E+03</rscale>
<asrwt>0</asrwt>
<pdfrwt beam="1">  1       21 0.36905490E-01 0.12500000E+03</pdfrwt>
<pdfrwt beam="2">  1       21 0.25051997E-02 0.12500000E+03</pdfrwt>
<totfact> 0.59302155E+06</totfact>
</mgrwt>
</event>
<event>
 3    1  0.1603864E-001  0.1250000E+03  0.7546771E-02  0.1235069E+00
         21   -1    0    0  502  501  0.00000000000E+00  0.00000000000E+00  0.75407172551E+02  0.75407172551E+02  0.00000000000E+00 0.  1.
         21   -1    0    0  501  502 -0.00000000000E+00 -0.00000000000E+00 -0.51802101416E+02  0.51802101416E+02  0.00000000000E+00 0.  1.
         25    1    1    2    0    0  0.00000000000E+00  0.00000000000E+00  0.23605071135E+02  0.12720927397E+03  0.12500000000E+03 0.  0.
<mgrwt>
<rscale>  0 0.12500000E+03</rscale>
<asrwt>0</asrwt>
<pdfrwt beam="1">  1       21 0.11601104E-01 0.12500000E+03</pdfrwt>
<pdfrwt beam="2">  1       21 0.79695540E-02 0.12500000E+03</pdfrwt>
<totfact> 0.73740674E+06</totfact>
</mgrwt>
</event>
<event>
 3    1  0.1603864E-001  0.1250000E+03  0.7546771E-02  0.1235069E+00
         21   -1    0    0  502  501  0.00000000000E+00  0.00000000000E+00  0.66581867951E+02  0.66581867951E+02  0.00000000000E+00 0. -1.
         21   -1    0    0  501  502 -0.00000000000E+00 -0.00000000000E+00 -0.58668375043E+02  0.58668375043E+02  0.00000000000E+00 0. -1.
         25    1    1    2    0    0  0.00000000000E+00  0.00000000000E+00  0.79134929077E+01  0.12525024299E+03  0.12500000000E+03 0.  0.
<mgrwt>
<rscale>  0 0.12500000E+03</rscale>
<asrwt>0</asrwt>
<pdfrwt beam="1">  1       21 0.10243364E-01 0.12500000E+03</pdfrwt>
<pdfrwt beam="2">  1       21 0.90259038E-02 0.12500000E+03</pdfrwt>
<totfact> 0.74009789E+06</totfact>
</mgrwt>
</event>
<event>
 3    1  0.1603864E-001  0.1250000E+03  0.7546771E-02  0.1235069E+00
         21   -1    0    0  502  501  0.00000000000E+00  0.00000000000E+00  0.55937010314E+02  0.55937010314E+02  0.00000000000E+00 0.  1.
         21   -1    0    0  501  502 -0.00000000000E+00 -0.00000000000E+00 -0.69833013564E+02  0.69833013564E+02  0.00000000000E+00 0.  1.
         25    1    1    2    0    0  0.00000000000E+00  0.00000000000E+00 -0.13896003249E+02  0.12577002388E+03  0.12500000000E+03 0.  0.
<mgrwt>
<rscale>  0 0.12500000E+03</rscale>
<asrwt>0</asrwt>
<pdfrwt beam="1">  1       21 0.86056939E-02 0.12500000E+03</pdfrwt>
<pdfrwt beam="2">  1       21 0.10743541E-01 0.12500000E+03</pdfrwt>
<totfact> 0.73937824E+06</totfact>
</mgrwt>
</event>
<event>
 3    1  0.1603864E-001  0.1250000E+03  0.7546771E-02  0.1235069E+00
         21   -1    0    0  502  501  0.00000000000E+00  0.00000000000E+00  0.11552897140E+02  0.11552897140E+02  0.00000000000E+00 0.  1.
         21   -1    0    0  501  502 -0.00000000000E+00 -0.00000000000E+00 -0.33811865134E+03  0.33811865134E+03  0.00000000000E+00 0.  1.
         25    1    1    2    0    0  0.00000000000E+00  0.00000000000E+00 -0.32656575420E+03  0.34967154848E+03  0.12500000000E+03 0.  0.
<mgrwt>
<rscale>  0 0.12500000E+03</rscale>
<asrwt>0</asrwt>
<pdfrwt beam="1">  1       21 0.17773688E-02 0.12500000E+03</pdfrwt>
<pdfrwt beam="2">  1       21 0.52018253E-01 0.12500000E+03</pdfrwt>
<totfact> 0.51562698E+06</totfact>
</mgrwt>
</event>
<event>
 3    1  0.1603864E-001  0.1250000E+03  0.7546771E-02  0.1235069E+00
         21   -1    0    0  502  501  0.00000000000E+00  0.00000000000E+00  0.22562982320E+03  0.22562982320E+03  0.00000000000E+00 0. -1.
         21   -1    0    0  501  502 -0.00000000000E+00 -0.00000000000E+00 -0.17312649297E+02  0.17312649297E+02  0.00000000000E+00 0. -1.
         25    1    1    2    0    0  0.00000000000E+00  0.00000000000E+00  0.20831717390E+03  0.24294247250E+03  0.12500000000E+03 0.  0.
<mgrwt>
<rscale>  0 0.12500000E+03</rscale>
<asrwt>0</asrwt>
<pdfrwt beam="1">  1       21 0.34712278E-01 0.12500000E+03</pdfrwt>
<pdfrwt beam="2">  1       21 0.26634847E-02 0.12500000E+03</pdfrwt>
<totfact> 0.60549084E+06</totfact>
</mgrwt>
</event>
<event>
 3    1  0.1603864E-001  0.1250000E+03  0.7546771E-02  0.1235069E+00
         21   -1    0    0  502  501  0.00000000000E+00  0.00000000000E+00  0.57278024646E+01  0.57278024646E+01  0.00000000000E+00 0. -1.
         21   -1    0    0  501  502 -0.00000000000E+00 -0.00000000000E+00 -0.68198057181E+03  0.68198057181E+03  0.00000000000E+00 0. -1.
         25    1    1    2    0    0  0.00000000000E+00  0.00000000000E+00 -0.67625276934E+03  0.68770837427E+03  0.12500000000E+03 0.  0.
<mgrwt>
<rscale>  0 0.12500000E+03</rscale>
<asrwt>0</asrwt>
<pdfrwt beam="1">  1       21 0.88120037E-03 0.12500000E+03</pdfrwt>
<pdfrwt beam="2">  1       21 0.10492009E+00 0.12500000E+03</pdfrwt>
<totfact> 0.33389435E+06</totfact>
</mgrwt>
</event>
<event>
 3    1  0.1603864E-001  0.1250000E+03  0.7546771E-02  0.1235069E+00
         21   -1    0    0  502  501  0.00000000000E+00  0.00000000000E+00  0.10401558899E+02  0.10401558899E+02  0.00000000000E+00 0.  1.
         21   -1    0    0  501  502 -0.00000000000E+00 -0.00000000000E+00 -0.37554466959E+03  0.37554466959E+03  0.00000000000E+00 0.  1.
         25    1    1    2    0    0  0.00000000000E+00  0.00000000000E+00 -0.36514311069E+03  0.38594622849E+03  0.12500000000E+03 0.  0.
<mgrwt>
<rscale>  0 0.12500000E+03</rscale>
<asrwt>0</asrwt>
<pdfrwt beam="1">  1       21 0.16002398E-02 0.12500000E+03</pdfrwt>
<pdfrwt beam="2">  1       21 0.57776103E-01 0.12500000E+03</pdfrwt>
<totfact> 0.48987708E+06</totfact>
</mgrwt>
</event>
<event>
 3    1  0.1603864E-001  0.1250000E+03  0.7546771E-02  0.1235069E+00
         21   -1    0    0  502  501  0.00000000000E+00  0.00000000000E+00  0.10408565829E+03  0.10408565829E+03  0.00000000000E+00 0. -1.
         21   -1    0    0  501  502 -0.00000000000E+00 -0.00000000000E+00 -0.37529185713E+02  0.37529185713E+02  0.00000000000E+00 0. -1.
         25    1    1    2    0    0  0.00000000000E+00  0.00000000000E+00  0.66556472578E+02  0.14161484400E+03  0.12500000000E+03 0.  0.
<mgrwt>
<rscale>  0 0.12500000E+03</rscale>
<asrwt>0</asrwt>
<pdfrwt beam="1">  1       21 0.16013178E-01 0.12500000E+03</pdfrwt>
<pdfrwt beam="2">  1       21 0.57737209E-02 0.12500000E+03</pdfrwt>
<totfact> 0.71829189E+06</totfact>
</mgrwt>
</event>
<event>
 3    1  0.1603864E-001  0.1250000E+03  0.7546771E-02  0.1235069E+00
         21   -1    0    0  502  501  0.00000000000E+00  0.00000000000E+00  0.18862949258E+03  0.18862949258E+03  0.00000000000E+00 0. -1.
         21   -1    0    0  501  502 -0.00000000000E+00 -0.00000000000E+00 -0.20708585633E+02  0.20708585633E+02  0.00000000000E+00 0. -1.
         25    1    1    2    0    0  0.00000000000E+00  0.00000000000E+00  0.16792090694E+03  0.20933807821E+03  0.12500000000E+03 0.  0.
<mgrwt>
<rscale>  0 0.12500000E+03</rscale>
<asrwt>0</asrwt>
<pdfrwt beam="1">  1       21 0.29019921E-01 0.12500000E+03</pdfrwt>
<pdfrwt beam="2">  1       21 0.31859364E-02 0.12500000E+03</pdfrwt>
<totfact> 0.63929245E+06</totfact>
</mgrwt>
</event>
<event>
 3    1  0.1603864E-001  0.1250000E+03  0.7546771E-02  0.1235069E+00
         21   -1    0    0  502  501  0.00000000000E+00  0.00000000000E+00  0.77238756613E+02  0.77238756613E+02  0.00000000000E+00 0.  1.
         21   -1    0    0  501  502 -0.00000000000E+00 -0.00000000000E+00 -0.50573703815E+02  0.50573703815E+02  0.00000000000E+00 0.  1.
         25    1    1    2    0    0  0.00000000000E+00  0.00000000000E+00  0.26665052798E+02  0.12781246043E+03  0.12500000000E+03 0.  0.
<mgrwt>
<rscale>  0 0.12500000E+03</rscale>
<asrwt>0</asrwt>
<pdfrwt beam="1">  1       21 0.11882886E-01 0.12500000E+03</pdfrwt>
<pdfrwt beam="2">  1       21 0.77805698E-02 0.12500000E+03</pdfrwt>
<totfact> 0.73658909E+06</totfact>
</mgrwt>
</event>
<event>
 3    1  0.1603864E-001  0.1250000E+03  0.7546771E-02  0.1235069E+00
         21   -1    0    0  502  501  0.00000000000E+00  0.00000000000E+00  0.77478910266E+02  0.77478910266E+02  0.00000000000E+00 0. -1.
         21   -1    0    0  501  502 -0.00000000000E+00 -0.00000000000E+00 -0.50416945548E+02  0.50416945548E+02  0.00000000000E+00 0. -1.
         25    1    1    2    0    0  0.00000000000E+00  0.00000000000E+00  0.27061964717E+02  0.12789585581E+03  0.12500000000E+03 0.  0.
<mgrwt>
<rscale>  0 0.12500000E+03</rscale>
<asrwt>0</asrwt>
<pdfrwt beam="1">  1       21 0.11919832E-01 0.12500000E+03</pdfrwt>
<pdfrwt beam="2">  1       21 0.77564532E-02 0.12500000E+03</pdfrwt>
<totfact> 0.73647632E+06</totfact>
</mgrwt>
</event>
<event>
 3    1  0.1603864E-001  0.1250000E+03  0.7546771E-02  0.1235069E+00
         21   -1    0    0  502  501  0.00000000000E+00  0.00000000000E+00  0.13760799718E+03  0.13760799718E+03  0.00000000000E+00 0. -1.
         21   -1    0    0  501  502 -0.00000000000E+00 -0.00000000000E+00 -0.28386794955E+02  0.28386794955E+02  0.00000000000E+00 0. -1.
         25    1    1    2    0    0  0.00000000000E+00  0.00000000000E+00  0.10922120222E+03  0.16599479213E+03  0.12500000000E+03 0.  0.
<mgrwt>
<rscale>  0 0.12500000E+03</rscale>
<asrwt>0</asrwt>
<pdfrwt beam="1">  1       21 0.21170461E-01 0.12500000E+03</pdfrwt>
<pdfrwt beam="2">  1       21 0.43671993E-02 0.12500000E+03</pdfrwt>
<totfact> 0.68794315E+06</totfact>
</mgrwt>
</event>
<event>
 3    1  0.1603864E-001  0.1250000E+03  0.7546771E-02  0.1235069E+00
         21   -1    0    0  502  501  0.00000000000E+00  0.00000000000E+00  0.17458647182E+03  0.17458647182E+03  0.00000000000E+00 0. -1.
         21   -1    0    0  501  502 -0.00000000000E+00 -0.00000000000E+00 -0.22374299448E+02  0.22374299448E+02  0.00000000000E+00 0. -1.
         25    1    1    2    0    0  0.00000000000E+00  0.00000000000E+00  0.15221217237E+03  0.19696077127E+03  0.12500000000E+03 0.  0.
<mgrwt>
<rscale>  0 0.12500000E+03</rscale>
<asrwt>0</asrwt>
<pdfrwt beam="1">  1       21 0.26859456E-01 0.12500000E+03</pdfrwt>
<pdfrwt beam="2">  1       21 0.34422000E-02 0.12500000E+03</pdfrwt>
<totfact> 0.65257059E+06</totfact>
</mgrwt>
</event>
<event>
 3    1  0.1603864E-001  0.1250000E+03  0.7546771E-02  0.1235069E+00
         21   -1    0    0  502  501  0.00000000000E+00  0.00000000000E+00  0.30963377009E+03  0.30963377009E+03  0.00000000000E+00 0. -1.
         21   -1    0    0  501  502 -0.00000000000E+00 -0.00000000000E+00 -0.12615710486E+02  0.12615710486E+02  0.00000000000E+00 0. -1.
         25    1    1    2    0    0  0.00000000000E+00  0.00000000000E+00  0.29701805960E+03  0.32224948057E+03  0.12500000000E+03 0.  0.
<mgrwt>
<rscale>  0 0.12500000E+03</rscale>
<asrwt>0</asrwt>
<pdfrwt beam="1">  1       21 0.47635959E-01 0.12500000E+03</pdfrwt>
<pdfrwt beam="2">  1       21 0.19408788E-02 0.12500000E+03</pdfrwt>
<totfact> 0.53655566E+06</totfact>
</mgrwt>
</event>
<event>
 3    1  0.1603864E-001  0.1250000E+03  0.7546771E-02  0.1235069E+00
         21   -1    0    0  502  501  0.00000000000E+00  0.00000000000E+00  0.57386261550E+01  0.57386261550E+01  0.00000000000E+00 0.  1.
         21   -1    0    0  501  502 -0.00000000000E+00 -0.00000000000E+00 -0.68069428021E+03  0.68069428021E+03  0.00000000000E+00 0.  1.
         25    1    1    2    0    0  0.00000000000E+00  0.00000000000E+00 -0.67495565406E+03  0.68643290637E+03  0.12500000000E+03 0.  0.
<mgrwt>
<rscale>  0 0.12500000E+03</rscale>
<asrwt>0</asrwt>
<pdfrwt beam="1">  1       21 0.88286579E-03 0.12500000E+03</pdfrwt>
<pdfrwt beam="2">  1       21 0.10472217E+00 0.12500000E+03</pdfrwt>
<totfact> 0.33439800E+06</totfact>
</mgrwt>
</event>
<event>
 3    1  0.1603864E-001  0.1250000E+03  0.7546771E-02  0.1235069E+00
         21   -1    0    0  502  501  0.00000000000E+00  0.00000000000E+00  0.88905459866E+02  0.88905459866E+02  0.00000000000E+00 0.  1.
         21   -1    0    0  501  502 -0.00000000000E+00 -0.00000000000E+00 -0.43937121588E+02  0.43937121588E+02  0.00000000000E+00 0.  1.
         25    1    1    2    0    0  0.00000000000E+00  0.00000000000E+00  0.44968338278E+02  0.13284258145E+03  0.12500000000E+03 0.  0.
<mgrwt>
<rscale>  0 0.12500000E+03</rscale>
<asrwt>0</asrwt>
<pdfrwt beam="1">  1       21 0.13677763E-01 0.12500000E+03</pdfrwt>
<pdfrwt beam="2">  1       21 0.67595572E-02 0.12500000E+03</pdfrwt>
<totfact> 0.72983426E+06</totfact>
</mgrwt>
</event>
<event>
 3    1  0.1603864E-001  0.1250000E+03  0.7546771E-02  0.1235069E+00
         21   -1    0    0  502  501  0.00000000000E+00  0.00000000000E+00  0.23515887683E+03  0.23515887683E+03  0.00000000000E+00 0. -1.
         21   -1    0    0  501  502 -0.00000000000E+00 -0.00000000000E+00 -0.16611110126E+02  0.16611110126E+02  0.00000000000E+00 0. -1.
         25    1    1    2    0    0  0.00000000000E+00  0.00000000000E+00  0.21854776670E+03  0.25176998695E+03  0.12500000000E+03 0.  0.
<mgrwt>
<rscale>  0 0.12500000E+03</rscale>
<asrwt>0</asrwt>
<pdfrwt beam="1">  1       21 0.36178286E-01 0.12500000E+03</pdfrwt>
<pdfrwt beam="2">  1       21 0.25555556E-02 0.12500000E+03</pdfrwt>
<totfact> 0.59711948E+06</totfact>
</mgrwt>
</event>
<event>
 3    1  0.1603864E-001  0.1250000E+03  0.7546771E-02  0.1235069E+00
         21   -1    0    0  502  501  0.00000000000E+00  0.00000000000E+00  0.67269456361E+01  0.67269456361E+01  0.00000000000E+00 0. -1.
         21   -1    0    0  501  502 -0.00000000000E+00 -0.00000000000E+00 -0.58068701775E+03  0.58068701775E+03  0.00000000000E+00 0. -1.
         25    1    1    2    0    0  0.00000000000E+00  0.00000000000E+00 -0.57396007211E+03  0.58741396339E+03  0.12500000000E+03 0.  0.
<mgrwt>
<rscale>  0 0.12500000E+03</rscale>
<asrwt>0</asrwt>
<pdfrwt beam="1">  1       21 0.10349147E-02 0.12500000E+03</pdfrwt>
<pdfrwt beam="2">  1       21 0.89336468E-01 0.12500000E+03</pdfrwt>
<totfact> 0.37668073E+06</totfact>
</mgrwt>
</event>
<event>
 3    1  0.1603864E-001  0.1250000E+03  0.7546771E-02  0.1235069E+00
         21   -1    0    0  502  501  0.00000000000E+00  0.00000000000E+00  0.36501686946E+03  0.36501686946E+03  0.00000000000E+00 0. -1.
         21   -1    0    0  501  502 -0.00000000000E+00 -0.00000000000E+00 -0.10701560193E+02  0.10701560193E+02  0.00000000000E+00 0. -1.
         25    1    1    2    0    0  0.00000000000E+00  0.00000000000E+00  0.35431530927E+03  0.37571842965E+03  0.12500000000E+03 0.  0.
<mgrwt>
<rscale>  0 0.12500000E+03</rscale>
<asrwt>0</asrwt>
<pdfrwt beam="1">  1       21 0.56156432E-01 0.12500000E+03</pdfrwt>
<pdfrwt beam="2">  1       21 0.16463942E-02 0.12500000E+03</pdfrwt>
<totfact> 0.49693357E+06</totfact>
</mgrwt>
</event>
<event>
 3    1  0.1603864E-001  0.1250000E+03  0.7546771E-02  0.1235069E+00
         21   -1    0    0  502  501  0.00000000000E+00  0.00000000000E+00  0.23731141949E+03  0.23731141949E+03  0.00000000000E+00 0. -1.
         21   -1    0    0  501  502 -0.00000000000E+00 -0.00000000000E+00 -0.16460438391E+02  0.16460438391E+02  0.00000000000E+00 0. -1.
         25    1    1    2    0    0  0.00000000000E+00  0.00000000000E+00  0.22085098110E+03  0.25377185788E+03  0.12500000000E+03 0.  0.
<mgrwt>
<rscale>  0 0.12500000E+03</rscale>
<asrwt>0</asrwt>
<pdfrwt beam="1">  1       21 0.36509447E-01 0.12500000E+03</pdfrwt>
<pdfrwt beam="2">  1       21 0.25323753E-02 0.12500000E+03</pdfrwt>
<totfact> 0.59524882E+06</totfact>
</mgrwt>
</event>
<event>
 3    1  0.1603864E-001  0.1250000E+03  0.7546771E-02  0.1235069E+00
         21   -1    0    0  502  501  0.00000000000E+00  0.00000000000E+00  0.75581558885E+03  0.75581558885E+03  0.00000000000E+00 0. -1.
         21   -1    0    0  501  502 -0.00000000000E+00 -0.00000000000E+00 -0.51682580481E+01  0.51682580481E+01  0.00000000000E+00 0. -1.
         25    1    1    2    0    0  0.00000000000E+00  0.00000000000E+00  0.75064733081E+03  0.76098384690E+03  0.12500000000E+03 0.  0.
<mgrwt>
<rscale>  0 0.12500000E+03</rscale>
<asrwt>0</asrwt>
<pdfrwt beam="1">  1       21 0.11627923E+00 0.12500000E+03</pdfrwt>
<pdfrwt beam="2">  1       21 0.79511722E-03 0.12500000E+03</pdfrwt>
<totfact> 0.30686278E+06</totfact>
</mgrwt>
</event>
<event>
 3    1  0.1603864E-001  0.1250000E+03  0.7546771E-02  0.1235069E+00
         21   -1    0    0  502  501  0.00000000000E+00  0.00000000000E+00  0.13746933697E+03  0.13746933697E+03  0.00000000000E+00 0.  1.
         21   -1    0    0  501  502 -0.00000000000E+00 -0.00000000000E+00 -0.28415427659E+02  0.28415427659E+02  0.00000000000E+00 0.  1.
         25    1    1    2    0    0  0.00000000000E+00  0.00000000000E+00  0.10905390931E+03  0.16588476463E+03  0.12500000000E+03 0.  0.
<mgrwt>
<rscale>  0 0.12500000E+03</rscale>
<asrwt>0</asrwt>
<pdfrwt beam="1">  1       21 0.21149128E-01 0.12500000E+03</pdfrwt>
<pdfrwt beam="2">  1       21 0.43716043E-02 0.12500000E+03</pdfrwt>
<totfact> 0.68807495E+06</totfact>
</mgrwt>
</event>
<event>
 3    1  0.1603864E-001  0.1250000E+03  0.7546771E-02  0.1235069E+00
         21   -1    0    0  502  501  0.00000000000E+00  0.00000000000E+00  0.38779887146E+02  0.38779887146E+02  0.00000000000E+00 0.  1.
         21   -1    0    0  501  502 -0.00000000000E+00 -0.00000000000E+00 -0.10072876141E+03  0.10072876141E+03  0.00000000000E+00 0.  1.
         25    1    1    2    0    0  0.00000000000E+00  0.00000000000E+00 -0.61948874268E+02  0.13950864856E+03  0.12500000000E+03 0.  0.
<mgrwt>
<rscale>  0 0.12500000E+03</rscale>
<asrwt>0</asrwt>
<pdfrwt beam="1">  1       21 0.59661366E-02 0.12500000E+03</pdfrwt>
<pdfrwt beam="2">  1       21 0.15496732E-01 0.12500000E+03</pdfrwt>
<totfact> 0.72103518E+06</totfact>
</mgrwt>
</event>
<event>
 3    1  0.1603864E-001  0.1250000E+03  0.7546771E-02  0.1235069E+00
         21   -1    0    0  502  501  0.00000000000E+00  0.00000000000E+00  0.51662146247E+02  0.51662146247E+02  0.00000000000E+00 0.  1.
         21   -1    0    0  501  502 -0.00000000000E+00 -0.00000000000E+00 -0.75611454106E+02  0.75611454106E+02  0.00000000000E+00 0.  1.
         25    1    1    2    0    0  0.00000000000E+00  0.00000000000E+00 -0.23949307859E+02  0.12727360035E+03  0.12500000000E+03 0.  0.
<mgrwt>
<rscale>  0 0.12500000E+03</rscale>
<asrwt>0</asrwt>
<pdfrwt beam="1">  1       21 0.79480225E-02 0.12500000E+03</pdfrwt>
<pdfrwt beam="2">  1       21 0.11632531E-01 0.12500000E+03</pdfrwt>
<totfact> 0.73731936E+06</totfact>
</mgrwt>
</event>
<event>
 3    1  0.1603864E-001  0.1250000E+03  0.7546771E-02  0.1235069E+00
         21   -1    0    0  502  501  0.00000000000E+00  0.00000000000E+00  0.11116698388E+03  0.11116698388E+03  0.00000000000E+00 0.  1.
         21   -1    0    0  501  502 -0.00000000000E+00 -0.00000000000E+00 -0.35138580393E+02  0.35138580393E+02  0.00000000000E+00 0.  1.
         25    1    1    2    0    0  0.00000000000E+00  0.00000000000E+00  0.76028403485E+02  0.14630556427E+03  0.12500000000E+03 0.  0.
<mgrwt>
<rscale>  0 0.12500000E+03</rscale>
<asrwt>0</asrwt>
<pdfrwt beam="1">  1       21 0.17102613E-01 0.12500000E+03</pdfrwt>
<pdfrwt beam="2">  1       21 0.54059355E-02 0.12500000E+03</pdfrwt>
<totfact> 0.71226435E+06</totfact>
</mgrwt>
</event>
<event>
 3    1  0.1603864E-001  0.1250000E+03  0.7546771E-02  0.1235069E+00
         21   -1    0    0  502  501  0.00000000000E+00  0.00000000000E+00  0.22690445226E+02  0.22690445226E+02  0.00000000000E+00 0.  1.
         21   -1    0    0  501  502 -0.00000000000E+00 -0.00000000000E+00 -0.17215396001E+03  0.17215396001E+03  0.00000000000E+00 0.  1.
         25    1    1    2    0    0  0.00000000000E+00  0.00000000000E+00 -0.14946351479E+03  0.19484440524E+03  0.12500000000E+03 0.  0.
<mgrwt>
<rscale>  0 0.12500000E+03</rscale>
<asrwt>0</asrwt>
<pdfrwt beam="1">  1       21 0.34908377E-02 0.12500000E+03</pdfrwt>
<pdfrwt beam="2">  1       21 0.26485225E-01 0.12500000E+03</pdfrwt>
<totfact> 0.65488055E+06</totfact>
</mgrwt>
</event>
<event>
 3    1  0.1603864E-001  0.1250000E+03  0.7546771E-02  0.1235069E+00
         21   -1    0    0  502  501  0.00000000000E+00  0.00000000000E+00  0.14999858095E+03  0.14999858095E+03  0.00000000000E+00 0.  1.
         21   -1    0    0  501  502 -0.00000000000E+00 -0.00000000000E+00 -0.26041913031E+02  0.26041913031E+02  0.00000000000E+00 0.  1.
         25    1    1    2    0    0  0.00000000000E+00  0.00000000000E+00  0.12395666792E+03  0.17604049399E+03  0.12500000000E+03 0.  0.
<mgrwt>
<rscale>  0 0.12500000E+03</rscale>
<asrwt>0</asrwt>
<pdfrwt beam="1">  1       21 0.23076704E-01 0.12500000E+03</pdfrwt>
<pdfrwt beam="2">  1       21 0.40064482E-02 0.12500000E+03</pdfrwt>
<totfact> 0.67608687E+06</totfact>
</mgrwt>
</event>
<event>
 3    1  0.1603864E-001  0.1250000E+03  0.7546771E-02  0.1235069E+00
         21   -1    0    0  502  501  0.00000000000E+00  0.00000000000E+00  0.10393529723E+02  0.10393529723E+02  0.00000000000E+00 0. -1.
         21   -1    0    0  501  502 -0.00000000000E+00 -0.00000000000E+00 -0.37583478417E+03  0.37583478417E+03  0.00000000000E+00 0. -1.
         25    1    1    2    0    0  0.00000000000E+00  0.00000000000E+00 -0.36544125444E+03  0.38622831389E+03  0.12500000000E+03 0.  0.
<mgrwt>
<rscale>  0 0.12500000E+03</rscale>
<asrwt>0</asrwt>
<pdfrwt beam="1">  1       21 0.15990043E-02 0.12500000E+03</pdfrwt>
<pdfrwt beam="2">  1       21 0.57820745E-01 0.12500000E+03</pdfrwt>
<totfact> 0.48968425E+06</totfact>
</mgrwt>
</event>
<event>
 3    1  0.1603864E-001  0.1250000E+03  0.7546771E-02  0.1235069E+00
         21   -1    0    0  502  501  0.00000000000E+00  0.00000000000E+00  0.81302432920E+02  0.81302432920E+02  0.00000000000E+00 0.  1.
         21   -1    0    0  501  502 -0.00000000000E+00 -0.00000000000E+00 -0.48045917689E+02  0.48045917689E+02  0.00000000000E+00 0.  1.
         25    1    1    2    0    0  0.00000000000E+00  0.00000000000E+00  0.33256515231E+02  0.12934835061E+03  0.12500000000E+03 0.  0.
<mgrwt>
<rscale>  0 0.12500000E+03</rscale>
<asrwt>0</asrwt>
<pdfrwt beam="1">  1       21 0.12508067E-01 0.12500000E+03</pdfrwt>
<pdfrwt beam="2">  1       21 0.73916797E-02 0.12500000E+03</pdfrwt>
<totfact> 0.73452139E+06</totfact>
</mgrwt>
</event>
<event>
 3    1  0.1603864E-001  0.1250000E+03  0.7546771E-02  0.1235069E+00
         21   -1    0    0  502  501  0.00000000000E+00  0.00000000000E+00  0.70228572584E+02  0.70228572584E+02  0.00000000000E+00 0. -1.
         21   -1    0    0  501  502 -0.00000000000E+00 -0.00000000000E+00 -0.55621947824E+02  0.55621947824E+02  0.00000000000E+00 0. -1.
         25    1    1    2    0    0  0.00000000000E+00  0.00000000000E+00  0.14606624761E+02  0.12585052041E+03  0.12500000000E+03 0.  0.
<mgrwt>
<rscale>  0 0.12500000E+03</rscale>
<asrwt>0</asrwt>
<pdfrwt beam="1">  1       21 0.10804396E-01 0.12500000E+03</pdfrwt>
<pdfrwt beam="2">  1       21 0.85572228E-02 0.12500000E+03</pdfrwt>
<totfact> 0.73926680E+06</totfact>
</mgrwt>
</event>
<event>
 3    1  0.1603864E-001  0.1250000E+03  0.7546771E-02  0.1235069E+00
         21   -1    0    0  502  501  0.00000000000E+00  0.00000000000E+00  0.19960077182E+04  0.19960077182E+04  0.00000000000E+00 0. -1.
         21   -1    0    0  501  502 -0.00000000000E+00 -0.00000000000E+00 -0.19570315106E+01  0.19570315106E+01  0.00000000000E+00 0. -1.
         25    1    1    2    0    0  0.00000000000E+00  0.00000000000E+00  0.19940506867E+04  0.19979647497E+04  0.12500000000E+03 0.  0.
<mgrwt>
<rscale>  0 0.12500000E+03</rscale>
<asrwt>0</asrwt>
<pdfrwt beam="1">  1       21 0.30707648E+00 0.12500000E+03</pdfrwt>
<pdfrwt beam="2">  1       21 0.30108337E-03 0.12500000E+03</pdfrwt>
<totfact> 0.79679068E+05</totfact>
</mgrwt>
</event>
<event>
 3    1  0.1603864E-001  0.1250000E+03  0.7546771E-02  0.1235069E+00
         21   -1    0    0  502  501  0.00000000000E+00  0.00000000000E+00  0.67384021765E+02  0.67384021765E+02  0.00000000000E+00 0. -1.
         21   -1    0    0  501  502 -0.00000000000E+00 -0.00000000000E+00 -0.57969974152E+02  0.57969974152E+02  0.00000000000E+00 0. -1.
         25    1    1    2    0    0  0.00000000000E+00  0.00000000000E+00  0.94140476124E+01  0.12535399592E+03  0.12500000000E+03 0.  0.
<mgrwt>
<rscale>  0 0.12500000E+03</rscale>
<asrwt>0</asrwt>
<pdfrwt beam="1">  1       21 0.10366773E-01 0.12500000E+03</pdfrwt>
<pdfrwt beam="2">  1       21 0.89184576E-02 0.12500000E+03</pdfrwt>
<totfact> 0.73995783E+06</totfact>
</mgrwt>
</event>
<event>
 3    1  0.1603864E-001  0.1250000E+03  0.7546771E-02  0.1235069E+00
         21   -1    0    0  502  501  0.00000000000E+00  0.00000000000E+00  0.68701682257E+01  0.68701682257E+01  0.00000000000E+00 0.  1.
         21   -1    0    0  501  502 -0.00000000000E+00 -0.00000000000E+00 -0.56858141922E+03  0.56858141922E+03  0.00000000000E+00 0.  1.
         25    1    1    2    0    0  0.00000000000E+00  0.00000000000E+00 -0.56171125099E+03  0.57545158744E+03  0.12500000000E+03 0.  0.
<mgrwt>
<rscale>  0 0.12500000E+03</rscale>
<asrwt>0</asrwt>
<pdfrwt beam="1">  1       21 0.10569492E-02 0.12500000E+03</pdfrwt>
<pdfrwt beam="2">  1       21 0.87474041E-01 0.12500000E+03</pdfrwt>
<totfact> 0.38226874E+06</totfact>
</mgrwt>
</event>
<event>
 3    1  0.1603864E-001  0.1250000E+03  0.7546771E-02  0.1235069E+00
         21   -1    0    0  502  501  0.00000000000E+00  0.00000000000E+00  0.31666197074E+02  0.31666197074E+02  0.00000000000E+00 0.  1.
         21   -1    0    0  501  502 -0.00000000000E+00 -0.00000000000E+00 -0.12335709245E+03  0.12335709245E+03  0.00000000000E+00 0.  1.
         25    1    1    2    0    0  0.00000000000E+00  0.00000000000E+00 -0.91690895376E+02  0.15502328952E+03  0.12500000000E+03 0.  0.
<mgrwt>
<rscale>  0 0.12500000E+03</rscale>
<asrwt>0</asrwt>
<pdfrwt beam="1">  1       21 0.48717226E-02 0.12500000E+03</pdfrwt>
<pdfrwt beam="2">  1       21 0.18978014E-01 0.12500000E+03</pdfrwt>
<totfact> 0.70132764E+06</totfact>
</mgrwt>
</event>
<event>
 3    1  0.1603864E-001  0.1250000E+03  0.7546771E-02  0.1235069E+00
         21   -1    0    0  502  501  0.00000000000E+00  0.00000000000E+00  0.27198912215E+03  0.27198912215E+03  0.00000000000E+00 0. -1.
         21   -1    0    0  501  502 -0.00000000000E+00 -0.00000000000E+00 -0.14361787594E+02  0.14361787594E+02  0.00000000000E+00 0. -1.
         25    1    1    2    0    0  0.00000000000E+00  0.00000000000E+00  0.25762733455E+03  0.28635090974E+03  0.12500000000E+03 0.  0.
<mgrwt>
<rscale>  0 0.12500000E+03</rscale>
<asrwt>0</asrwt>
<pdfrwt beam="1">  1       21 0.41844476E-01 0.12500000E+03</pdfrwt>
<pdfrwt beam="2">  1       21 0.22095060E-02 0.12500000E+03</pdfrwt>
<totfact> 0.56609892E+06</totfact>
</mgrwt>
</event>
<event>
 3    1  0.1603864E-001  0.1250000E+03  0.7546771E-02  0.1235069E+00
         21   -1    0    0  502  501  0.00000000000E+00  0.00000000000E+00  0.19468873961E+03  0.19468873961E+03  0.00000000000E+00 0.  1.
         21   -1    0    0  501  502 -0.00000000000E+00 -0.00000000000E+00 -0.20064077706E+02  0.20064077706E+02  0.00000000000E+00 0.  1.
         25    1    1    2    0    0  0.00000000000E+00  0.00000000000E+00  0.17462466191E+03  0.21475281732E+03  0.12500000000E+03 0.  0.
<mgrwt>
<rscale>  0 0.12500000E+03</rscale>
<asrwt>0</asrwt>
<pdfrwt beam="1">  1       21 0.29952112E-01 0.12500000E+03</pdfrwt>
<pdfrwt beam="2">  1       21 0.30867813E-02 0.12500000E+03</pdfrwt>
<totfact> 0.63362929E+06</totfact>
</mgrwt>
</event>
<event>
 3    1  0.1603864E-001  0.1250000E+03  0.7546771E-02  0.1235069E+00
         21   -1    0    0  502  501  0.00000000000E+00  0.00000000000E+00  0.19409321300E+02  0.19409321300E+02  0.00000000000E+00 0. -1.
         21   -1    0    0  501  502 -0.00000000000E+00 -0.00000000000E+00 -0.20125639323E+03  0.20125639323E+03  0.00000000000E+00 0. -1.
         25    1    1    2    0    0  0.00000000000E+00  0.00000000000E+00 -0.18184707193E+03  0.22066571453E+03  0.12500000000E+03 0.  0.
<mgrwt>
<rscale>  0 0.12500000E+03</rscale>
<asrwt>0</asrwt>
<pdfrwt beam="1">  1       21 0.29860493E-02 0.12500000E+03</pdfrwt>
<pdfrwt beam="2">  1       21 0.30962523E-01 0.12500000E+03</pdfrwt>
<totfact> 0.62754554E+06</totfact>
</mgrwt>
</event>
<event>
 3    1  0.1603864E-001  0.1250000E+03  0.7546771E-02  0.1235069E+00
         21   -1    0    0  502  501  0.00000000000E+00  0.00000000000E+00  0.97854285478E+02  0.97854285478E+02  0.00000000000E+00 0. -1.
         21   -1    0    0  501  502 -0.00000000000E+00 -0.00000000000E+00 -0.39919048828E+02  0.39919048828E+02  0.00000000000E+00 0. -1.
         25    1    1    2    0    0  0.00000000000E+00  0.00000000000E+00  0.57935236650E+02  0.13777333431E+03  0.12500000000E+03 0.  0.
<mgrwt>
<rscale>  0 0.12500000E+03</rscale>
<asrwt>0</asrwt>
<pdfrwt beam="1">  1       21 0.15054505E-01 0.12500000E+03</pdfrwt>
<pdfrwt beam="2">  1       21 0.61413921E-02 0.12500000E+03</pdfrwt>
<totfact> 0.72331303E+06</totfact>
</mgrwt>
</event>
<event>
 3    1  0.1603864E-001  0.1250000E+03  0.7546771E-02  0.1235069E+00
         21   -1    0    0  502  501  0.00000000000E+00  0.00000000000E+00  0.17328396852E+03  0.17328396852E+03  0.00000000000E+00 0. -1.
         21   -1    0    0  501  502 -0.00000000000E+00 -0.00000000000E+00 -0.22542477723E+02  0.22542477723E+02  0.00000000000E+00 0. -1.
         25    1    1    2    0    0  0.00000000000E+00  0.00000000000E+00  0.15074149079E+03  0.19582644624E+03  0.12500000000E+03 0.  0.
<mgrwt>
<rscale>  0 0.12500000E+03</rscale>
<asrwt>0</asrwt>
<pdfrwt beam="1">  1       21 0.26659071E-01 0.12500000E+03</pdfrwt>
<pdfrwt beam="2">  1       21 0.34680736E-02 0.12500000E+03</pdfrwt>
<totfact> 0.65380684E+06</totfact>
</mgrwt>
</event>
<event>
 3    1  0.1603864E-001  0.1250000E+03  0.7546771E-02  0.1235069E+00
         21   -1    0    0  502  501  0.00000000000E+00  0.00000000000E+00  0.15118100428E+02  0.15118100428E+02  0.00000000000E+00 0. -1.
         21   -1    0    0  501  502 -0.00000000000E+00 -0.00000000000E+00 -0.25838232909E+03  0.25838232909E+03  0.00000000000E+00 0. -1.
         25    1    1    2    0    0  0.00000000000E+00  0.00000000000E+00 -0.24326422866E+03  0.27350042951E+03  0.12500000000E+03 0.  0.
<mgrwt>
<rscale>  0 0.12500000E+03</rscale>
<asrwt>0</asrwt>
<pdfrwt beam="1">  1       21 0.23258616E-02 0.12500000E+03</pdfrwt>
<pdfrwt beam="2">  1       21 0.39751127E-01 0.12500000E+03</pdfrwt>
<totfact> 0.57732886E+06</totfact>
</mgrwt>
</event>
<event>
 3    1  0.1603864E-001  0.1250000E+03  0.7546771E-02  0.1235069E+00
         21   -1    0    0  502  501  0.00000000000E+00  0.00000000000E+00  0.17031447415E+02  0.17031447415E+02  0.00000000000E+00 0. -1.
         21   -1    0    0  501  502 -0.00000000000E+00 -0.00000000000E+00 -0.22935513963E+03  0.22935513963E+03  0.00000000000E+00 0. -1.
         25    1    1    2    0    0  0.00000000000E+00  0.00000000000E+00 -0.21232369221E+03  0.24638658704E+03  0.12500000000E+03 0.  0.
<mgrwt>
<rscale>  0 0.12500000E+03</rscale>
<asrwt>0</asrwt>
<pdfrwt beam="1">  1       21 0.26202229E-02 0.12500000E+03</pdfrwt>
<pdfrwt beam="2">  1       21 0.35285403E-01 0.12500000E+03</pdfrwt>
<totfact> 0.60220066E+06</totfact>
</mgrwt>
</event>
<event>
 3    1  0.1603864E-001  0.1250000E+03  0.7546771E-02  0.1235069E+00
         21   -1    0    0  502  501  0.00000000000E+00  0.00000000000E+00  0.28567133033E+03  0.28567133033E+03  0.00000000000E+00 0.  1.
         21   -1    0    0  501  502 -0.00000000000E+00 -0.00000000000E+00 -0.13673930791E+02  0.13673930791E+02  0.00000000000E+00 0.  1.
         25    1    1    2    0    0  0.00000000000E+00  0.00000000000E+00  0.27199739954E+03  0.29934526112E+03  0.12500000000E+03 0.  0.
<mgrwt>
<rscale>  0 0.12500000E+03</rscale>
<asrwt>0</asrwt>
<pdfrwt beam="1">  1       21 0.43949431E-01 0.12500000E+03</pdfrwt>
<pdfrwt beam="2">  1       21 0.21036819E-02 0.12500000E+03</pdfrwt>
<totfact> 0.55510631E+06</totfact>
</mgrwt>
</event>
<event>
 3    1  0.1603864E-001  0.1250000E+03  0.7546771E-02  0.1235069E+00
         21   -1    0    0  502  501  0.00000000000E+00  0.00000000000E+00  0.35602980649E+03  0.35602980649E+03  0.00000000000E+00 0. -1.
         21   -1    0    0  501  502 -0.00000000000E+00 -0.00000000000E+00 -0.10971693742E+02  0.10971693742E+02  0.00000000000E+00 0. -1.
         25    1    1    2    0    0  0.00000000000E+00  0.00000000000E+00  0.34505811275E+03  0.36700150023E+03  0.12500000000E+03 0.  0.
<mgrwt>
<rscale>  0 0.12500000E+03</rscale>
<asrwt>0</asrwt>
<pdfrwt beam="1">  1       21 0.54773807E-01 0.12500000E+03</pdfrwt>
<pdfrwt beam="2">  1       21 0.16879532E-02 0.12500000E+03</pdfrwt>
<totfact> 0.50306818E+06</totfact>
</mgrwt>
</event>
<event>
 3    1  0.1603864E-001  0.1250000E+03  0.7546771E-02  0.1235069E+00
         21   -1    0    0  502  501  0.00000000000E+00  0.00000000000E+00  0.15027428747E+03  0.15027428747E+03  0.00000000000E+00 0. -1.
         21   -1    0    0  501  502 -0.00000000000E+00 -0.00000000000E+00 -0.25994134232E+02  0.25994134232E+02  0.00000000000E+00 0. -1.
         25    1    1    2    0    0  0.00000000000E+00  0.00000000000E+00  0.12428015324E+03  0.17626842170E+03  0.12500000000E+03 0.  0.
<mgrwt>
<rscale>  0 0.12500000E+03</rscale>
<asrwt>0</asrwt>
<pdfrwt beam="1">  1       21 0.23119121E-01 0.12500000E+03</pdfrwt>
<pdfrwt beam="2">  1       21 0.39990977E-02 0.12500000E+03</pdfrwt>
<totfact> 0.67582211E+06</totfact>
</mgrwt>
</event>
<event>
 3    1  0.1603864E-001  0.1250000E+03  0.7546771E-02  0.1235069E+00
         21   -1    0    0  502  501  0.00000000000E+00  0.00000000000E+00  0.14097168432E+03  0.14097168432E+03  0.00000000000E+00 0. -1.
         21   -1    0    0  501  502 -0.00000000000E+00 -0.00000000000E+00 -0.27709465336E+02  0.27709465336E+02  0.00000000000E+00 0. -1.
         25    1    1    2    0    0  0.00000000000E+00  0.00000000000E+00  0.11326221898E+03  0.16868114965E+03  0.12500000000E+03 0.  0.
<mgrwt>
<rscale>  0 0.12500000E+03</rscale>
<asrwt>0</asrwt>
<pdfrwt beam="1">  1       21 0.21687951E-01 0.12500000E+03</pdfrwt>
<pdfrwt beam="2">  1       21 0.42629948E-02 0.12500000E+03</pdfrwt>
<totfact> 0.68474004E+06</totfact>
</mgrwt>
</event>
<event>
 3    1  0.1603864E-001  0.1250000E+03  0.7546771E-02  0.1235069E+00
         21   -1    0    0  502  501  0.00000000000E+00  0.00000000000E+00  0.13251461145E+02  0.13251461145E+02  0.00000000000E+00 0. -1.
         21   -1    0    0  501  502 -0.00000000000E+00 -0.00000000000E+00 -0.29477881399E+03  0.29477881399E+03  0.00000000000E+00 0. -1.
         25    1    1    2    0    0  0.00000000000E+00  0.00000000000E+00 -0.28152735284E+03  0.30803027513E+03  0.12500000000E+03 0.  0.
<mgrwt>
<rscale>  0 0.12500000E+03</rscale>
<asrwt>0</asrwt>
<pdfrwt beam="1">  1       21 0.20386865E-02 0.12500000E+03</pdfrwt>
<pdfrwt beam="2">  1       21 0.45350584E-01 0.12500000E+03</pdfrwt>
<totfact> 0.54795361E+06</totfact>
</mgrwt>
</event>
<event>
 3    1  0.1603864E-001  0.1250000E+03  0.7546771E-02  0.1235069E+00
         21   -1    0    0  502  501  0.00000000000E+00  0.00000000000E+00  0.32507897385E+02  0.32507897385E+02  0.00000000000E+00 0.  1.
         21   -1    0    0  501  502 -0.00000000000E+00 -0.00000000000E+00 -0.12016310848E+03  0.12016310848E+03  0.00000000000E+00 0.  1.
         25    1    1    2    0    0  0.00000000000E+00  0.00000000000E+00 -0.87655211096E+02  0.15267100587E+03  0.12500000000E+03 0.  0.
<mgrwt>
<rscale>  0 0.12500000E+03</rscale>
<asrwt>0</asrwt>
<pdfrwt beam="1">  1       21 0.50012149E-02 0.12500000E+03</pdfrwt>
<pdfrwt beam="2">  1       21 0.18486633E-01 0.12500000E+03</pdfrwt>
<totfact> 0.70425264E+06</totfact>
</mgrwt>
</event>
<event>
 3    1  0.1603864E-001  0.1250000E+03  0.7546771E-02  0.1235069E+00
         21   -1    0    0  502  501  0.00000000000E+00  0.00000000000E+00  0.30236201303E+03  0.30236201303E+03  0.00000000000E+00 0. -1.
         21   -1    0    0  501  502 -0.00000000000E+00 -0.00000000000E+00 -0.12919116264E+02  0.12919116264E+02  0.00000000000E+00 0. -1.
         25    1    1    2    0    0  0.00000000000E+00  0.00000000000E+00  0.28944289676E+03  0.31528112929E+03  0.12500000000E+03 0.  0.
<mgrwt>
<rscale>  0 0.12500000E+03</rscale>
<asrwt>0</asrwt>
<pdfrwt beam="1">  1       21 0.46517227E-01 0.12500000E+03</pdfrwt>
<pdfrwt beam="2">  1       21 0.19875566E-02 0.12500000E+03</pdfrwt>
<totfact> 0.54209423E+06</totfact>
</mgrwt>
</event>
<event>
 3    1  0.1603864E-001  0.1250000E+03  0.7546771E-02  0.1235069E+00
         21   -1    0    0  502  501  0.00000000000E+00  0.00000000000E+00  0.13337566683E+04  0.13337566683E+04  0.00000000000E+00 0. -1.
         21   -1    0    0  501  502 -0.00000000000E+00 -0.00000000000E+00 -0.29287576158E+01  0.29287576158E+01  0.00000000000E+00 0. -1.
         25    1    1    2    0    0  0.00000000000E+00  0.00000000000E+00  0.13308279107E+04  0.13366854260E+04  0.12500000000E+03 0.  0.
<mgrwt>
<rscale>  0 0.12500000E+03</rscale>
<asrwt>0</asrwt>
<pdfrwt beam="1">  1       21 0.20519285E+00 0.12500000E+03</pdfrwt>
<pdfrwt beam="2">  1       21 0.45057916E-03 0.12500000E+03</pdfrwt>
<totfact> 0.16606300E+06</totfact>
</mgrwt>
</event>
<event>
 3    1  0.1603864E-001  0.1250000E+03  0.7546771E-02  0.1235069E+00
         21   -1    0    0  502  501  0.00000000000E+00  0.00000000000E+00  0.15570215610E+02  0.15570215610E+02  0.00000000000E+00 0. -1.
         21   -1    0    0  501  502 -0.00000000000E+00 -0.00000000000E+00 -0.25087963441E+03  0.25087963441E+03  0.00000000000E+00 0. -1.
         25    1    1    2    0    0  0.00000000000E+00  0.00000000000E+00 -0.23530941880E+03  0.26644985002E+03  0.12500000000E+03 0.  0.
<mgrwt>
<rscale>  0 0.12500000E+03</rscale>
<asrwt>0</asrwt>
<pdfrwt beam="1">  1       21 0.23954179E-02 0.12500000E+03</pdfrwt>
<pdfrwt beam="2">  1       21 0.38596865E-01 0.12500000E+03</pdfrwt>
<totfact> 0.58363107E+06</totfact>
</mgrwt>
</event>
<event>
 3    1  0.1603864E-001  0.1250000E+03  0.7546771E-02  0.1235069E+00
         21   -1    0    0  502  501  0.00000000000E+00  0.00000000000E+00  0.41382749594E+02  0.41382749594E+02  0.00000000000E+00 0. -1.
         21   -1    0    0  501  502 -0.00000000000E+00 -0.00000000000E+00 -0.94393196158E+02  0.94393196158E+02  0.00000000000E+00 0. -1.
         25    1    1    2    0    0  0.00000000000E+00  0.00000000000E+00 -0.53010446563E+02  0.13577594575E+03  0.12500000000E+03 0.  0.
<mgrwt>
<rscale>  0 0.12500000E+03</rscale>
<asrwt>0</asrwt>
<pdfrwt beam="1">  1       21 0.63665769E-02 0.12500000E+03</pdfrwt>
<pdfrwt beam="2">  1       21 0.14522030E-01 0.12500000E+03</pdfrwt>
<totfact> 0.72593894E+06</totfact>
</mgrwt>
</event>
<event>
 3    1  0.1603864E-001  0.1250000E+03  0.7546771E-02  0.1235069E+00
         21   -1    0    0  502  501  0.00000000000E+00  0.00000000000E+00  0.62010032418E+02  0.62010032418E+02  0.00000000000E+00 0.  1.
         21   -1    0    0  501  502 -0.00000000000E+00 -0.00000000000E+00 -0.62993839024E+02  0.62993839024E+02  0.00000000000E+00 0.  1.
         25    1    1    2    0    0  0.00000000000E+00  0.00000000000E+00 -0.98380660678E+00  0.12500387144E+03  0.12500000000E+03 0.  0.
<mgrwt>
<rscale>  0 0.12500000E+03</rscale>
<asrwt>0</asrwt>
<pdfrwt beam="1">  1       21 0.95400050E-02 0.12500000E+03</pdfrwt>
<pdfrwt beam="2">  1       21 0.96913599E-02 0.12500000E+03</pdfrwt>
<totfact> 0.74043059E+06</totfact>
</mgrwt>
</event>
<event>
 3    1  0.1603864E-001  0.1250000E+03  0.7546771E-02  0.1235069E+00
         21   -1    0    0  502  501  0.00000000000E+00  0.00000000000E+00  0.11673624396E+04  0.11673624396E+04  0.00000000000E+00 0. -1.
         21   -1    0    0  501  502 -0.00000000000E+00 -0.00000000000E+00 -0.33462186786E+01  0.33462186786E+01  0.00000000000E+00 0. -1.
         25    1    1    2    0    0  0.00000000000E+00  0.00000000000E+00  0.11640162209E+04  0.11707086583E+04  0.12500000000E+03 0.  0.
<mgrwt>
<rscale>  0 0.12500000E+03</rscale>
<asrwt>0</asrwt>
<pdfrwt beam="1">  1       21 0.17959390E+00 0.12500000E+03</pdfrwt>
<pdfrwt beam="2">  1       21 0.51480380E-03 0.12500000E+03</pdfrwt>
<totfact> 0.19737110E+06</totfact>
</mgrwt>
</event>
<event>
 3    1  0.1603864E-001  0.1250000E+03  0.7546771E-02  0.1235069E+00
         21   -1    0    0  502  501  0.00000000000E+00  0.00000000000E+00  0.31516338320E+02  0.31516338320E+02  0.00000000000E+00 0. -1.
         21   -1    0    0  501  502 -0.00000000000E+00 -0.00000000000E+00 -0.12394364981E+03  0.12394364981E+03  0.00000000000E+00 0. -1.
         25    1    1    2    0    0  0.00000000000E+00  0.00000000000E+00 -0.92427311492E+02  0.15545998813E+03  0.12500000000E+03 0.  0.
<mgrwt>
<rscale>  0 0.12500000E+03</rscale>
<asrwt>0</asrwt>
<pdfrwt beam="1">  1       21 0.48486674E-02 0.12500000E+03</pdfrwt>
<pdfrwt beam="2">  1       21 0.19068254E-01 0.12500000E+03</pdfrwt>
<totfact> 0.70078533E+06</totfact>
</mgrwt>
</event>
<event>
 3    1  0.1603864E-001  0.1250000E+03  0.7546771E-02  0.1235069E+00
         21   -1    0    0  502  501  0.00000000000E+00  0.00000000000E+00  0.62887875222E+02  0.62887875222E+02  0.00000000000E+00 0. -1.
         21   -1    0    0  501  502 -0.00000000000E+00 -0.00000000000E+00 -0.62114517086E+02  0.62114517086E+02  0.00000000000E+00 0. -1.
         25    1    1    2    0    0  0.00000000000E+00  0.00000000000E+00  0.77335813634E+00  0.12500239231E+03  0.12500000000E+03 0.  0.
<mgrwt>
<rscale>  0 0.12500000E+03</rscale>
<asrwt>0</asrwt>
<pdfrwt beam="1">  1       21 0.96750577E-02 0.12500000E+03</pdfrwt>
<pdfrwt beam="2">  1       21 0.95560795E-02 0.12500000E+03</pdfrwt>
<totfact> 0.74043258E+06</totfact>
</mgrwt>
</event>
<event>
 3    1  0.1603864E-001  0.1250000E+03  0.7546771E-02  0.1235069E+00
         21   -1    0    0  502  501  0.00000000000E+00  0.00000000000E+00  0.13897772382E+02  0.13897772382E+02  0.00000000000E+00 0.  1.
         21   -1    0    0  501  502 -0.00000000000E+00 -0.00000000000E+00 -0.28107022425E+03  0.28107022425E+03  0.00000000000E+00 0.  1.
         25    1    1    2    0    0  0.00000000000E+00  0.00000000000E+00 -0.26717245187E+03  0.29496799663E+03  0.12500000000E+03 0.  0.
<mgrwt>
<rscale>  0 0.12500000E+03</rscale>
<asrwt>0</asrwt>
<pdfrwt beam="1">  1       21 0.21381190E-02 0.12500000E+03</pdfrwt>
<pdfrwt beam="2">  1       21 0.43241569E-01 0.12500000E+03</pdfrwt>
<totfact> 0.55876964E+06</totfact>
</mgrwt>
</event>
<event>
 3    1  0.1603864E-001  0.1250000E+03  0.7546771E-02  0.1235069E+00
         21   -1    0    0  502  501  0.00000000000E+00  0.00000000000E+00  0.17770440348E+03  0.17770440348E+03  0.00000000000E+00 0.  1.
         21   -1    0    0  501  502 -0.00000000000E+00 -0.00000000000E+00 -0.21981728778E+02  0.21981728778E+02  0.00000000000E+00 0.  1.
         25    1    1    2    0    0  0.00000000000E+00  0.00000000000E+00  0.15572267470E+03  0.19968613226E+03  0.12500000000E+03 0.  0.
<mgrwt>
<rscale>  0 0.12500000E+03</rscale>
<asrwt>0</asrwt>
<pdfrwt beam="1">  1       21 0.27339138E-01 0.12500000E+03</pdfrwt>
<pdfrwt beam="2">  1       21 0.33818045E-02 0.12500000E+03</pdfrwt>
<totfact> 0.64961278E+06</totfact>
</mgrwt>
</event>
<event>
 3    1  0.1603864E-001  0.1250000E+03  0.7546771E-02  0.1235069E+00
         21   -1    0    0  502  501  0.00000000000E+00  0.00000000000E+00  0.17401374816E+01  0.17401374816E+01  0.00000000000E+00 0.  1.
         21   -1    0    0  501  502 -0.00000000000E+00 -0.00000000000E+00 -0.22447938978E+04  0.22447938978E+04  0.00000000000E+00 0.  1.
         25    1    1    2    0    0  0.00000000000E+00  0.00000000000E+00 -0.22430537603E+04  0.22465340353E+04  0.12500000000E+03 0.  0.
<mgrwt>
<rscale>  0 0.12500000E+03</rscale>
<asrwt>0</asrwt>
<pdfrwt beam="1">  1       21 0.26771345E-03 0.12500000E+03</pdfrwt>
<pdfrwt beam="2">  1       21 0.34535292E+00 0.12500000E+03</pdfrwt>
<totfact> 0.57841872E+05</totfact>
</mgrwt>
</event>
<event>
 3    1  0.1603864E-001  0.1250000E+03  0.7546771E-02  0.1235069E+00
         21   -1    0    0  502  501  0.00000000000E+00  0.00000000000E+00  0.83676765063E+01  0.83676765063E+01  0.00000000000E+00 0.  1.
         21   -1    0    0  501  502 -0.00000000000E+00 -0.00000000000E+00 -0.46682612516E+03  0.46682612516E+03  0.00000000000E+00 0.  1.
         25    1    1    2    0    0  0.00000000000E+00  0.00000000000E+00 -0.45845844865E+03  0.47519380166E+03  0.12500000000E+03 0.  0.
<mgrwt>
<rscale>  0 0.12500000E+03</rscale>
<asrwt>0</asrwt>
<pdfrwt beam="1">  1       21 0.12873348E-02 0.12500000E+03</pdfrwt>
<pdfrwt beam="2">  1       21 0.71819406E-01 0.12500000E+03</pdfrwt>
<totfact> 0.43422124E+06</totfact>
</mgrwt>
</event>
<event>
 3    1  0.1603864E-001  0.1250000E+03  0.7546771E-02  0.1235069E+00
         21   -1    0    0  502  501  0.00000000000E+00  0.00000000000E+00  0.17727423501E+03  0.17727423501E+03  0.00000000000E+00 0. -1.
         21   -1    0    0  501  502 -0.00000000000E+00 -0.00000000000E+00 -0.22035068998E+02  0.22035068998E+02  0.00000000000E+00 0. -1.
         25    1    1    2    0    0  0.00000000000E+00  0.00000000000E+00  0.15523916601E+03  0.19930930401E+03  0.12500000000E+03 0.  0.
<mgrwt>
<rscale>  0 0.12500000E+03</rscale>
<asrwt>0</asrwt>
<pdfrwt beam="1">  1       21 0.27272958E-01 0.12500000E+03</pdfrwt>
<pdfrwt beam="2">  1       21 0.33900107E-02 0.12500000E+03</pdfrwt>
<totfact> 0.65002171E+06</totfact>
</mgrwt>
</event>
<event>
 3    1  0.1603864E-001  0.1250000E+03  0.7546771E-02  0.1235069E+00
         21   -1    0    0  502  501  0.00000000000E+00  0.00000000000E+00  0.30813837255E+02  0.30813837255E+02  0.00000000000E+00 0.  1.
         21   -1    0    0  501  502 -0.00000000000E+00 -0.00000000000E+00 -0.12676934611E+03  0.12676934611E+03  0.00000000000E+00 0.  1.
         25    1    1    2    0    0  0.00000000000E+00  0.00000000000E+00 -0.95955508858E+02  0.15758318337E+03  0.12500000000E+03 0.  0.
<mgrwt>
<rscale>  0 0.12500000E+03</rscale>
<asrwt>0</asrwt>
<pdfrwt beam="1">  1       21 0.47405903E-02 0.12500000E+03</pdfrwt>
<pdfrwt beam="2">  1       21 0.19502976E-01 0.12500000E+03</pdfrwt>
<totfact> 0.69816017E+06</totfact>
</mgrwt>
</event>
<event>
 3    1  0.1603864E-001  0.1250000E+03  0.7546771E-02  0.1235069E+00
         21   -1    0    0  502  501  0.00000000000E+00  0.00000000000E+00  0.19142204399E+03  0.19142204399E+03  0.00000000000E+00 0.  1.
         21   -1    0    0  501  502 -0.00000000000E+00 -0.00000000000E+00 -0.20406479414E+02  0.20406479414E+02  0.00000000000E+00 0.  1.
         25    1    1    2    0    0  0.00000000000E+00  0.00000000000E+00  0.17101556457E+03  0.21182852340E+03  0.12500000000E+03 0.  0.
<mgrwt>
<rscale>  0 0.12500000E+03</rscale>
<asrwt>0</asrwt>
<pdfrwt beam="1">  1       21 0.29449544E-01 0.12500000E+03</pdfrwt>
<pdfrwt beam="2">  1       21 0.31394585E-02 0.12500000E+03</pdfrwt>
<totfact> 0.63667667E+06</totfact>
</mgrwt>
</event>
<event>
 3    1  0.1603864E-001  0.1250000E+03  0.7546771E-02  0.1235069E+00
         21   -1    0    0  502  501  0.00000000000E+00  0.00000000000E+00  0.84095861608E+02  0.84095861608E+02  0.00000000000E+00 0. -1.
         21   -1    0    0  501  502 -0.00000000000E+00 -0.00000000000E+00 -0.46449967041E+02  0.46449967041E+02  0.00000000000E+00 0. -1.
         25    1    1    2    0    0  0.00000000000E+00  0.00000000000E+00  0.37645894567E+02  0.13054582865E+03  0.12500000000E+03 0.  0.
<mgrwt>
<rscale>  0 0.12500000E+03</rscale>
<asrwt>0</asrwt>
<pdfrwt beam="1">  1       21 0.12937825E-01 0.12500000E+03</pdfrwt>
<pdfrwt beam="2">  1       21 0.71461488E-02 0.12500000E+03</pdfrwt>
<totfact> 0.73291941E+06</totfact>
</mgrwt>
</event>
<event>
 3    1  0.1603864E-001  0.1250000E+03  0.7546771E-02  0.1235069E+00
         21   -1    0    0  502  501  0.00000000000E+00  0.00000000000E+00  0.24526295213E+03  0.24526295213E+03  0.00000000000E+00 0. -1.
         21   -1    0    0  501  502 -0.00000000000E+00 -0.00000000000E+00 -0.15926783748E+02  0.15926783748E+02  0.00000000000E+00 0. -1.
         25    1    1    2    0    0  0.00000000000E+00  0.00000000000E+00  0.22933616839E+03  0.26118973588E+03  0.12500000000E+03 0.  0.
<mgrwt>
<rscale>  0 0.12500000E+03</rscale>
<asrwt>0</asrwt>
<pdfrwt beam="1">  1       21 0.37732759E-01 0.12500000E+03</pdfrwt>
<pdfrwt beam="2">  1       21 0.24502746E-02 0.12500000E+03</pdfrwt>
<totfact> 0.58840398E+06</totfact>
</mgrwt>
</event>
<event>
 3    1  0.1603864E-001  0.1250000E+03  0.7546771E-02  0.1235069E+00
         21   -1    0    0  502  501  0.00000000000E+00  0.00000000000E+00  0.13553118578E+03  0.13553118578E+03  0.00000000000E+00 0.  1.
         21   -1    0    0  501  502 -0.00000000000E+00 -0.00000000000E+00 -0.28821779856E+02  0.28821779856E+02  0.00000000000E+00 0.  1.
         25    1    1    2    0    0  0.00000000000E+00  0.00000000000E+00  0.10670940592E+03  0.16435296563E+03  0.12500000000E+03 0.  0.
<mgrwt>
<rscale>  0 0.12500000E+03</rscale>
<asrwt>0</asrwt>
<pdfrwt beam="1">  1       21 0.20850951E-01 0.12500000E+03</pdfrwt>
<pdfrwt beam="2">  1       21 0.44341201E-02 0.12500000E+03</pdfrwt>
<totfact> 0.68991484E+06</totfact>
</mgrwt>
</event>
<event>
 3    1  0.1603864E-001  0.1250000E+03  0.7546771E-02  0.1235069E+00
         21   -1    0    0  502  501  0.00000000000E+00  0.00000000000E+00  0.12108721895E+02  0.12108721895E+02  0.00000000000E+00 0.  1.
         21   -1    0    0  501  502 -0.00000000000E+00 -0.00000000000E+00 -0.32259804411E+03  0.32259804411E+03  0.00000000000E+00 0.  1.
         25    1    1    2    0    0  0.00000000000E+00  0.00000000000E+00 -0.31048932221E+03  0.33470676600E+03  0.12500000000E+03 0.  0.
<mgrwt>
<rscale>  0 0.12500000E+03</rscale>
<asrwt>0</asrwt>
<pdfrwt beam="1">  1       21 0.18628803E-02 0.12500000E+03</pdfrwt>
<pdfrwt beam="2">  1       21 0.49630468E-01 0.12500000E+03</pdfrwt>
<totfact> 0.52688103E+06</totfact>
</mgrwt>
</event>
<event>
 3    1  0.1603864E-001  0.1250000E+03  0.7546771E-02  0.1235069E+00
         21   -1    0    0  502  501  0.00000000000E+00  0.00000000000E+00  0.58172592990E+03  0.58172592990E+03  0.00000000000E+00 0.  1.
         21   -1    0    0  501  502 -0.00000000000E+00 -0.00000000000E+00 -0.67149318935E+01  0.67149318935E+01  0.00000000000E+00 0.  1.
         25    1    1    2    0    0  0.00000000000E+00  0.00000000000E+00  0.57501099801E+03  0.58844086180E+03  0.12500000000E+03 0.  0.
<mgrwt>
<rscale>  0 0.12500000E+03</rscale>
<asrwt>0</asrwt>
<pdfrwt beam="1">  1       21 0.89496257E-01 0.12500000E+03</pdfrwt>
<pdfrwt beam="2">  1       21 0.10330669E-02 0.12500000E+03</pdfrwt>
<totfact> 0.37620661E+06</totfact>
</mgrwt>
</event>
<event>
 3    1  0.1603864E-001  0.1250000E+03  0.7546771E-02  0.1235069E+00
         21   -1    0    0  502  501  0.00000000000E+00  0.00000000000E+00  0.68250045146E+02  0.68250045146E+02  0.00000000000E+00 0. -1.
         21   -1    0    0  501  502 -0.00000000000E+00 -0.00000000000E+00 -0.57234394375E+02  0.57234394375E+02  0.00000000000E+00 0. -1.
         25    1    1    2    0    0  0.00000000000E+00  0.00000000000E+00  0.11015650772E+02  0.12548443952E+03  0.12500000000E+03 0.  0.
<mgrwt>
<rscale>  0 0.12500000E+03</rscale>
<asrwt>0</asrwt>
<pdfrwt beam="1">  1       21 0.10500007E-01 0.12500000E+03</pdfrwt>
<pdfrwt beam="2">  1       21 0.88052915E-02 0.12500000E+03</pdfrwt>
<totfact> 0.73977573E+06</totfact>
</mgrwt>
</event>
<event>
 3    1  0.1603864E-001  0.1250000E+03  0.7546771E-02  0.1235069E+00
         21   -1    0    0  502  501  0.00000000000E+00  0.00000000000E+00  0.12732039101E+03  0.12732039101E+03  0.00000000000E+00 0. -1.
         21   -1    0    0  501  502 -0.00000000000E+00 -0.00000000000E+00 -0.30680474423E+02  0.30680474423E+02  0.00000000000E+00 0. -1.
         25    1    1    2    0    0  0.00000000000E+00  0.00000000000E+00  0.96639916592E+02  0.15800086544E+03  0.12500000000E+03 0.  0.
<mgrwt>
<rscale>  0 0.12500000E+03</rscale>
<asrwt>0</asrwt>
<pdfrwt beam="1">  1       21 0.19587752E-01 0.12500000E+03</pdfrwt>
<pdfrwt beam="2">  1       21 0.47200731E-02 0.12500000E+03</pdfrwt>
<totfact> 0.69764597E+06</totfact>
</mgrwt>
</event>
<event>
 3    1  0.1603864E-001  0.1250000E+03  0.7546771E-02  0.1235069E+00
         21   -1    0    0  502  501  0.00000000000E+00  0.00000000000E+00  0.20288717506E+03  0.20288717506E+03  0.00000000000E+00 0. -1.
         21   -1    0    0  501  502 -0.00000000000E+00 -0.00000000000E+00 -0.19253311595E+02  0.19253311595E+02  0.00000000000E+00 0. -1.
         25    1    1    2    0    0  0.00000000000E+00  0.00000000000E+00  0.18363386346E+03  0.22214048665E+03  0.12500000000E+03 0.  0.
<mgrwt>
<rscale>  0 0.12500000E+03</rscale>
<asrwt>0</asrwt>
<pdfrwt beam="1">  1       21 0.31213410E-01 0.12500000E+03</pdfrwt>
<pdfrwt beam="2">  1       21 0.29620481E-02 0.12500000E+03</pdfrwt>
<totfact> 0.62604418E+06</totfact>
</mgrwt>
</event>
<event>
 3    1  0.1603864E-001  0.1250000E+03  0.7546771E-02  0.1235069E+00
         21   -1    0    0  502  501  0.00000000000E+00  0.00000000000E+00  0.13774193900E+03  0.13774193900E+03  0.00000000000E+00 0. -1.
         21   -1    0    0  501  502 -0.00000000000E+00 -0.00000000000E+00 -0.28359191314E+02  0.28359191314E+02  0.00000000000E+00 0. -1.
         25    1    1    2    0    0  0.00000000000E+00  0.00000000000E+00  0.10938274768E+03  0.16610113031E+03  0.12500000000E+03 0.  0.
<mgrwt>
<rscale>  0 0.12500000E+03</rscale>
<asrwt>0</asrwt>
<pdfrwt beam="1">  1       21 0.21191067E-01 0.12500000E+03</pdfrwt>
<pdfrwt beam="2">  1       21 0.43629526E-02 0.12500000E+03</pdfrwt>
<totfact> 0.68781582E+06</totfact>
</mgrwt>
</event>
<event>
 3    1  0.1603864E-001  0.1250000E+03  0.7546771E-02  0.1235069E+00
         21   -1    0    0  502  501  0.00000000000E+00  0.00000000000E+00  0.54113720909E+02  0.54113720909E+02  0.00000000000E+00 0.  1.
         21   -1    0    0  501  502 -0.00000000000E+00 -0.00000000000E+00 -0.72185943498E+02  0.72185943498E+02  0.00000000000E+00 0.  1.
         25    1    1    2    0    0  0.00000000000E+00  0.00000000000E+00 -0.18072222588E+02  0.12629966441E+03  0.12500000000E+03 0.  0.
<mgrwt>
<rscale>  0 0.12500000E+03</rscale>
<asrwt>0</asrwt>
<pdfrwt beam="1">  1       21 0.83251878E-02 0.12500000E+03</pdfrwt>
<pdfrwt beam="2">  1       21 0.11105530E-01 0.12500000E+03</pdfrwt>
<totfact> 0.73864825E+06</totfact>
</mgrwt>
</event>
<event>
 3    1  0.1603864E-001  0.1250000E+03  0.7546771E-02  0.1235069E+00
         21   -1    0    0  502  501  0.00000000000E+00  0.00000000000E+00  0.14903034152E+02  0.14903034152E+02  0.00000000000E+00 0. -1.
         21   -1    0    0  501  502 -0.00000000000E+00 -0.00000000000E+00 -0.26211105472E+03  0.26211105472E+03  0.00000000000E+00 0. -1.
         25    1    1    2    0    0  0.00000000000E+00  0.00000000000E+00 -0.24720802056E+03  0.27701408887E+03  0.12500000000E+03 0.  0.
<mgrwt>
<rscale>  0 0.12500000E+03</rscale>
<asrwt>0</asrwt>
<pdfrwt beam="1">  1       21 0.22927747E-02 0.12500000E+03</pdfrwt>
<pdfrwt beam="2">  1       21 0.40324773E-01 0.12500000E+03</pdfrwt>
<totfact> 0.57422179E+06</totfact>
</mgrwt>
</event>
<event>
 3    1  0.1603864E-001  0.1250000E+03  0.7546771E-02  0.1235069E+00
         21   -1    0    0  502  501  0.00000000000E+00  0.00000000000E+00  0.10435170224E+02  0.10435170224E+02  0.00000000000E+00 0. -1.
         21   -1    0    0  501  502 -0.00000000000E+00 -0.00000000000E+00 -0.37433505312E+03  0.37433505312E+03  0.00000000000E+00 0. -1.
         25    1    1    2    0    0  0.00000000000E+00  0.00000000000E+00 -0.36389988289E+03  0.38477022334E+03  0.12500000000E+03 0.  0.
<mgrwt>
<rscale>  0 0.12500000E+03</rscale>
<asrwt>0</asrwt>
<pdfrwt beam="1">  1       21 0.16054110E-02 0.12500000E+03</pdfrwt>
<pdfrwt beam="2">  1       21 0.57590000E-01 0.12500000E+03</pdfrwt>
<totfact> 0.49068209E+06</totfact>
</mgrwt>
</event>
<event>
 3    1  0.1603864E-001  0.1250000E+03  0.7546771E-02  0.1235069E+00
         21   -1    0    0  502  501  0.00000000000E+00  0.00000000000E+00  0.82075135476E+02  0.82075135476E+02  0.00000000000E+00 0. -1.
         21   -1    0    0  501  502 -0.00000000000E+00 -0.00000000000E+00 -0.47593585772E+02  0.47593585772E+02  0.00000000000E+00 0. -1.
         25    1    1    2    0    0  0.00000000000E+00  0.00000000000E+00  0.34481549704E+02  0.12966872125E+03  0.12500000000E+03 0.  0.
<mgrwt>
<rscale>  0 0.12500000E+03</rscale>
<asrwt>0</asrwt>
<pdfrwt beam="1">  1       21 0.12626944E-01 0.12500000E+03</pdfrwt>
<pdfrwt beam="2">  1       21 0.73220901E-02 0.12500000E+03</pdfrwt>
<totfact> 0.73409223E+06</totfact>
</mgrwt>
</event>
<event>
 3    1  0.1603864E-001  0.1250000E+03  0.7546771E-02  0.1235069E+00
         21   -1    0    0  502  501  0.00000000000E+00  0.00000000000E+00  0.20214057377E+03  0.20214057377E+03  0.00000000000E+00 0. -1.
         21   -1    0    0  501  502 -0.00000000000E+00 -0.00000000000E+00 -0.19324423233E+02  0.19324423233E+02  0.00000000000E+00 0. -1.
         25    1    1    2    0    0  0.00000000000E+00  0.00000000000E+00  0.18281615053E+03  0.22146499700E+03  0.12500000000E+03 0.  0.
<mgrwt>
<rscale>  0 0.12500000E+03</rscale>
<asrwt>0</asrwt>
<pdfrwt beam="1">  1       21 0.31098548E-01 0.12500000E+03</pdfrwt>
<pdfrwt beam="2">  1       21 0.29729883E-02 0.12500000E+03</pdfrwt>
<totfact> 0.62673107E+06</totfact>
</mgrwt>
</event>
<event>
 3    1  0.1603864E-001  0.1250000E+03  0.7546771E-02  0.1235069E+00
         21   -1    0    0  502  501  0.00000000000E+00  0.00000000000E+00  0.46079918663E+03  0.46079918663E+03  0.00000000000E+00 0.  1.
         21   -1    0    0  501  502 -0.00000000000E+00 -0.00000000000E+00 -0.84771199979E+01  0.84771199979E+01  0.00000000000E+00 0.  1.
         25    1    1    2    0    0  0.00000000000E+00  0.00000000000E+00  0.45232206664E+03  0.46927630663E+03  0.12500000000E+03 0.  0.
<mgrwt>
<rscale>  0 0.12500000E+03</rscale>
<asrwt>0</asrwt>
<pdfrwt beam="1">  1       21 0.70892163E-01 0.12500000E+03</pdfrwt>
<pdfrwt beam="2">  1       21 0.13041727E-02 0.12500000E+03</pdfrwt>
<totfact> 0.43760849E+06</totfact>
</mgrwt>
</event>
<event>
 3    1  0.1603864E-001  0.1250000E+03  0.7546771E-02  0.1235069E+00
         21   -1    0    0  502  501  0.00000000000E+00  0.00000000000E+00  0.41566133734E+02  0.41566133734E+02  0.00000000000E+00 0. -1.
         21   -1    0    0  501  502 -0.00000000000E+00 -0.00000000000E+00 -0.93976746189E+02  0.93976746189E+02  0.00000000000E+00 0. -1.
         25    1    1    2    0    0  0.00000000000E+00  0.00000000000E+00 -0.52410612454E+02  0.13554287992E+03  0.12500000000E+03 0.  0.
<mgrwt>
<rscale>  0 0.12500000E+03</rscale>
<asrwt>0</asrwt>
<pdfrwt beam="1">  1       21 0.63947898E-02 0.12500000E+03</pdfrwt>
<pdfrwt beam="2">  1       21 0.14457961E-01 0.12500000E+03</pdfrwt>
<totfact> 0.72624671E+06</totfact>
</mgrwt>
</event>
<event>
 3    1  0.1603864E-001  0.1250000E+03  0.7546771E-02  0.1235069E+00
         21   -1    0    0  502  501  0.00000000000E+00  0.00000000000E+00  0.18783144817E+02  0.18783144817E+02  0.00000000000E+00 0. -1.
         21   -1    0    0  501  502 -0.00000000000E+00 -0.00000000000E+00 -0.20796570745E+03  0.20796570745E+03  0.00000000000E+00 0. -1.
         25    1    1    2    0    0  0.00000000000E+00  0.00000000000E+00 -0.18918256263E+03  0.22674885226E+03  0.12500000000E+03 0.  0.
<mgrwt>
<rscale>  0 0.12500000E+03</rscale>
<asrwt>0</asrwt>
<pdfrwt beam="1">  1       21 0.28897147E-02 0.12500000E+03</pdfrwt>
<pdfrwt beam="2">  1       21 0.31994723E-01 0.12500000E+03</pdfrwt>
<totfact> 0.62139021E+06</totfact>
</mgrwt>
</event>
<event>
 3    1  0.1603864E-001  0.1250000E+03  0.7546771E-02  0.1235069E+00
         21   -1    0    0  502  501  0.00000000000E+00  0.00000000000E+00  0.63260892091E+02  0.63260892091E+02  0.00000000000E+00 0. -1.
         21   -1    0    0  501  502 -0.00000000000E+00 -0.00000000000E+00 -0.61748259800E+02  0.61748259800E+02  0.00000000000E+00 0. -1.
         25    1    1    2    0    0  0.00000000000E+00  0.00000000000E+00  0.15126322903E+01  0.12500915189E+03  0.12500000000E+03 0.  0.
<mgrwt>
<rscale>  0 0.12500000E+03</rscale>
<asrwt>0</asrwt>
<pdfrwt beam="1">  1       21 0.97324450E-02 0.12500000E+03</pdfrwt>
<pdfrwt beam="2">  1       21 0.94997322E-02 0.12500000E+03</pdfrwt>
<totfact> 0.74042345E+06</totfact>
</mgrwt>
</event>
<event>
 3    1  0.1603864E-001  0.1250000E+03  0.7546771E-02  0.1235069E+00
         21   -1    0    0  502  501  0.00000000000E+00  0.00000000000E+00  0.44121218997E+01  0.44121218997E+01  0.00000000000E+00 0.  1.
         21   -1    0    0  501  502 -0.00000000000E+00 -0.00000000000E+00 -0.88534498565E+03  0.88534498565E+03  0.00000000000E+00 0.  1.
         25    1    1    2    0    0  0.00000000000E+00  0.00000000000E+00 -0.88093286375E+03  0.88975710755E+03  0.12500000000E+03 0.  0.
<mgrwt>
<rscale>  0 0.12500000E+03</rscale>
<asrwt>0</asrwt>
<pdfrwt beam="1">  1       21 0.67878851E-03 0.12500000E+03</pdfrwt>
<pdfrwt beam="2">  1       21 0.13620682E+00 0.12500000E+03</pdfrwt>
<totfact> 0.26594268E+06</totfact>
</mgrwt>
</event>
<event>
 3    1  0.1603864E-001  0.1250000E+03  0.7546771E-02  0.1235069E+00
         21   -1    0    0  502  501  0.00000000000E+00  0.00000000000E+00  0.11563530116E+03  0.11563530116E+03  0.00000000000E+00 0. -1.
         21   -1    0    0  501  502 -0.00000000000E+00 -0.00000000000E+00 -0.33780774216E+02  0.33780774216E+02  0.00000000000E+00 0. -1.
         25    1    1    2    0    0  0.00000000000E+00  0.00000000000E+00  0.81854526949E+02  0.14941607538E+03  0.12500000000E+03 0.  0.
<mgrwt>
<rscale>  0 0.12500000E+03</rscale>
<asrwt>0</asrwt>
<pdfrwt beam="1">  1       21 0.17790046E-01 0.12500000E+03</pdfrwt>
<pdfrwt beam="2">  1       21 0.51970422E-02 0.12500000E+03</pdfrwt>
<totfact> 0.70832630E+06</totfact>
</mgrwt>
</event>
<event>
 3    1  0.1603864E-001  0.1250000E+03  0.7546771E-02  0.1235069E+00
         21   -1    0    0  502  501  0.00000000000E+00  0.00000000000E+00  0.12156398308E+04  0.12156398308E+04  0.00000000000E+00 0.  1.
         21   -1    0    0  501  502 -0.00000000000E+00 -0.00000000000E+00 -0.32133284063E+01  0.32133284063E+01  0.00000000000E+00 0.  1.
         25    1    1    2    0    0  0.00000000000E+00  0.00000000000E+00  0.12124265024E+04  0.12188531592E+04  0.12500000000E+03 0.  0.
<mgrwt>
<rscale>  0 0.12500000E+03</rscale>
<asrwt>0</asrwt>
<pdfrwt beam="1">  1       21 0.18702115E+00 0.12500000E+03</pdfrwt>
<pdfrwt beam="2">  1       21 0.49435919E-03 0.12500000E+03</pdfrwt>
<totfact> 0.18771717E+06</totfact>
</mgrwt>
</event>
<event>
 3    1  0.1603864E-001  0.1250000E+03  0.7546771E-02  0.1235069E+00
         21   -1    0    0  502  501  0.00000000000E+00  0.00000000000E+00  0.97011648216E+01  0.97011648216E+01  0.00000000000E+00 0. -1.
         21   -1    0    0  501  502 -0.00000000000E+00 -0.00000000000E+00 -0.40265783252E+03  0.40265783252E+03  0.00000000000E+00 0. -1.
         25    1    1    2    0    0  0.00000000000E+00  0.00000000000E+00 -0.39295666770E+03  0.41235899734E+03  0.12500000000E+03 0.  0.
<mgrwt>
<rscale>  0 0.12500000E+03</rscale>
<asrwt>0</asrwt>
<pdfrwt beam="1">  1       21 0.14924869E-02 0.12500000E+03</pdfrwt>
<pdfrwt beam="2">  1       21 0.61947359E-01 0.12500000E+03</pdfrwt>
<totfact> 0.47232252E+06</totfact>
</mgrwt>
</event>
<event>
 3    1  0.1603864E-001  0.1250000E+03  0.7546771E-02  0.1235069E+00
         21   -1    0    0  502  501  0.00000000000E+00  0.00000000000E+00  0.20925281239E+02  0.20925281239E+02  0.00000000000E+00 0.  1.
         21   -1    0    0  501  502 -0.00000000000E+00 -0.00000000000E+00 -0.18667610511E+03  0.18667610511E+03  0.00000000000E+00 0.  1.
         25    1    1    2    0    0  0.00000000000E+00  0.00000000000E+00 -0.16575082387E+03  0.20760138635E+03  0.12500000000E+03 0.  0.
<mgrwt>
<rscale>  0 0.12500000E+03</rscale>
<asrwt>0</asrwt>
<pdfrwt beam="1">  1       21 0.32192740E-02 0.12500000E+03</pdfrwt>
<pdfrwt beam="2">  1       21 0.28719401E-01 0.12500000E+03</pdfrwt>
<totfact> 0.64112784E+06</totfact>
</mgrwt>
</event>
<event>
 3    1  0.1603864E-001  0.1250000E+03  0.7546771E-02  0.1235069E+00
         21   -1    0    0  502  501  0.00000000000E+00  0.00000000000E+00  0.52407815689E+02  0.52407815689E+02  0.00000000000E+00 0.  1.
         21   -1    0    0  501  502 -0.00000000000E+00 -0.00000000000E+00 -0.74535638409E+02  0.74535638409E+02  0.00000000000E+00 0.  1.
         25    1    1    2    0    0  0.00000000000E+00  0.00000000000E+00 -0.22127822720E+02  0.12694345410E+03  0.12500000000E+03 0.  0.
<mgrwt>
<rscale>  0 0.12500000E+03</rscale>
<asrwt>0</asrwt>
<pdfrwt beam="1">  1       21 0.80627409E-02 0.12500000E+03</pdfrwt>
<pdfrwt beam="2">  1       21 0.11467021E-01 0.12500000E+03</pdfrwt>
<totfact> 0.73776836E+06</totfact>
</mgrwt>
</event>
<event>
 3    1  0.1603864E-001  0.1250000E+03  0.7546771E-02  0.1235069E+00
         21   -1    0    0  502  501  0.00000000000E+00  0.00000000000E+00  0.30238994051E+02  0.30238994051E+02  0.00000000000E+00 0.  1.
         21   -1    0    0  501  502 -0.00000000000E+00 -0.00000000000E+00 -0.12917923108E+03  0.12917923108E+03  0.00000000000E+00 0.  1.
         25    1    1    2    0    0  0.00000000000E+00  0.00000000000E+00 -0.98940237025E+02  0.15941822513E+03  0.12500000000E+03 0.  0.
<mgrwt>
<rscale>  0 0.12500000E+03</rscale>
<asrwt>0</asrwt>
<pdfrwt beam="1">  1       21 0.46521530E-02 0.12500000E+03</pdfrwt>
<pdfrwt beam="2">  1       21 0.19873728E-01 0.12500000E+03</pdfrwt>
<totfact> 0.69590652E+06</totfact>
</mgrwt>
</event>
<event>
 3    1  0.1603864E-001  0.1250000E+03  0.7546771E-02  0.1235069E+00
         21   -1    0    0  502  501  0.00000000000E+00  0.00000000000E+00  0.58245463531E+02  0.58245463531E+02  0.00000000000E+00 0. -1.
         21   -1    0    0  501  502 -0.00000000000E+00 -0.00000000000E+00 -0.67065308836E+02  0.67065308836E+02  0.00000000000E+00 0. -1.
         25    1    1    2    0    0  0.00000000000E+00  0.00000000000E+00 -0.88198453045E+01  0.12531077237E+03  0.12500000000E+03 0.  0.
<mgrwt>
<rscale>  0 0.12500000E+03</rscale>
<asrwt>0</asrwt>
<pdfrwt beam="1">  1       21 0.89608405E-02 0.12500000E+03</pdfrwt>
<pdfrwt beam="2">  1       21 0.10317740E-01 0.12500000E+03</pdfrwt>
<totfact> 0.74001617E+06</totfact>
</mgrwt>
</event>
<event>
 3    1  0.1603864E-001  0.1250000E+03  0.7546771E-02  0.1235069E+00
         21   -1    0    0  502  501  0.00000000000E+00  0.00000000000E+00  0.11353596561E+03  0.11353596561E+03  0.00000000000E+00 0. -1.
         21   -1    0    0  501  502 -0.00000000000E+00 -0.00000000000E+00 -0.34405397260E+02  0.34405397260E+02  0.00000000000E+00 0. -1.
         25    1    1    2    0    0  0.00000000000E+00  0.00000000000E+00  0.79130568347E+02  0.14794136287E+03  0.12500000000E+03 0.  0.
<mgrwt>
<rscale>  0 0.12500000E+03</rscale>
<asrwt>0</asrwt>
<pdfrwt beam="1">  1       21 0.17467072E-01 0.12500000E+03</pdfrwt>
<pdfrwt beam="2">  1       21 0.52931381E-02 0.12500000E+03</pdfrwt>
<totfact> 0.71018771E+06</totfact>
</mgrwt>
</event>
<event>
 3    1  0.1603864E-001  0.1250000E+03  0.7546771E-02  0.1235069E+00
         21   -1    0    0  502  501  0.00000000000E+00  0.00000000000E+00  0.47162548844E+02  0.47162548844E+02  0.00000000000E+00 0.  1.
         21   -1    0    0  501  502 -0.00000000000E+00 -0.00000000000E+00 -0.82825252150E+02  0.82825252150E+02  0.00000000000E+00 0.  1.
         25    1    1    2    0    0  0.00000000000E+00  0.00000000000E+00 -0.35662703306E+02  0.12998780099E+03  0.12500000000E+03 0.  0.
<mgrwt>
<rscale>  0 0.12500000E+03</rscale>
<asrwt>0</asrwt>
<pdfrwt beam="1">  1       21 0.72557768E-02 0.12500000E+03</pdfrwt>
<pdfrwt beam="2">  1       21 0.12742346E-01 0.12500000E+03</pdfrwt>
<totfact> 0.73366545E+06</totfact>
</mgrwt>
</event>
<event>
 3    1  0.1603864E-001  0.1250000E+03  0.7546771E-02  0.1235069E+00
         21   -1    0    0  502  501  0.00000000000E+00  0.00000000000E+00  0.10211832630E+04  0.10211832630E+04  0.00000000000E+00 0.  1.
         21   -1    0    0  501  502 -0.00000000000E+00 -0.00000000000E+00 -0.38252193721E+01  0.38252193721E+01  0.00000000000E+00 0.  1.
         25    1    1    2    0    0  0.00000000000E+00  0.00000000000E+00  0.10173580436E+04  0.10250084824E+04  0.12500000000E+03 0.  0.
<mgrwt>
<rscale>  0 0.12500000E+03</rscale>
<asrwt>0</asrwt>
<pdfrwt beam="1">  1       21 0.15710490E+00 0.12500000E+03</pdfrwt>
<pdfrwt beam="2">  1       21 0.58849610E-03 0.12500000E+03</pdfrwt>
<totfact> 0.23000604E+06</totfact>
</mgrwt>
</event>
<event>
 3    1  0.1603864E-001  0.1250000E+03  0.7546771E-02  0.1235069E+00
         21   -1    0    0  502  501  0.00000000000E+00  0.00000000000E+00  0.12667027527E+03  0.12667027527E+03  0.00000000000E+00 0. -1.
         21   -1    0    0  501  502 -0.00000000000E+00 -0.00000000000E+00 -0.30837937249E+02  0.30837937249E+02  0.00000000000E+00 0. -1.
         25    1    1    2    0    0  0.00000000000E+00  0.00000000000E+00  0.95832338017E+02  0.15750821252E+03  0.12500000000E+03 0.  0.
<mgrwt>
<rscale>  0 0.12500000E+03</rscale>
<asrwt>0</asrwt>
<pdfrwt beam="1">  1       21 0.19487734E-01 0.12500000E+03</pdfrwt>
<pdfrwt beam="2">  1       21 0.47442981E-02 0.12500000E+03</pdfrwt>
<totfact> 0.69825254E+06</totfact>
</mgrwt>
</event>
<event>
 3    1  0.1603864E-001  0.1250000E+03  0.7546771E-02  0.1235069E+00
         21   -1    0    0  502  501  0.00000000000E+00  0.00000000000E+00  0.10587500632E+03  0.10587500632E+03  0.00000000000E+00 0.  1.
         21   -1    0    0  501  502 -0.00000000000E+00 -0.00000000000E+00 -0.36894921056E+02  0.36894921056E+02  0.00000000000E+00 0.  1.
         25    1    1    2    0    0  0.00000000000E+00  0.00000000000E+00  0.68980085263E+02  0.14276992738E+03  0.12500000000E+03 0.  0.
<mgrwt>
<rscale>  0 0.12500000E+03</rscale>
<asrwt>0</asrwt>
<pdfrwt beam="1">  1       21 0.16288462E-01 0.12500000E+03</pdfrwt>
<pdfrwt beam="2">  1       21 0.56761417E-02 0.12500000E+03</pdfrwt>
<totfact> 0.71679731E+06</totfact>
</mgrwt>
</event>
<event>
 3    1  0.1603864E-001  0.1250000E+03  0.7546771E-02  0.1235069E+00
         21   -1    0    0  502  501  0.00000000000E+00  0.00000000000E+00  0.29904100367E+03  0.29904100367E+03  0.00000000000E+00 0. -1.
         21   -1    0    0  501  502 -0.00000000000E+00 -0.00000000000E+00 -0.13062589919E+02  0.13062589919E+02  0.00000000000E+00 0. -1.
         25    1    1    2    0    0  0.00000000000E+00  0.00000000000E+00  0.28597841375E+03  0.31210359359E+03  0.12500000000E+03 0.  0.
<mgrwt>
<rscale>  0 0.12500000E+03</rscale>
<asrwt>0</asrwt>
<pdfrwt beam="1">  1       21 0.46006303E-01 0.12500000E+03</pdfrwt>
<pdfrwt beam="2">  1       21 0.20096294E-02 0.12500000E+03</pdfrwt>
<totfact> 0.54465082E+06</totfact>
</mgrwt>
</event>
<event>
 3    1  0.1603864E-001  0.1250000E+03  0.7546771E-02  0.1235069E+00
         21   -1    0    0  502  501  0.00000000000E+00  0.00000000000E+00  0.15339331474E+04  0.15339331474E+04  0.00000000000E+00 0.  1.
         21   -1    0    0  501  502 -0.00000000000E+00 -0.00000000000E+00 -0.25465581773E+01  0.25465581773E+01  0.00000000000E+00 0.  1.
         25    1    1    2    0    0  0.00000000000E+00  0.00000000000E+00  0.15313865892E+04  0.15364797056E+04  0.12500000000E+03 0.  0.
<mgrwt>
<rscale>  0 0.12500000E+03</rscale>
<asrwt>0</asrwt>
<pdfrwt beam="1">  1       21 0.23598898E+00 0.12500000E+03</pdfrwt>
<pdfrwt beam="2">  1       21 0.39177941E-03 0.12500000E+03</pdfrwt>
<totfact> 0.13460493E+06</totfact>
</mgrwt>
</event>
<event>
 3    1  0.1603864E-001  0.1250000E+03  0.7546771E-02  0.1235069E+00
         21   -1    0    0  502  501  0.00000000000E+00  0.00000000000E+00  0.12839169866E+03  0.12839169866E+03  0.00000000000E+00 0. -1.
         21   -1    0    0  501  502 -0.00000000000E+00 -0.00000000000E+00 -0.30424474797E+02  0.30424474797E+02  0.00000000000E+00 0. -1.
         25    1    1    2    0    0  0.00000000000E+00  0.00000000000E+00  0.97967223862E+02  0.15881617346E+03  0.12500000000E+03 0.  0.
<mgrwt>
<rscale>  0 0.12500000E+03</rscale>
<asrwt>0</asrwt>
<pdfrwt beam="1">  1       21 0.19752569E-01 0.12500000E+03</pdfrwt>
<pdfrwt beam="2">  1       21 0.46806885E-02 0.12500000E+03</pdfrwt>
<totfact> 0.69664437E+06</totfact>
</mgrwt>
</event>
<event>
 3    1  0.1603864E-001  0.1250000E+03  0.7546771E-02  0.1235069E+00
         21   -1    0    0  502  501  0.00000000000E+00  0.00000000000E+00  0.63104387648E+02  0.63104387648E+02  0.00000000000E+00 0. -1.
         21   -1    0    0  501  502 -0.00000000000E+00 -0.00000000000E+00 -0.61901400926E+02  0.61901400926E+02  0.00000000000E+00 0. -1.
         25    1    1    2    0    0  0.00000000000E+00  0.00000000000E+00  0.12029867216E+01  0.12500578857E+03  0.12500000000E+03 0.  0.
<mgrwt>
<rscale>  0 0.12500000E+03</rscale>
<asrwt>0</asrwt>
<pdfrwt beam="1">  1       21 0.97083673E-02 0.12500000E+03</pdfrwt>
<pdfrwt beam="2">  1       21 0.95232925E-02 0.12500000E+03</pdfrwt>
<totfact> 0.74042800E+06</totfact>
</mgrwt>
</event>
<event>
 3    1  0.1603864E-001  0.1250000E+03  0.7546771E-02  0.1235069E+00
         21   -1    0    0  502  501  0.00000000000E+00  0.00000000000E+00  0.11412535027E+04  0.11412535027E+04  0.00000000000E+00 0. -1.
         21   -1    0    0  501  502 -0.00000000000E+00 -0.00000000000E+00 -0.34227715320E+01  0.34227715320E+01  0.00000000000E+00 0. -1.
         25    1    1    2    0    0  0.00000000000E+00  0.00000000000E+00  0.11378307312E+04  0.11446762743E+04  0.12500000000E+03 0.  0.
<mgrwt>
<rscale>  0 0.12500000E+03</rscale>
<asrwt>0</asrwt>
<pdfrwt beam="1">  1       21 0.17557716E+00 0.12500000E+03</pdfrwt>
<pdfrwt beam="2">  1       21 0.52658115E-03 0.12500000E+03</pdfrwt>
<totfact> 0.20281963E+06</totfact>
</mgrwt>
</event>
<event>
 3    1  0.1603864E-001  0.1250000E+03  0.7546771E-02  0.1235069E+00
         21   -1    0    0  502  501  0.00000000000E+00  0.00000000000E+00  0.47024422778E+02  0.47024422778E+02  0.00000000000E+00 0. -1.
         21   -1    0    0  501  502 -0.00000000000E+00 -0.00000000000E+00 -0.83068536927E+02  0.83068536927E+02  0.00000000000E+00 0. -1.
         25    1    1    2    0    0  0.00000000000E+00  0.00000000000E+00 -0.36044114149E+02  0.13009295970E+03  0.12500000000E+03 0.  0.
<mgrwt>
<rscale>  0 0.12500000E+03</rscale>
<asrwt>0</asrwt>
<pdfrwt beam="1">  1       21 0.72345266E-02 0.12500000E+03</pdfrwt>
<pdfrwt beam="2">  1       21 0.12779775E-01 0.12500000E+03</pdfrwt>
<totfact> 0.73352494E+06</totfact>
</mgrwt>
</event>
<event>
 3    1  0.1603864E-001  0.1250000E+03  0.7546771E-02  0.1235069E+00
         21   -1    0    0  502  501  0.00000000000E+00  0.00000000000E+00  0.12317671849E+04  0.12317671849E+04  0.00000000000E+00 0. -1.
         21   -1    0    0  501  502 -0.00000000000E+00 -0.00000000000E+00 -0.31712567502E+01  0.31712567502E+01  0.00000000000E+00 0. -1.
         25    1    1    2    0    0  0.00000000000E+00  0.00000000000E+00  0.12285959282E+04  0.12349384417E+04  0.12500000000E+03 0.  0.
<mgrwt>
<rscale>  0 0.12500000E+03</rscale>
<asrwt>0</asrwt>
<pdfrwt beam="1">  1       21 0.18950226E+00 0.12500000E+03</pdfrwt>
<pdfrwt beam="2">  1       21 0.48788664E-03 0.12500000E+03</pdfrwt>
<totfact> 0.18460794E+06</totfact>
</mgrwt>
</event>
<event>
 3    1  0.1603864E-001  0.1250000E+03  0.7546771E-02  0.1235069E+00
         21   -1    0    0  502  501  0.00000000000E+00  0.00000000000E+00  0.16464003712E+02  0.16464003712E+02  0.00000000000E+00 0. -1.
         21   -1    0    0  501  502 -0.00000000000E+00 -0.00000000000E+00 -0.23726002912E+03  0.23726002912E+03  0.00000000000E+00 0. -1.
         25    1    1    2    0    0  0.00000000000E+00  0.00000000000E+00 -0.22079602541E+03  0.25372403283E+03  0.12500000000E+03 0.  0.
<mgrwt>
<rscale>  0 0.12500000E+03</rscale>
<asrwt>0</asrwt>
<pdfrwt beam="1">  1       21 0.25329238E-02 0.12500000E+03</pdfrwt>
<pdfrwt beam="2">  1       21 0.36501540E-01 0.12500000E+03</pdfrwt>
<totfact> 0.59529339E+06</totfact>
</mgrwt>
</event>
<event>
 3    1  0.1603864E-001  0.1250000E+03  0.7546771E-02  0.1235069E+00
         21   -1    0    0  502  501  0.00000000000E+00  0.00000000000E+00  0.86176658566E+01  0.86176658566E+01  0.00000000000E+00 0.  1.
         21   -1    0    0  501  502 -0.00000000000E+00 -0.00000000000E+00 -0.45328399418E+03  0.45328399418E+03  0.00000000000E+00 0.  1.
         25    1    1    2    0    0  0.00000000000E+00  0.00000000000E+00 -0.44466632832E+03  0.46190166004E+03  0.12500000000E+03 0.  0.
<mgrwt>
<rscale>  0 0.12500000E+03</rscale>
<asrwt>0</asrwt>
<pdfrwt beam="1">  1       21 0.13257946E-02 0.12500000E+03</pdfrwt>
<pdfrwt beam="2">  1       21 0.69736007E-01 0.12500000E+03</pdfrwt>
<totfact> 0.44188557E+06</totfact>
</mgrwt>
</event>
<event>
 3    1  0.1603864E-001  0.1250000E+03  0.7546771E-02  0.1235069E+00
         21   -1    0    0  502  501  0.00000000000E+00  0.00000000000E+00  0.15033076031E+02  0.15033076031E+02  0.00000000000E+00 0. -1.
         21   -1    0    0  501  502 -0.00000000000E+00 -0.00000000000E+00 -0.25984369347E+03  0.25984369347E+03  0.00000000000E+00 0. -1.
         25    1    1    2    0    0  0.00000000000E+00  0.00000000000E+00 -0.24481061744E+03  0.27487676950E+03  0.12500000000E+03 0.  0.
<mgrwt>
<rscale>  0 0.12500000E+03</rscale>
<asrwt>0</asrwt>
<pdfrwt beam="1">  1       21 0.23127808E-02 0.12500000E+03</pdfrwt>
<pdfrwt beam="2">  1       21 0.39975954E-01 0.12500000E+03</pdfrwt>
<totfact> 0.57610844E+06</totfact>
</mgrwt>
</event>
<event>
 3    1  0.1603864E-001  0.1250000E+03  0.7546771E-02  0.1235069E+00
         21   -1    0    0  502  501  0.00000000000E+00  0.00000000000E+00  0.14570248378E+02  0.14570248378E+02  0.00000000000E+00 0. -1.
         21   -1    0    0  501  502 -0.00000000000E+00 -0.00000000000E+00 -0.26809769461E+03  0.26809769461E+03  0.00000000000E+00 0. -1.
         25    1    1    2    0    0  0.00000000000E+00  0.00000000000E+00 -0.25352744623E+03  0.28266794299E+03  0.12500000000E+03 0.  0.
<mgrwt>
<rscale>  0 0.12500000E+03</rscale>
<asrwt>0</asrwt>
<pdfrwt beam="1">  1       21 0.22415767E-02 0.12500000E+03</pdfrwt>
<pdfrwt beam="2">  1       21 0.41245798E-01 0.12500000E+03</pdfrwt>
<totfact> 0.56928012E+06</totfact>
</mgrwt>
</event>
<event>
 3    1  0.1603864E-001  0.1250000E+03  0.7546771E-02  0.1235069E+00
         21   -1    0    0  502  501  0.00000000000E+00  0.00000000000E+00  0.23472420282E+03  0.23472420282E+03  0.00000000000E+00 0. -1.
         21   -1    0    0  501  502 -0.00000000000E+00 -0.00000000000E+00 -0.16641871409E+02  0.16641871409E+02  0.00000000000E+00 0. -1.
         25    1    1    2    0    0  0.00000000000E+00  0.00000000000E+00  0.21808233141E+03  0.25136607423E+03  0.12500000000E+03 0.  0.
<mgrwt>
<rscale>  0 0.12500000E+03</rscale>
<asrwt>0</asrwt>
<pdfrwt beam="1">  1       21 0.36111413E-01 0.12500000E+03</pdfrwt>
<pdfrwt beam="2">  1       21 0.25602881E-02 0.12500000E+03</pdfrwt>
<totfact> 0.59749814E+06</totfact>
</mgrwt>
</event>
<event>
 3    1  0.1603864E-001  0.1250000E+03  0.7546771E-02  0.1235069E+00
         21   -1    0    0  502  501  0.00000000000E+00  0.00000000000E+00  0.12191917255E+04  0.12191917255E+04  0.00000000000E+00 0.  1.
         21   -1    0    0  501  502 -0.00000000000E+00 -0.00000000000E+00 -0.32039669547E+01  0.32039669547E+01  0.00000000000E+00 0.  1.
         25    1    1    2    0    0  0.00000000000E+00  0.00000000000E+00  0.12159877586E+04  0.12223956925E+04  0.12500000000E+03 0.  0.
<mgrwt>
<rscale>  0 0.12500000E+03</rscale>
<asrwt>0</asrwt>
<pdfrwt beam="1">  1       21 0.18756759E+00 0.12500000E+03</pdfrwt>
<pdfrwt beam="2">  1       21 0.49291897E-03 0.12500000E+03</pdfrwt>
<totfact> 0.18702759E+06</totfact>
</mgrwt>
</event>
<event>
 3    1  0.1603864E-001  0.1250000E+03  0.7546771E-02  0.1235069E+00
         21   -1    0    0  502  501  0.00000000000E+00  0.00000000000E+00  0.61283868833E+02  0.61283868833E+02  0.00000000000E+00 0. -1.
         21   -1    0    0  501  502 -0.00000000000E+00 -0.00000000000E+00 -0.63740264353E+02  0.63740264353E+02  0.00000000000E+00 0. -1.
         25    1    1    2    0    0  0.00000000000E+00  0.00000000000E+00 -0.24563955202E+01  0.12502413319E+03  0.12500000000E+03 0.  0.
<mgrwt>
<rscale>  0 0.12500000E+03</rscale>
<asrwt>0</asrwt>
<pdfrwt beam="1">  1       21 0.94282876E-02 0.12500000E+03</pdfrwt>
<pdfrwt beam="2">  1       21 0.98061945E-02 0.12500000E+03</pdfrwt>
<totfact> 0.74040322E+06</totfact>
</mgrwt>
</event>
<event>
 3    1  0.1603864E-001  0.1250000E+03  0.7546771E-02  0.1235069E+00
         21   -1    0    0  502  501  0.00000000000E+00  0.00000000000E+00  0.15296375960E+03  0.15296375960E+03  0.00000000000E+00 0. -1.
         21   -1    0    0  501  502 -0.00000000000E+00 -0.00000000000E+00 -0.25537094605E+02  0.25537094605E+02  0.00000000000E+00 0. -1.
         25    1    1    2    0    0  0.00000000000E+00  0.00000000000E+00  0.12742666499E+03  0.17850085420E+03  0.12500000000E+03 0.  0.
<mgrwt>
<rscale>  0 0.12500000E+03</rscale>
<asrwt>0</asrwt>
<pdfrwt beam="1">  1       21 0.23532886E-01 0.12500000E+03</pdfrwt>
<pdfrwt beam="2">  1       21 0.39287839E-02 0.12500000E+03</pdfrwt>
<totfact> 0.67323931E+06</totfact>
</mgrwt>
</event>
<event>
 3    1  0.1603864E-001  0.1250000E+03  0.7546771E-02  0.1235069E+00
         21   -1    0    0  502  501  0.00000000000E+00  0.00000000000E+00  0.14127979865E+03  0.14127979865E+03  0.00000000000E+00 0.  1.
         21   -1    0    0  501  502 -0.00000000000E+00 -0.00000000000E+00 -0.27649034309E+02  0.27649034309E+02  0.00000000000E+00 0.  1.
         25    1    1    2    0    0  0.00000000000E+00  0.00000000000E+00  0.11363076434E+03  0.16892883296E+03  0.12500000000E+03 0.  0.
<mgrwt>
<rscale>  0 0.12500000E+03</rscale>
<asrwt>0</asrwt>
<pdfrwt beam="1">  1       21 0.21735353E-01 0.12500000E+03</pdfrwt>
<pdfrwt beam="2">  1       21 0.42536977E-02 0.12500000E+03</pdfrwt>
<totfact> 0.68444613E+06</totfact>
</mgrwt>
</event>
<event>
 3    1  0.1603864E-001  0.1250000E+03  0.7546771E-02  0.1235069E+00
         21   -1    0    0  502  501  0.00000000000E+00  0.00000000000E+00  0.17023639469E+03  0.17023639469E+03  0.00000000000E+00 0. -1.
         21   -1    0    0  501  502 -0.00000000000E+00 -0.00000000000E+00 -0.22946033409E+02  0.22946033409E+02  0.00000000000E+00 0. -1.
         25    1    1    2    0    0  0.00000000000E+00  0.00000000000E+00  0.14729036128E+03  0.19318242810E+03  0.12500000000E+03 0.  0.
<mgrwt>
<rscale>  0 0.12500000E+03</rscale>
<asrwt>0</asrwt>
<pdfrwt beam="1">  1       21 0.26190214E-01 0.12500000E+03</pdfrwt>
<pdfrwt beam="2">  1       21 0.35301591E-02 0.12500000E+03</pdfrwt>
<totfact> 0.65670502E+06</totfact>
</mgrwt>
</event>
<event>
 3    1  0.1603864E-001  0.1250000E+03  0.7546771E-02  0.1235069E+00
         21   -1    0    0  502  501  0.00000000000E+00  0.00000000000E+00  0.12532553396E+03  0.12532553396E+03  0.00000000000E+00 0. -1.
         21   -1    0    0  501  502 -0.00000000000E+00 -0.00000000000E+00 -0.31168827905E+02  0.31168827905E+02  0.00000000000E+00 0. -1.
         25    1    1    2    0    0  0.00000000000E+00  0.00000000000E+00  0.94156706054E+02  0.15649436186E+03  0.12500000000E+03 0.  0.
<mgrwt>
<rscale>  0 0.12500000E+03</rscale>
<asrwt>0</asrwt>
<pdfrwt beam="1">  1       21 0.19280851E-01 0.12500000E+03</pdfrwt>
<pdfrwt beam="2">  1       21 0.47952044E-02 0.12500000E+03</pdfrwt>
<totfact> 0.69950404E+06</totfact>
</mgrwt>
</event>
<event>
 3    1  0.1603864E-001  0.1250000E+03  0.7546771E-02  0.1235069E+00
         21   -1    0    0  502  501  0.00000000000E+00  0.00000000000E+00  0.68462182711E+02  0.68462182711E+02  0.00000000000E+00 0. -1.
         21   -1    0    0  501  502 -0.00000000000E+00 -0.00000000000E+00 -0.57057047341E+02  0.57057047341E+02  0.00000000000E+00 0. -1.
         25    1    1    2    0    0  0.00000000000E+00  0.00000000000E+00  0.11405135369E+02  0.12551923005E+03  0.12500000000E+03 0.  0.
<mgrwt>
<rscale>  0 0.12500000E+03</rscale>
<asrwt>0</asrwt>
<pdfrwt beam="1">  1       21 0.10532644E-01 0.12500000E+03</pdfrwt>
<pdfrwt beam="2">  1       21 0.87780072E-02 0.12500000E+03</pdfrwt>
<totfact> 0.73972709E+06</totfact>
</mgrwt>
</event>
<event>
 3    1  0.1603864E-001  0.1250000E+03  0.7546771E-02  0.1235069E+00
         21   -1    0    0  502  501  0.00000000000E+00  0.00000000000E+00  0.16431916369E+02  0.16431916369E+02  0.00000000000E+00 0. -1.
         21   -1    0    0  501  502 -0.00000000000E+00 -0.00000000000E+00 -0.23772333745E+03  0.23772333745E+03  0.00000000000E+00 0. -1.
         25    1    1    2    0    0  0.00000000000E+00  0.00000000000E+00 -0.22129142108E+03  0.25415525382E+03  0.12500000000E+03 0.  0.
<mgrwt>
<rscale>  0 0.12500000E+03</rscale>
<asrwt>0</asrwt>
<pdfrwt beam="1">  1       21 0.25279870E-02 0.12500000E+03</pdfrwt>
<pdfrwt beam="2">  1       21 0.36572823E-01 0.12500000E+03</pdfrwt>
<totfact> 0.59489168E+06</totfact>
</mgrwt>
</event>
<event>
 3    1  0.1603864E-001  0.1250000E+03  0.7546771E-02  0.1235069E+00
         21   -1    0    0  502  501  0.00000000000E+00  0.00000000000E+00  0.32390642703E+01  0.32390642703E+01  0.00000000000E+00 0.  1.
         21   -1    0    0  501  502 -0.00000000000E+00 -0.00000000000E+00 -0.12059810100E+04  0.12059810100E+04  0.00000000000E+00 0.  1.
         25    1    1    2    0    0  0.00000000000E+00  0.00000000000E+00 -0.12027419457E+04  0.12092200742E+04  0.12500000000E+03 0.  0.
<mgrwt>
<rscale>  0 0.12500000E+03</rscale>
<asrwt>0</asrwt>
<pdfrwt beam="1">  1       21 0.49831791E-03 0.12500000E+03</pdfrwt>
<pdfrwt beam="2">  1       21 0.18553542E+00 0.12500000E+03</pdfrwt>
<totfact> 0.18960606E+06</totfact>
</mgrwt>
</event>
<event>
 3    1  0.1603864E-001  0.1250000E+03  0.7546771E-02  0.1235069E+00
         21   -1    0    0  502  501  0.00000000000E+00  0.00000000000E+00  0.12751517519E+02  0.12751517519E+02  0.00000000000E+00 0.  1.
         21   -1    0    0  501  502 -0.00000000000E+00 -0.00000000000E+00 -0.30633608856E+03  0.30633608856E+03  0.00000000000E+00 0.  1.
         25    1    1    2    0    0  0.00000000000E+00  0.00000000000E+00 -0.29358457104E+03  0.31908760607E+03  0.12500000000E+03 0.  0.
<mgrwt>
<rscale>  0 0.12500000E+03</rscale>
<asrwt>0</asrwt>
<pdfrwt beam="1">  1       21 0.19617722E-02 0.12500000E+03</pdfrwt>
<pdfrwt beam="2">  1       21 0.47128623E-01 0.12500000E+03</pdfrwt>
<totfact> 0.53905727E+06</totfact>
</mgrwt>
</event>
<event>
 3    1  0.1603864E-001  0.1250000E+03  0.7546771E-02  0.1235069E+00
         21   -1    0    0  502  501  0.00000000000E+00  0.00000000000E+00  0.13387978173E+03  0.13387978173E+03  0.00000000000E+00 0. -1.
         21   -1    0    0  501  502 -0.00000000000E+00 -0.00000000000E+00 -0.29177295852E+02  0.29177295852E+02  0.00000000000E+00 0. -1.
         25    1    1    2    0    0  0.00000000000E+00  0.00000000000E+00  0.10470248587E+03  0.16305707758E+03  0.12500000000E+03 0.  0.
<mgrwt>
<rscale>  0 0.12500000E+03</rscale>
<asrwt>0</asrwt>
<pdfrwt beam="1">  1       21 0.20596889E-01 0.12500000E+03</pdfrwt>
<pdfrwt beam="2">  1       21 0.44888148E-02 0.12500000E+03</pdfrwt>
<totfact> 0.69147870E+06</totfact>
</mgrwt>
</event>
<event>
 3    1  0.1603864E-001  0.1250000E+03  0.7546771E-02  0.1235069E+00
         21   -1    0    0  502  501  0.00000000000E+00  0.00000000000E+00  0.32246329502E+03  0.32246329502E+03  0.00000000000E+00 0.  1.
         21   -1    0    0  501  502 -0.00000000000E+00 -0.00000000000E+00 -0.12113781817E+02  0.12113781817E+02  0.00000000000E+00 0.  1.
         25    1    1    2    0    0  0.00000000000E+00  0.00000000000E+00  0.31034951320E+03  0.33457707684E+03  0.12500000000E+03 0.  0.
<mgrwt>
<rscale>  0 0.12500000E+03</rscale>
<asrwt>0</asrwt>
<pdfrwt beam="1">  1       21 0.49609731E-01 0.12500000E+03</pdfrwt>
<pdfrwt beam="2">  1       21 0.18636590E-02 0.12500000E+03</pdfrwt>
<totfact> 0.52698032E+06</totfact>
</mgrwt>
</event>
<event>
 3    1  0.1603864E-001  0.1250000E+03  0.7546771E-02  0.1235069E+00
         21   -1    0    0  502  501  0.00000000000E+00  0.00000000000E+00  0.13633134857E+02  0.13633134857E+02  0.00000000000E+00 0.  1.
         21   -1    0    0  501  502 -0.00000000000E+00 -0.00000000000E+00 -0.28652617619E+03  0.28652617619E+03  0.00000000000E+00 0.  1.
         25    1    1    2    0    0  0.00000000000E+00  0.00000000000E+00 -0.27289304133E+03  0.30015931105E+03  0.12500000000E+03 0.  0.
<mgrwt>
<rscale>  0 0.12500000E+03</rscale>
<asrwt>0</asrwt>
<pdfrwt beam="1">  1       21 0.20974053E-02 0.12500000E+03</pdfrwt>
<pdfrwt beam="2">  1       21 0.44080952E-01 0.12500000E+03</pdfrwt>
<totfact> 0.55442936E+06</totfact>
</mgrwt>
</event>
<event>
 3    1  0.1603864E-001  0.1250000E+03  0.7546771E-02  0.1235069E+00
         21   -1    0    0  502  501  0.00000000000E+00  0.00000000000E+00  0.16712897116E+02  0.16712897116E+02  0.00000000000E+00 0.  1.
         21   -1    0    0  501  502 -0.00000000000E+00 -0.00000000000E+00 -0.23372668263E+03  0.23372668263E+03  0.00000000000E+00 0.  1.
         25    1    1    2    0    0  0.00000000000E+00  0.00000000000E+00 -0.21701378552E+03  0.25043957975E+03  0.12500000000E+03 0.  0.
<mgrwt>
<rscale>  0 0.12500000E+03</rscale>
<asrwt>0</asrwt>
<pdfrwt beam="1">  1       21 0.25712151E-02 0.12500000E+03</pdfrwt>
<pdfrwt beam="2">  1       21 0.35957949E-01 0.12500000E+03</pdfrwt>
<totfact> 0.59836829E+06</totfact>
</mgrwt>
</event>
<event>
 3    1  0.1603864E-001  0.1250000E+03  0.7546771E-02  0.1235069E+00
         21   -1    0    0  502  501  0.00000000000E+00  0.00000000000E+00  0.21367389769E+03  0.21367389769E+03  0.00000000000E+00 0. -1.
         21   -1    0    0  501  502 -0.00000000000E+00 -0.00000000000E+00 -0.18281362591E+02  0.18281362591E+02  0.00000000000E+00 0. -1.
         25    1    1    2    0    0  0.00000000000E+00  0.00000000000E+00  0.19539253510E+03  0.23195526028E+03  0.12500000000E+03 0.  0.
<mgrwt>
<rscale>  0 0.12500000E+03</rscale>
<asrwt>0</asrwt>
<pdfrwt beam="1">  1       21 0.32872905E-01 0.12500000E+03</pdfrwt>
<pdfrwt beam="2">  1       21 0.28125175E-02 0.12500000E+03</pdfrwt>
<totfact> 0.61619934E+06</totfact>
</mgrwt>
</event>
<event>
 3    1  0.1603864E-001  0.1250000E+03  0.7546771E-02  0.1235069E+00
         21   -1    0    0  502  501  0.00000000000E+00  0.00000000000E+00  0.21669718626E+03  0.21669718626E+03  0.00000000000E+00 0.  1.
         21   -1    0    0  501  502 -0.00000000000E+00 -0.00000000000E+00 -0.18026306975E+02  0.18026306975E+02  0.00000000000E+00 0.  1.
         25    1    1    2    0    0  0.00000000000E+00  0.00000000000E+00  0.19867087928E+03  0.23472349323E+03  0.12500000000E+03 0.  0.
<mgrwt>
<rscale>  0 0.12500000E+03</rscale>
<asrwt>0</asrwt>
<pdfrwt beam="1">  1       21 0.33338027E-01 0.12500000E+03</pdfrwt>
<pdfrwt beam="2">  1       21 0.27732781E-02 0.12500000E+03</pdfrwt>
<totfact> 0.61347028E+06</totfact>
</mgrwt>
</event>
<event>
 3    1  0.1603864E-001  0.1250000E+03  0.7546771E-02  0.1235069E+00
         21   -1    0    0  502  501  0.00000000000E+00  0.00000000000E+00  0.51395411183E+02  0.51395411183E+02  0.00000000000E+00 0. -1.
         21   -1    0    0  501  502 -0.00000000000E+00 -0.00000000000E+00 -0.76003867079E+02  0.76003867079E+02  0.00000000000E+00 0. -1.
         25    1    1    2    0    0  0.00000000000E+00  0.00000000000E+00 -0.24608455897E+02  0.12739927826E+03  0.12500000000E+03 0.  0.
<mgrwt>
<rscale>  0 0.12500000E+03</rscale>
<asrwt>0</asrwt>
<pdfrwt beam="1">  1       21 0.79069863E-02 0.12500000E+03</pdfrwt>
<pdfrwt beam="2">  1       21 0.11692903E-01 0.12500000E+03</pdfrwt>
<totfact> 0.73714877E+06</totfact>
</mgrwt>
</event>
<event>
 3    1  0.1603864E-001  0.1250000E+03  0.7546771E-02  0.1235069E+00
         21   -1    0    0  502  501  0.00000000000E+00  0.00000000000E+00  0.62851980279E+03  0.62851980279E+03  0.00000000000E+00 0. -1.
         21   -1    0    0  501  502 -0.00000000000E+00 -0.00000000000E+00 -0.62149990862E+01  0.62149990862E+01  0.00000000000E+00 0. -1.
         25    1    1    2    0    0  0.00000000000E+00  0.00000000000E+00  0.62230480370E+03  0.63473480188E+03  0.12500000000E+03 0.  0.
<mgrwt>
<rscale>  0 0.12500000E+03</rscale>
<asrwt>0</asrwt>
<pdfrwt beam="1">  1       21 0.96695304E-01 0.12500000E+03</pdfrwt>
<pdfrwt beam="2">  1       21 0.95615421E-03 0.12500000E+03</pdfrwt>
<totfact> 0.35567473E+06</totfact>
</mgrwt>
</event>
<event>
 3    1  0.1603864E-001  0.1250000E+03  0.7546771E-02  0.1235069E+00
         21   -1    0    0  502  501  0.00000000000E+00  0.00000000000E+00  0.76546872148E+02  0.76546872148E+02  0.00000000000E+00 0.  1.
         21   -1    0    0  501  502 -0.00000000000E+00 -0.00000000000E+00 -0.51030824518E+02  0.51030824518E+02  0.00000000000E+00 0.  1.
         25    1    1    2    0    0  0.00000000000E+00  0.00000000000E+00  0.25516047629E+02  0.12757769667E+03  0.12500000000E+03 0.  0.
<mgrwt>
<rscale>  0 0.12500000E+03</rscale>
<asrwt>0</asrwt>
<pdfrwt beam="1">  1       21 0.11776442E-01 0.12500000E+03</pdfrwt>
<pdfrwt beam="2">  1       21 0.78508961E-02 0.12500000E+03</pdfrwt>
<totfact> 0.73690688E+06</totfact>
</mgrwt>
</event>
<event>
 3    1  0.1603864E-001  0.1250000E+03  0.7546771E-02  0.1235069E+00
         21   -1    0    0  502  501  0.00000000000E+00  0.00000000000E+00  0.10157658212E+02  0.10157658212E+02  0.00000000000E+00 0. -1.
         21   -1    0    0  501  502 -0.00000000000E+00 -0.00000000000E+00 -0.38456206326E+03  0.38456206326E+03  0.00000000000E+00 0. -1.
         25    1    1    2    0    0  0.00000000000E+00  0.00000000000E+00 -0.37440440504E+03  0.39471972147E+03  0.12500000000E+03 0.  0.
<mgrwt>
<rscale>  0 0.12500000E+03</rscale>
<asrwt>0</asrwt>
<pdfrwt beam="1">  1       21 0.15627168E-02 0.12500000E+03</pdfrwt>
<pdfrwt beam="2">  1       21 0.59163389E-01 0.12500000E+03</pdfrwt>
<totfact> 0.48393571E+06</totfact>
</mgrwt>
</event>
<event>
 3    1  0.1603864E-001  0.1250000E+03  0.7546771E-02  0.1235069E+00
         21   -1    0    0  502  501  0.00000000000E+00  0.00000000000E+00  0.38122555815E+02  0.38122555815E+02  0.00000000000E+00 0. -1.
         21   -1    0    0  501  502 -0.00000000000E+00 -0.00000000000E+00 -0.10246558544E+03  0.10246558544E+03  0.00000000000E+00 0. -1.
         25    1    1    2    0    0  0.00000000000E+00  0.00000000000E+00 -0.64343029624E+02  0.14058814125E+03  0.12500000000E+03 0.  0.
<mgrwt>
<rscale>  0 0.12500000E+03</rscale>
<asrwt>0</asrwt>
<pdfrwt beam="1">  1       21 0.58650087E-02 0.12500000E+03</pdfrwt>
<pdfrwt beam="2">  1       21 0.15763936E-01 0.12500000E+03</pdfrwt>
<totfact> 0.71962621E+06</totfact>
</mgrwt>
</event>
<event>
 3    1  0.1603864E-001  0.1250000E+03  0.7546771E-02  0.1235069E+00
         21   -1    0    0  502  501  0.00000000000E+00  0.00000000000E+00  0.67762489628E+01  0.67762489628E+01  0.00000000000E+00 0.  1.
         21   -1    0    0  501  502 -0.00000000000E+00 -0.00000000000E+00 -0.57646199563E+03  0.57646199563E+03  0.00000000000E+00 0.  1.
         25    1    1    2    0    0  0.00000000000E+00  0.00000000000E+00 -0.56968574667E+03  0.58323824459E+03  0.12500000000E+03 0.  0.
<mgrwt>
<rscale>  0 0.12500000E+03</rscale>
<asrwt>0</asrwt>
<pdfrwt beam="1">  1       21 0.10424995E-02 0.12500000E+03</pdfrwt>
<pdfrwt beam="2">  1       21 0.88686490E-01 0.12500000E+03</pdfrwt>
<totfact> 0.37861790E+06</totfact>
</mgrwt>
</event>
<event>
 3    1  0.1603864E-001  0.1250000E+03  0.7546771E-02  0.1235069E+00
         21   -1    0    0  502  501  0.00000000000E+00  0.00000000000E+00  0.12925883650E+04  0.12925883650E+04  0.00000000000E+00 0.  1.
         21   -1    0    0  501  502 -0.00000000000E+00 -0.00000000000E+00 -0.30220371046E+01  0.30220371046E+01  0.00000000000E+00 0.  1.
         25    1    1    2    0    0  0.00000000000E+00  0.00000000000E+00  0.12895663279E+04  0.12956104021E+04  0.12500000000E+03 0.  0.
<mgrwt>
<rscale>  0 0.12500000E+03</rscale>
<asrwt>0</asrwt>
<pdfrwt beam="1">  1       21 0.19885931E+00 0.12500000E+03</pdfrwt>
<pdfrwt beam="2">  1       21 0.46492982E-03 0.12500000E+03</pdfrwt>
<totfact> 0.17331392E+06</totfact>
</mgrwt>
</event>
<event>
 3    1  0.1603864E-001  0.1250000E+03  0.7546771E-02  0.1235069E+00
         21   -1    0    0  502  501  0.00000000000E+00  0.00000000000E+00  0.41499684570E+02  0.41499684570E+02  0.00000000000E+00 0. -1.
         21   -1    0    0  501  502 -0.00000000000E+00 -0.00000000000E+00 -0.94127221460E+02  0.94127221460E+02  0.00000000000E+00 0. -1.
         25    1    1    2    0    0  0.00000000000E+00  0.00000000000E+00 -0.52627536890E+02  0.13562690603E+03  0.12500000000E+03 0.  0.
<mgrwt>
<rscale>  0 0.12500000E+03</rscale>
<asrwt>0</asrwt>
<pdfrwt beam="1">  1       21 0.63845670E-02 0.12500000E+03</pdfrwt>
<pdfrwt beam="2">  1       21 0.14481111E-01 0.12500000E+03</pdfrwt>
<totfact> 0.72613572E+06</totfact>
</mgrwt>
</event>
<event>
 3    1  0.1603864E-001  0.1250000E+03  0.7546771E-02  0.1235069E+00
         21   -1    0    0  502  501  0.00000000000E+00  0.00000000000E+00  0.27804259243E+02  0.27804259243E+02  0.00000000000E+00 0. -1.
         21   -1    0    0  501  502 -0.00000000000E+00 -0.00000000000E+00 -0.14049106527E+03  0.14049106527E+03  0.00000000000E+00 0. -1.
         25    1    1    2    0    0  0.00000000000E+00  0.00000000000E+00 -0.11268680602E+03  0.16829532451E+03  0.12500000000E+03 0.  0.
<mgrwt>
<rscale>  0 0.12500000E+03</rscale>
<asrwt>0</asrwt>
<pdfrwt beam="1">  1       21 0.42775784E-02 0.12500000E+03</pdfrwt>
<pdfrwt beam="2">  1       21 0.21614010E-01 0.12500000E+03</pdfrwt>
<totfact> 0.68519834E+06</totfact>
</mgrwt>
</event>
<event>
 3    1  0.1603864E-001  0.1250000E+03  0.7546771E-02  0.1235069E+00
         21   -1    0    0  502  501  0.00000000000E+00  0.00000000000E+00  0.27340462715E+02  0.27340462715E+02  0.00000000000E+00 0.  1.
         21   -1    0    0  501  502 -0.00000000000E+00 -0.00000000000E+00 -0.14287431931E+03  0.14287431931E+03  0.00000000000E+00 0.  1.
         25    1    1    2    0    0  0.00000000000E+00  0.00000000000E+00 -0.11553385659E+03  0.17021478202E+03  0.12500000000E+03 0.  0.
<mgrwt>
<rscale>  0 0.12500000E+03</rscale>
<asrwt>0</asrwt>
<pdfrwt beam="1">  1       21 0.42062250E-02 0.12500000E+03</pdfrwt>
<pdfrwt beam="2">  1       21 0.21980664E-01 0.12500000E+03</pdfrwt>
<totfact> 0.68292183E+06</totfact>
</mgrwt>
</event>
<event>
 3    1  0.1603864E-001  0.1250000E+03  0.7546771E-02  0.1235069E+00
         21   -1    0    0  502  501  0.00000000000E+00  0.00000000000E+00  0.30426788013E+03  0.30426788013E+03  0.00000000000E+00 0. -1.
         21   -1    0    0  501  502 -0.00000000000E+00 -0.00000000000E+00 -0.12838193760E+02  0.12838193760E+02  0.00000000000E+00 0. -1.
         25    1    1    2    0    0  0.00000000000E+00  0.00000000000E+00  0.29142968637E+03  0.31710607389E+03  0.12500000000E+03 0.  0.
<mgrwt>
<rscale>  0 0.12500000E+03</rscale>
<asrwt>0</asrwt>
<pdfrwt beam="1">  1       21 0.46810438E-01 0.12500000E+03</pdfrwt>
<pdfrwt beam="2">  1       21 0.19751070E-02 0.12500000E+03</pdfrwt>
<totfact> 0.54063474E+06</totfact>
</mgrwt>
</event>
<event>
 3    1  0.1603864E-001  0.1250000E+03  0.7546771E-02  0.1235069E+00
         21   -1    0    0  502  501  0.00000000000E+00  0.00000000000E+00  0.13028712559E+02  0.13028712559E+02  0.00000000000E+00 0.  1.
         21   -1    0    0  501  502 -0.00000000000E+00 -0.00000000000E+00 -0.29981857242E+03  0.29981857242E+03  0.00000000000E+00 0.  1.
         25    1    1    2    0    0  0.00000000000E+00  0.00000000000E+00 -0.28678985986E+03  0.31284728498E+03  0.12500000000E+03 0.  0.
<mgrwt>
<rscale>  0 0.12500000E+03</rscale>
<asrwt>0</asrwt>
<pdfrwt beam="1">  1       21 0.20044174E-02 0.12500000E+03</pdfrwt>
<pdfrwt beam="2">  1       21 0.46125932E-01 0.12500000E+03</pdfrwt>
<totfact> 0.54405071E+06</totfact>
</mgrwt>
</event>
<event>
 3    1  0.1603864E-001  0.1250000E+03  0.7546771E-02  0.1235069E+00
         21   -1    0    0  502  501  0.00000000000E+00  0.00000000000E+00  0.16242185235E+02  0.16242185235E+02  0.00000000000E+00 0.  1.
         21   -1    0    0  501  502 -0.00000000000E+00 -0.00000000000E+00 -0.24050027403E+03  0.24050027403E+03  0.00000000000E+00 0.  1.
         25    1    1    2    0    0  0.00000000000E+00  0.00000000000E+00 -0.22425808880E+03  0.25674245927E+03  0.12500000000E+03 0.  0.
<mgrwt>
<rscale>  0 0.12500000E+03</rscale>
<asrwt>0</asrwt>
<pdfrwt beam="1">  1       21 0.24987980E-02 0.12500000E+03</pdfrwt>
<pdfrwt beam="2">  1       21 0.37000039E-01 0.12500000E+03</pdfrwt>
<totfact> 0.59249142E+06</totfact>
</mgrwt>
</event>
<event>
 3    1  0.1603864E-001  0.1250000E+03  0.7546771E-02  0.1235069E+00
         21   -1    0    0  502  501  0.00000000000E+00  0.00000000000E+00  0.94459564134E+03  0.94459564134E+03  0.00000000000E+00 0. -1.
         21   -1    0    0  501  502 -0.00000000000E+00 -0.00000000000E+00 -0.41353673774E+01  0.41353673774E+01  0.00000000000E+00 0. -1.
         25    1    1    2    0    0  0.00000000000E+00  0.00000000000E+00  0.94046027396E+03  0.94873100871E+03  0.12500000000E+03 0.  0.
<mgrwt>
<rscale>  0 0.12500000E+03</rscale>
<asrwt>0</asrwt>
<pdfrwt beam="1">  1       21 0.14532223E+00 0.12500000E+03</pdfrwt>
<pdfrwt beam="2">  1       21 0.63621112E-03 0.12500000E+03</pdfrwt>
<totfact> 0.24945440E+06</totfact>
</mgrwt>
</event>
<event>
 3    1  0.1603864E-001  0.1250000E+03  0.7546771E-02  0.1235069E+00
         21   -1    0    0  502  501  0.00000000000E+00  0.00000000000E+00  0.13793164229E+03  0.13793164229E+03  0.00000000000E+00 0. -1.
         21   -1    0    0  501  502 -0.00000000000E+00 -0.00000000000E+00 -0.28320187704E+02  0.28320187704E+02  0.00000000000E+00 0. -1.
         25    1    1    2    0    0  0.00000000000E+00  0.00000000000E+00  0.10961145459E+03  0.16625183000E+03  0.12500000000E+03 0.  0.
<mgrwt>
<rscale>  0 0.12500000E+03</rscale>
<asrwt>0</asrwt>
<pdfrwt beam="1">  1       21 0.21220252E-01 0.12500000E+03</pdfrwt>
<pdfrwt beam="2">  1       21 0.43569520E-02 0.12500000E+03</pdfrwt>
<totfact> 0.68763544E+06</totfact>
</mgrwt>
</event>
<event>
 3    1  0.1603864E-001  0.1250000E+03  0.7546771E-02  0.1235069E+00
         21   -1    0    0  502  501  0.00000000000E+00  0.00000000000E+00  0.60714730188E+02  0.60714730188E+02  0.00000000000E+00 0.  1.
         21   -1    0    0  501  502 -0.00000000000E+00 -0.00000000000E+00 -0.64337764293E+02  0.64337764293E+02  0.00000000000E+00 0.  1.
         25    1    1    2    0    0  0.00000000000E+00  0.00000000000E+00 -0.36230341048E+01  0.12505249448E+03  0.12500000000E+03 0.  0.
<mgrwt>
<rscale>  0 0.12500000E+03</rscale>
<asrwt>0</asrwt>
<pdfrwt beam="1">  1       21 0.93407277E-02 0.12500000E+03</pdfrwt>
<pdfrwt beam="2">  1       21 0.98981176E-02 0.12500000E+03</pdfrwt>
<totfact> 0.74036491E+06</totfact>
</mgrwt>
</event>
<event>
 3    1  0.1603864E-001  0.1250000E+03  0.7546771E-02  0.1235069E+00
         21   -1    0    0  502  501  0.00000000000E+00  0.00000000000E+00  0.15661273441E+02  0.15661273441E+02  0.00000000000E+00 0.  1.
         21   -1    0    0  501  502 -0.00000000000E+00 -0.00000000000E+00 -0.24942096916E+03  0.24942096916E+03  0.00000000000E+00 0.  1.
         25    1    1    2    0    0  0.00000000000E+00  0.00000000000E+00 -0.23375969572E+03  0.26508224260E+03  0.12500000000E+03 0.  0.
<mgrwt>
<rscale>  0 0.12500000E+03</rscale>
<asrwt>0</asrwt>
<pdfrwt beam="1">  1       21 0.24094269E-02 0.12500000E+03</pdfrwt>
<pdfrwt beam="2">  1       21 0.38372454E-01 0.12500000E+03</pdfrwt>
<totfact> 0.58486567E+06</totfact>
</mgrwt>
</event>
<event>
 3    1  0.1603864E-001  0.1250000E+03  0.7546771E-02  0.1235069E+00
         21   -1    0    0  502  501  0.00000000000E+00  0.00000000000E+00  0.24907074255E+03  0.24907074255E+03  0.00000000000E+00 0.  1.
         21   -1    0    0  501  502 -0.00000000000E+00 -0.00000000000E+00 -0.15683295276E+02  0.15683295276E+02  0.00000000000E+00 0.  1.
         25    1    1    2    0    0  0.00000000000E+00  0.00000000000E+00  0.23338744728E+03  0.26475403783E+03  0.12500000000E+03 0.  0.
<mgrwt>
<rscale>  0 0.12500000E+03</rscale>
<asrwt>0</asrwt>
<pdfrwt beam="1">  1       21 0.38318573E-01 0.12500000E+03</pdfrwt>
<pdfrwt beam="2">  1       21 0.24128148E-02 0.12500000E+03</pdfrwt>
<totfact> 0.58516262E+06</totfact>
</mgrwt>
</event>
<event>
 3    1  0.1603864E-001  0.1250000E+03  0.7546771E-02  0.1235069E+00
         21   -1    0    0  502  501  0.00000000000E+00  0.00000000000E+00  0.90887283333E+01  0.90887283333E+01  0.00000000000E+00 0.  1.
         21   -1    0    0  501  502 -0.00000000000E+00 -0.00000000000E+00 -0.42979059960E+03  0.42979059960E+03  0.00000000000E+00 0.  1.
         25    1    1    2    0    0  0.00000000000E+00  0.00000000000E+00 -0.42070187127E+03  0.43887932794E+03  0.12500000000E+03 0.  0.
<mgrwt>
<rscale>  0 0.12500000E+03</rscale>
<asrwt>0</asrwt>
<pdfrwt beam="1">  1       21 0.13982658E-02 0.12500000E+03</pdfrwt>
<pdfrwt beam="2">  1       21 0.66121633E-01 0.12500000E+03</pdfrwt>
<totfact> 0.45565086E+06</totfact>
</mgrwt>
</event>
<event>
 3    1  0.1603864E-001  0.1250000E+03  0.7546771E-02  0.1235069E+00
         21   -1    0    0  502  501  0.00000000000E+00  0.00000000000E+00  0.84207636264E+01  0.84207636264E+01  0.00000000000E+00 0.  1.
         21   -1    0    0  501  502 -0.00000000000E+00 -0.00000000000E+00 -0.46388310767E+03  0.46388310767E+03  0.00000000000E+00 0.  1.
         25    1    1    2    0    0  0.00000000000E+00  0.00000000000E+00 -0.45546234405E+03  0.47230387130E+03  0.12500000000E+03 0.  0.
<mgrwt>
<rscale>  0 0.12500000E+03</rscale>
<asrwt>0</asrwt>
<pdfrwt beam="1">  1       21 0.12955015E-02 0.12500000E+03</pdfrwt>
<pdfrwt beam="2">  1       21 0.71366663E-01 0.12500000E+03</pdfrwt>
<totfact> 0.43587039E+06</totfact>
</mgrwt>
</event>
<event>
 3    1  0.1603864E-001  0.1250000E+03  0.7546771E-02  0.1235069E+00
         21   -1    0    0  502  501  0.00000000000E+00  0.00000000000E+00  0.22247502230E+03  0.22247502230E+03  0.00000000000E+00 0.  1.
         21   -1    0    0  501  502 -0.00000000000E+00 -0.00000000000E+00 -0.17558150841E+02  0.17558150841E+02  0.00000000000E+00 0.  1.
         25    1    1    2    0    0  0.00000000000E+00  0.00000000000E+00  0.20491687146E+03  0.24003317315E+03  0.12500000000E+03 0.  0.
<mgrwt>
<rscale>  0 0.12500000E+03</rscale>
<asrwt>0</asrwt>
<pdfrwt beam="1">  1       21 0.34226924E-01 0.12500000E+03</pdfrwt>
<pdfrwt beam="2">  1       21 0.27012541E-02 0.12500000E+03</pdfrwt>
<totfact> 0.60829454E+06</totfact>
</mgrwt>
</event>
<event>
 3    1  0.1603864E-001  0.1250000E+03  0.7546771E-02  0.1235069E+00
         21   -1    0    0  502  501  0.00000000000E+00  0.00000000000E+00  0.11472944715E+03  0.11472944715E+03  0.00000000000E+00 0. -1.
         21   -1    0    0  501  502 -0.00000000000E+00 -0.00000000000E+00 -0.34047492576E+02  0.34047492576E+02  0.00000000000E+00 0. -1.
         25    1    1    2    0    0  0.00000000000E+00  0.00000000000E+00  0.80681954570E+02  0.14877693972E+03  0.12500000000E+03 0.  0.
<mgrwt>
<rscale>  0 0.12500000E+03</rscale>
<asrwt>0</asrwt>
<pdfrwt beam="1">  1       21 0.17650684E-01 0.12500000E+03</pdfrwt>
<pdfrwt beam="2">  1       21 0.52380758E-02 0.12500000E+03</pdfrwt>
<totfact> 0.70913179E+06</totfact>
</mgrwt>
</event>
<event>
 3    1  0.1603864E-001  0.1250000E+03  0.7546771E-02  0.1235069E+00
         21   -1    0    0  502  501  0.00000000000E+00  0.00000000000E+00  0.10501473753E+02  0.10501473753E+02  0.00000000000E+00 0. -1.
         21   -1    0    0  501  502 -0.00000000000E+00 -0.00000000000E+00 -0.37197160056E+03  0.37197160056E+03  0.00000000000E+00 0. -1.
         25    1    1    2    0    0  0.00000000000E+00  0.00000000000E+00 -0.36147012680E+03  0.38247307431E+03  0.12500000000E+03 0.  0.
<mgrwt>
<rscale>  0 0.12500000E+03</rscale>
<asrwt>0</asrwt>
<pdfrwt beam="1">  1       21 0.16156114E-02 0.12500000E+03</pdfrwt>
<pdfrwt beam="2">  1       21 0.57226400E-01 0.12500000E+03</pdfrwt>
<totfact> 0.49226041E+06</totfact>
</mgrwt>
</event>
<event>
 3    1  0.1603864E-001  0.1250000E+03  0.7546771E-02  0.1235069E+00
         21   -1    0    0  502  501  0.00000000000E+00  0.00000000000E+00  0.13693648723E+03  0.13693648723E+03  0.00000000000E+00 0. -1.
         21   -1    0    0  501  502 -0.00000000000E+00 -0.00000000000E+00 -0.28525998285E+02  0.28525998285E+02  0.00000000000E+00 0. -1.
         25    1    1    2    0    0  0.00000000000E+00  0.00000000000E+00  0.10841048895E+03  0.16546248552E+03  0.12500000000E+03 0.  0.
<mgrwt>
<rscale>  0 0.12500000E+03</rscale>
<asrwt>0</asrwt>
<pdfrwt beam="1">  1       21 0.21067152E-01 0.12500000E+03</pdfrwt>
<pdfrwt beam="2">  1       21 0.43886152E-02 0.12500000E+03</pdfrwt>
<totfact> 0.68858123E+06</totfact>
</mgrwt>
</event>
<event>
 3    1  0.1603864E-001  0.1250000E+03  0.7546771E-02  0.1235069E+00
         21   -1    0    0  502  501  0.00000000000E+00  0.00000000000E+00  0.22012299447E+03  0.22012299447E+03  0.00000000000E+00 0.  1.
         21   -1    0    0  501  502 -0.00000000000E+00 -0.00000000000E+00 -0.17745760771E+02  0.17745760771E+02  0.00000000000E+00 0.  1.
         25    1    1    2    0    0  0.00000000000E+00  0.00000000000E+00  0.20237723370E+03  0.23786875524E+03  0.12500000000E+03 0.  0.
<mgrwt>
<rscale>  0 0.12500000E+03</rscale>
<asrwt>0</asrwt>
<pdfrwt beam="1">  1       21 0.33865074E-01 0.12500000E+03</pdfrwt>
<pdfrwt beam="2">  1       21 0.27301172E-02 0.12500000E+03</pdfrwt>
<totfact> 0.61039511E+06</totfact>
</mgrwt>
</event>
<event>
 3    1  0.1603864E-001  0.1250000E+03  0.7546771E-02  0.1235069E+00
         21   -1    0    0  502  501  0.00000000000E+00  0.00000000000E+00  0.16166988473E+02  0.16166988473E+02  0.00000000000E+00 0. -1.
         21   -1    0    0  501  502 -0.00000000000E+00 -0.00000000000E+00 -0.24161890178E+03  0.24161890178E+03  0.00000000000E+00 0. -1.
         25    1    1    2    0    0  0.00000000000E+00  0.00000000000E+00 -0.22545191331E+03  0.25778589026E+03  0.12500000000E+03 0.  0.
<mgrwt>
<rscale>  0 0.12500000E+03</rscale>
<asrwt>0</asrwt>
<pdfrwt beam="1">  1       21 0.24872292E-02 0.12500000E+03</pdfrwt>
<pdfrwt beam="2">  1       21 0.37172136E-01 0.12500000E+03</pdfrwt>
<totfact> 0.59152807E+06</totfact>
</mgrwt>
</event>
<event>
 3    1  0.1603864E-001  0.1250000E+03  0.7546771E-02  0.1235069E+00
         21   -1    0    0  502  501  0.00000000000E+00  0.00000000000E+00  0.25322123071E+03  0.25322123071E+03  0.00000000000E+00 0.  1.
         21   -1    0    0  501  502 -0.00000000000E+00 -0.00000000000E+00 -0.15426234163E+02  0.15426234163E+02  0.00000000000E+00 0.  1.
         25    1    1    2    0    0  0.00000000000E+00  0.00000000000E+00  0.23779499654E+03  0.26864746487E+03  0.12500000000E+03 0.  0.
<mgrwt>
<rscale>  0 0.12500000E+03</rscale>
<asrwt>0</asrwt>
<pdfrwt beam="1">  1       21 0.38957109E-01 0.12500000E+03</pdfrwt>
<pdfrwt beam="2">  1       21 0.23732670E-02 0.12500000E+03</pdfrwt>
<totfact> 0.58165639E+06</totfact>
</mgrwt>
</event>
<event>
 3    1  0.1603864E-001  0.1250000E+03  0.7546771E-02  0.1235069E+00
         21   -1    0    0  502  501  0.00000000000E+00  0.00000000000E+00  0.45011553825E+03  0.45011553825E+03  0.00000000000E+00 0. -1.
         21   -1    0    0  501  502 -0.00000000000E+00 -0.00000000000E+00 -0.86783273805E+01  0.86783273805E+01  0.00000000000E+00 0. -1.
         25    1    1    2    0    0  0.00000000000E+00  0.00000000000E+00  0.44143721087E+03  0.45879386563E+03  0.12500000000E+03 0.  0.
<mgrwt>
<rscale>  0 0.12500000E+03</rscale>
<asrwt>0</asrwt>
<pdfrwt beam="1">  1       21 0.69248526E-01 0.12500000E+03</pdfrwt>
<pdfrwt beam="2">  1       21 0.13351276E-02 0.12500000E+03</pdfrwt>
<totfact> 0.44370704E+06</totfact>
</mgrwt>
</event>
<event>
 3    1  0.1603864E-001  0.1250000E+03  0.7546771E-02  0.1235069E+00
         21   -1    0    0  502  501  0.00000000000E+00  0.00000000000E+00  0.85022396483E+02  0.85022396483E+02  0.00000000000E+00 0. -1.
         21   -1    0    0  501  502 -0.00000000000E+00 -0.00000000000E+00 -0.45943776718E+02  0.45943776718E+02  0.00000000000E+00 0. -1.
         25    1    1    2    0    0  0.00000000000E+00  0.00000000000E+00  0.39078619765E+02  0.13096617320E+03  0.12500000000E+03 0.  0.
<mgrwt>
<rscale>  0 0.12500000E+03</rscale>
<asrwt>0</asrwt>
<pdfrwt beam="1">  1       21 0.13080369E-01 0.12500000E+03</pdfrwt>
<pdfrwt beam="2">  1       21 0.70682734E-02 0.12500000E+03</pdfrwt>
<totfact> 0.73235230E+06</totfact>
</mgrwt>
</event>
<event>
 3    1  0.1603864E-001  0.1250000E+03  0.7546771E-02  0.1235069E+00
         21   -1    0    0  502  501  0.00000000000E+00  0.00000000000E+00  0.44236123363E+02  0.44236123363E+02  0.00000000000E+00 0.  1.
         21   -1    0    0  501  502 -0.00000000000E+00 -0.00000000000E+00 -0.88304528132E+02  0.88304528132E+02  0.00000000000E+00 0.  1.
         25    1    1    2    0    0  0.00000000000E+00  0.00000000000E+00 -0.44068404769E+02  0.13254065150E+03  0.12500000000E+03 0.  0.
<mgrwt>
<rscale>  0 0.12500000E+03</rscale>
<asrwt>0</asrwt>
<pdfrwt beam="1">  1       21 0.68055575E-02 0.12500000E+03</pdfrwt>
<pdfrwt beam="2">  1       21 0.13585312E-01 0.12500000E+03</pdfrwt>
<totfact> 0.73023799E+06</totfact>
</mgrwt>
</event>
<event>
 3    1  0.1603864E-001  0.1250000E+03  0.7546771E-02  0.1235069E+00
         21   -1    0    0  502  501  0.00000000000E+00  0.00000000000E+00  0.37597810808E+03  0.37597810808E+03  0.00000000000E+00 0. -1.
         21   -1    0    0  501  502 -0.00000000000E+00 -0.00000000000E+00 -0.10389567680E+02  0.10389567680E+02  0.00000000000E+00 0. -1.
         25    1    1    2    0    0  0.00000000000E+00  0.00000000000E+00  0.36558854040E+03  0.38636767576E+03  0.12500000000E+03 0.  0.
<mgrwt>
<rscale>  0 0.12500000E+03</rscale>
<asrwt>0</asrwt>
<pdfrwt beam="1">  1       21 0.57842775E-01 0.12500000E+03</pdfrwt>
<pdfrwt beam="2">  1       21 0.15983953E-02 0.12500000E+03</pdfrwt>
<totfact> 0.48958914E+06</totfact>
</mgrwt>
</event>
<event>
 3    1  0.1603864E-001  0.1250000E+03  0.7546771E-02  0.1235069E+00
         21   -1    0    0  502  501  0.00000000000E+00  0.00000000000E+00  0.18104217006E+03  0.18104217006E+03  0.00000000000E+00 0.  1.
         21   -1    0    0  501  502 -0.00000000000E+00 -0.00000000000E+00 -0.21576464747E+02  0.21576464747E+02  0.00000000000E+00 0.  1.
         25    1    1    2    0    0  0.00000000000E+00  0.00000000000E+00  0.15946570531E+03  0.20261863481E+03  0.12500000000E+03 0.  0.
<mgrwt>
<rscale>  0 0.12500000E+03</rscale>
<asrwt>0</asrwt>
<pdfrwt beam="1">  1       21 0.27852640E-01 0.12500000E+03</pdfrwt>
<pdfrwt beam="2">  1       21 0.33194562E-02 0.12500000E+03</pdfrwt>
<totfact> 0.64644606E+06</totfact>
</mgrwt>
</event>
<event>
 3    1  0.1603864E-001  0.1250000E+03  0.7546771E-02  0.1235069E+00
         21   -1    0    0  502  501  0.00000000000E+00  0.00000000000E+00  0.22402919231E+03  0.22402919231E+03  0.00000000000E+00 0.  1.
         21   -1    0    0  501  502 -0.00000000000E+00 -0.00000000000E+00 -0.17436343718E+02  0.17436343718E+02  0.00000000000E+00 0.  1.
         25    1    1    2    0    0  0.00000000000E+00  0.00000000000E+00  0.20659284859E+03  0.24146553603E+03  0.12500000000E+03 0.  0.
<mgrwt>
<rscale>  0 0.12500000E+03</rscale>
<asrwt>0</asrwt>
<pdfrwt beam="1">  1       21 0.34466028E-01 0.12500000E+03</pdfrwt>
<pdfrwt beam="2">  1       21 0.26825146E-02 0.12500000E+03</pdfrwt>
<totfact> 0.60691134E+06</totfact>
</mgrwt>
</event>
<event>
 3    1  0.1603864E-001  0.1250000E+03  0.7546771E-02  0.1235069E+00
         21   -1    0    0  502  501  0.00000000000E+00  0.00000000000E+00  0.62294363660E+02  0.62294363660E+02  0.00000000000E+00 0. -1.
         21   -1    0    0  501  502 -0.00000000000E+00 -0.00000000000E+00 -0.62706315154E+02  0.62706315154E+02  0.00000000000E+00 0. -1.
         25    1    1    2    0    0  0.00000000000E+00  0.00000000000E+00 -0.41195149460E+00  0.12500067881E+03  0.12500000000E+03 0.  0.
<mgrwt>
<rscale>  0 0.12500000E+03</rscale>
<asrwt>0</asrwt>
<pdfrwt beam="1">  1       21 0.95837482E-02 0.12500000E+03</pdfrwt>
<pdfrwt beam="2">  1       21 0.96471254E-02 0.12500000E+03</pdfrwt>
<totfact> 0.74043490E+06</totfact>
</mgrwt>
</event>
<event>
 3    1  0.1603864E-001  0.1250000E+03  0.7546771E-02  0.1235069E+00
         21   -1    0    0  502  501  0.00000000000E+00  0.00000000000E+00  0.53149601426E+01  0.53149601426E+01  0.00000000000E+00 0. -1.
         21   -1    0    0  501  502 -0.00000000000E+00 -0.00000000000E+00 -0.73495377108E+03  0.73495377108E+03  0.00000000000E+00 0. -1.
         25    1    1    2    0    0  0.00000000000E+00  0.00000000000E+00 -0.72963881094E+03  0.74026873123E+03  0.12500000000E+03 0.  0.
<mgrwt>
<rscale>  0 0.12500000E+03</rscale>
<asrwt>0</asrwt>
<pdfrwt beam="1">  1       21 0.81768640E-03 0.12500000E+03</pdfrwt>
<pdfrwt beam="2">  1       21 0.11306978E+00 0.12500000E+03</pdfrwt>
<totfact> 0.31414126E+06</totfact>
</mgrwt>
</event>
<event>
 3    1  0.1603864E-001  0.1250000E+03  0.7546771E-02  0.1235069E+00
         21   -1    0    0  502  501  0.00000000000E+00  0.00000000000E+00  0.18515577324E+03  0.18515577324E+03  0.00000000000E+00 0. -1.
         21   -1    0    0  501  502 -0.00000000000E+00 -0.00000000000E+00 -0.21097100737E+02  0.21097100737E+02  0.00000000000E+00 0. -1.
         25    1    1    2    0    0  0.00000000000E+00  0.00000000000E+00  0.16405867250E+03  0.20625287397E+03  0.12500000000E+03 0.  0.
<mgrwt>
<rscale>  0 0.12500000E+03</rscale>
<asrwt>0</asrwt>
<pdfrwt beam="1">  1       21 0.28485502E-01 0.12500000E+03</pdfrwt>
<pdfrwt beam="2">  1       21 0.32457079E-02 0.12500000E+03</pdfrwt>
<totfact> 0.64255946E+06</totfact>
</mgrwt>
</event>
<event>
 3    1  0.1603864E-001  0.1250000E+03  0.7546771E-02  0.1235069E+00
         21   -1    0    0  502  501  0.00000000000E+00  0.00000000000E+00  0.61513492283E+02  0.61513492283E+02  0.00000000000E+00 0. -1.
         21   -1    0    0  501  502 -0.00000000000E+00 -0.00000000000E+00 -0.63502328596E+02  0.63502328596E+02  0.00000000000E+00 0. -1.
         25    1    1    2    0    0  0.00000000000E+00  0.00000000000E+00 -0.19888363128E+01  0.12501582088E+03  0.12500000000E+03 0.  0.
<mgrwt>
<rscale>  0 0.12500000E+03</rscale>
<asrwt>0</asrwt>
<pdfrwt beam="1">  1       21 0.94636143E-02 0.12500000E+03</pdfrwt>
<pdfrwt beam="2">  1       21 0.97695890E-02 0.12500000E+03</pdfrwt>
<totfact> 0.74041445E+06</totfact>
</mgrwt>
</event>
<event>
 3    1  0.1603864E-001  0.1250000E+03  0.7546771E-02  0.1235069E+00
         21   -1    0    0  502  501  0.00000000000E+00  0.00000000000E+00  0.11127862492E+02  0.11127862492E+02  0.00000000000E+00 0.  1.
         21   -1    0    0  501  502 -0.00000000000E+00 -0.00000000000E+00 -0.35103327372E+03  0.35103327372E+03  0.00000000000E+00 0.  1.
         25    1    1    2    0    0  0.00000000000E+00  0.00000000000E+00 -0.33990541123E+03  0.36216113621E+03  0.12500000000E+03 0.  0.
<mgrwt>
<rscale>  0 0.12500000E+03</rscale>
<asrwt>0</asrwt>
<pdfrwt beam="1">  1       21 0.17119791E-02 0.12500000E+03</pdfrwt>
<pdfrwt beam="2">  1       21 0.54005112E-01 0.12500000E+03</pdfrwt>
<totfact> 0.50652651E+06</totfact>
</mgrwt>
</event>
<event>
 3    1  0.1603864E-001  0.1250000E+03  0.7546771E-02  0.1235069E+00
         21   -1    0    0  502  501  0.00000000000E+00  0.00000000000E+00  0.86224977248E+01  0.86224977248E+01  0.00000000000E+00 0. -1.
         21   -1    0    0  501  502 -0.00000000000E+00 -0.00000000000E+00 -0.45302998327E+03  0.45302998327E+03  0.00000000000E+00 0. -1.
         25    1    1    2    0    0  0.00000000000E+00  0.00000000000E+00 -0.44440748555E+03  0.46165248099E+03  0.12500000000E+03 0.  0.
<mgrwt>
<rscale>  0 0.12500000E+03</rscale>
<asrwt>0</asrwt>
<pdfrwt beam="1">  1       21 0.13265381E-02 0.12500000E+03</pdfrwt>
<pdfrwt beam="2">  1       21 0.69696922E-01 0.12500000E+03</pdfrwt>
<totfact> 0.44203121E+06</totfact>
</mgrwt>
</event>
<event>
 3    1  0.1603864E-001  0.1250000E+03  0.7546771E-02  0.1235069E+00
         21   -1    0    0  502  501  0.00000000000E+00  0.00000000000E+00  0.14998838983E+02  0.14998838983E+02  0.00000000000E+00 0.  1.
         21   -1    0    0  501  502 -0.00000000000E+00 -0.00000000000E+00 -0.26043682478E+03  0.26043682478E+03  0.00000000000E+00 0.  1.
         25    1    1    2    0    0  0.00000000000E+00  0.00000000000E+00 -0.24543798579E+03  0.27543566376E+03  0.12500000000E+03 0.  0.
<mgrwt>
<rscale>  0 0.12500000E+03</rscale>
<asrwt>0</asrwt>
<pdfrwt beam="1">  1       21 0.23075138E-02 0.12500000E+03</pdfrwt>
<pdfrwt beam="2">  1       21 0.40067202E-01 0.12500000E+03</pdfrwt>
<totfact> 0.57561411E+06</totfact>
</mgrwt>
</event>
<event>
 3    1  0.1603864E-001  0.1250000E+03  0.7546771E-02  0.1235069E+00
         21   -1    0    0  502  501  0.00000000000E+00  0.00000000000E+00  0.10067172742E+03  0.10067172742E+03  0.00000000000E+00 0.  1.
         21   -1    0    0  501  502 -0.00000000000E+00 -0.00000000000E+00 -0.38801857285E+02  0.38801857285E+02  0.00000000000E+00 0.  1.
         25    1    1    2    0    0  0.00000000000E+00  0.00000000000E+00  0.61869870135E+02  0.13947358471E+03  0.12500000000E+03 0.  0.
<mgrwt>
<rscale>  0 0.12500000E+03</rscale>
<asrwt>0</asrwt>
<pdfrwt beam="1">  1       21 0.15487958E-01 0.12500000E+03</pdfrwt>
<pdfrwt beam="2">  1       21 0.59695165E-02 0.12500000E+03</pdfrwt>
<totfact> 0.72108105E+06</totfact>
</mgrwt>
</event>
<event>
 3    1  0.1603864E-001  0.1250000E+03  0.7546771E-02  0.1235069E+00
         21   -1    0    0  502  501  0.00000000000E+00  0.00000000000E+00  0.24176350317E+02  0.24176350317E+02  0.00000000000E+00 0. -1.
         21   -1    0    0  501  502 -0.00000000000E+00 -0.00000000000E+00 -0.16157318821E+03  0.16157318821E+03  0.00000000000E+00 0. -1.
         25    1    1    2    0    0  0.00000000000E+00  0.00000000000E+00 -0.13739683789E+03  0.18574953853E+03  0.12500000000E+03 0.  0.
<mgrwt>
<rscale>  0 0.12500000E+03</rscale>
<asrwt>0</asrwt>
<pdfrwt beam="1">  1       21 0.37194385E-02 0.12500000E+03</pdfrwt>
<pdfrwt beam="2">  1       21 0.24857413E-01 0.12500000E+03</pdfrwt>
<totfact> 0.66498010E+06</totfact>
</mgrwt>
</event>
<event>
 3    1  0.1603864E-001  0.1250000E+03  0.7546771E-02  0.1235069E+00
         21   -1    0    0  502  501  0.00000000000E+00  0.00000000000E+00  0.12505301208E+04  0.12505301208E+04  0.00000000000E+00 0. -1.
         21   -1    0    0  501  502 -0.00000000000E+00 -0.00000000000E+00 -0.31236752598E+01  0.31236752598E+01  0.00000000000E+00 0. -1.
         25    1    1    2    0    0  0.00000000000E+00  0.00000000000E+00  0.12474064456E+04  0.12536537961E+04  0.12500000000E+03 0.  0.
<mgrwt>
<rscale>  0 0.12500000E+03</rscale>
<asrwt>0</asrwt>
<pdfrwt beam="1">  1       21 0.19238885E+00 0.12500000E+03</pdfrwt>
<pdfrwt beam="2">  1       21 0.48056642E-03 0.12500000E+03</pdfrwt>
<totfact> 0.18105562E+06</totfact>
</mgrwt>
</event>
<event>
 3    1  0.1603864E-001  0.1250000E+03  0.7546771E-02  0.1235069E+00
         21   -1    0    0  502  501  0.00000000000E+00  0.00000000000E+00  0.71558466974E+02  0.71558466974E+02  0.00000000000E+00 0. -1.
         21   -1    0    0  501  502 -0.00000000000E+00 -0.00000000000E+00 -0.54588229251E+02  0.54588229251E+02  0.00000000000E+00 0. -1.
         25    1    1    2    0    0  0.00000000000E+00  0.00000000000E+00  0.16970237723E+02  0.12614669622E+03  0.12500000000E+03 0.  0.
<mgrwt>
<rscale>  0 0.12500000E+03</rscale>
<asrwt>0</asrwt>
<pdfrwt beam="1">  1       21 0.11008995E-01 0.12500000E+03</pdfrwt>
<pdfrwt beam="2">  1       21 0.83981891E-02 0.12500000E+03</pdfrwt>
<totfact> 0.73885838E+06</totfact>
</mgrwt>
</event>
<event>
 3    1  0.1603864E-001  0.1250000E+03  0.7546771E-02  0.1235069E+00
         21   -1    0    0  502  501  0.00000000000E+00  0.00000000000E+00  0.10602660588E+04  0.10602660588E+04  0.00000000000E+00 0.  1.
         21   -1    0    0  501  502 -0.00000000000E+00 -0.00000000000E+00 -0.36842167752E+01  0.36842167752E+01  0.00000000000E+00 0.  1.
         25    1    1    2    0    0  0.00000000000E+00  0.00000000000E+00  0.10565818420E+04  0.10639502756E+04  0.12500000000E+03 0.  0.
<mgrwt>
<rscale>  0 0.12500000E+03</rscale>
<asrwt>0</asrwt>
<pdfrwt beam="1">  1       21 0.16311761E+00 0.12500000E+03</pdfrwt>
<pdfrwt beam="2">  1       21 0.56680343E-03 0.12500000E+03</pdfrwt>
<totfact> 0.22071518E+06</totfact>
</mgrwt>
</event>
<event>
 3    1  0.1603864E-001  0.1250000E+03  0.7546771E-02  0.1235069E+00
         21   -1    0    0  502  501  0.00000000000E+00  0.00000000000E+00  0.85787988782E+02  0.85787988782E+02  0.00000000000E+00 0.  1.
         21   -1    0    0  501  502 -0.00000000000E+00 -0.00000000000E+00 -0.45533763589E+02  0.45533763589E+02  0.00000000000E+00 0.  1.
         25    1    1    2    0    0  0.00000000000E+00  0.00000000000E+00  0.40254225192E+02  0.13132175237E+03  0.12500000000E+03 0.  0.
<mgrwt>
<rscale>  0 0.12500000E+03</rscale>
<asrwt>0</asrwt>
<pdfrwt beam="1">  1       21 0.13198152E-01 0.12500000E+03</pdfrwt>
<pdfrwt beam="2">  1       21 0.70051944E-02 0.12500000E+03</pdfrwt>
<totfact> 0.73187345E+06</totfact>
</mgrwt>
</event>
<event>
 3    1  0.1603864E-001  0.1250000E+03  0.7546771E-02  0.1235069E+00
         21   -1    0    0  502  501  0.00000000000E+00  0.00000000000E+00  0.17068922882E+03  0.17068922882E+03  0.00000000000E+00 0. -1.
         21   -1    0    0  501  502 -0.00000000000E+00 -0.00000000000E+00 -0.22885158173E+02  0.22885158173E+02  0.00000000000E+00 0. -1.
         25    1    1    2    0    0  0.00000000000E+00  0.00000000000E+00  0.14780407065E+03  0.19357438700E+03  0.12500000000E+03 0.  0.
<mgrwt>
<rscale>  0 0.12500000E+03</rscale>
<asrwt>0</asrwt>
<pdfrwt beam="1">  1       21 0.26259881E-01 0.12500000E+03</pdfrwt>
<pdfrwt beam="2">  1       21 0.35207937E-02 0.12500000E+03</pdfrwt>
<totfact> 0.65627390E+06</totfact>
</mgrwt>
</event>
<event>
 3    1  0.1603864E-001  0.1250000E+03  0.7546771E-02  0.1235069E+00
         21   -1    0    0  502  501  0.00000000000E+00  0.00000000000E+00  0.16132108992E+03  0.16132108992E+03  0.00000000000E+00 0. -1.
         21   -1    0    0  501  502 -0.00000000000E+00 -0.00000000000E+00 -0.24214130973E+02  0.24214130973E+02  0.00000000000E+00 0. -1.
         25    1    1    2    0    0  0.00000000000E+00  0.00000000000E+00  0.13710695894E+03  0.18553522089E+03  0.12500000000E+03 0.  0.
<mgrwt>
<rscale>  0 0.12500000E+03</rscale>
<asrwt>0</asrwt>
<pdfrwt beam="1">  1       21 0.24818629E-01 0.12500000E+03</pdfrwt>
<pdfrwt beam="2">  1       21 0.37252510E-02 0.12500000E+03</pdfrwt>
<totfact> 0.66522157E+06</totfact>
</mgrwt>
</event>
<event>
 3    1  0.1603864E-001  0.1250000E+03  0.7546771E-02  0.1235069E+00
         21   -1    0    0  502  501  0.00000000000E+00  0.00000000000E+00  0.34493097089E+02  0.34493097089E+02  0.00000000000E+00 0. -1.
         21   -1    0    0  501  502 -0.00000000000E+00 -0.00000000000E+00 -0.11324729669E+03  0.11324729669E+03  0.00000000000E+00 0. -1.
         25    1    1    2    0    0  0.00000000000E+00  0.00000000000E+00 -0.78754199605E+02  0.14774039378E+03  0.12500000000E+03 0.  0.
<mgrwt>
<rscale>  0 0.12500000E+03</rscale>
<asrwt>0</asrwt>
<pdfrwt beam="1">  1       21 0.53066303E-02 0.12500000E+03</pdfrwt>
<pdfrwt beam="2">  1       21 0.17422661E-01 0.12500000E+03</pdfrwt>
<totfact> 0.71044215E+06</totfact>
</mgrwt>
</event>
<event>
 3    1  0.1603864E-001  0.1250000E+03  0.7546771E-02  0.1235069E+00
         21   -1    0    0  502  501  0.00000000000E+00  0.00000000000E+00  0.99839902960E+02  0.99839902960E+02  0.00000000000E+00 0. -1.
         21   -1    0    0  501  502 -0.00000000000E+00 -0.00000000000E+00 -0.39125138188E+02  0.39125138188E+02  0.00000000000E+00 0. -1.
         25    1    1    2    0    0  0.00000000000E+00  0.00000000000E+00  0.60714764772E+02  0.13896504115E+03  0.12500000000E+03 0.  0.
<mgrwt>
<rscale>  0 0.12500000E+03</rscale>
<asrwt>0</asrwt>
<pdfrwt beam="1">  1       21 0.15359985E-01 0.12500000E+03</pdfrwt>
<pdfrwt beam="2">  1       21 0.60192521E-02 0.12500000E+03</pdfrwt>
<totfact> 0.72174709E+06</totfact>
</mgrwt>
</event>
<event>
 3    1  0.1603864E-001  0.1250000E+03  0.7546771E-02  0.1235069E+00
         21   -1    0    0  502  501  0.00000000000E+00  0.00000000000E+00  0.20811566487E+02  0.20811566487E+02  0.00000000000E+00 0.  1.
         21   -1    0    0  501  502 -0.00000000000E+00 -0.00000000000E+00 -0.18769610651E+03  0.18769610651E+03  0.00000000000E+00 0.  1.
         25    1    1    2    0    0  0.00000000000E+00  0.00000000000E+00 -0.16688454002E+03  0.20850767299E+03  0.12500000000E+03 0.  0.
<mgrwt>
<rscale>  0 0.12500000E+03</rscale>
<asrwt>0</asrwt>
<pdfrwt beam="1">  1       21 0.32017794E-02 0.12500000E+03</pdfrwt>
<pdfrwt beam="2">  1       21 0.28876325E-01 0.12500000E+03</pdfrwt>
<totfact> 0.64016888E+06</totfact>
</mgrwt>
</event>
<event>
 3    1  0.1603864E-001  0.1250000E+03  0.7546771E-02  0.1235069E+00
         21   -1    0    0  502  501  0.00000000000E+00  0.00000000000E+00  0.26019837212E+02  0.26019837212E+02  0.00000000000E+00 0.  1.
         21   -1    0    0  501  502 -0.00000000000E+00 -0.00000000000E+00 -0.15012584315E+03  0.15012584315E+03  0.00000000000E+00 0.  1.
         25    1    1    2    0    0  0.00000000000E+00  0.00000000000E+00 -0.12410600594E+03  0.17614568036E+03  0.12500000000E+03 0.  0.
<mgrwt>
<rscale>  0 0.12500000E+03</rscale>
<asrwt>0</asrwt>
<pdfrwt beam="1">  1       21 0.40030518E-02 0.12500000E+03</pdfrwt>
<pdfrwt beam="2">  1       21 0.23096284E-01 0.12500000E+03</pdfrwt>
<totfact> 0.67596466E+06</totfact>
</mgrwt>
</event>
<event>
 3    1  0.1603864E-001  0.1250000E+03  0.7546771E-02  0.1235069E+00
         21   -1    0    0  502  501  0.00000000000E+00  0.00000000000E+00  0.46120781105E+02  0.46120781105E+02  0.00000000000E+00 0. -1.
         21   -1    0    0  501  502 -0.00000000000E+00 -0.00000000000E+00 -0.84696093743E+02  0.84696093743E+02  0.00000000000E+00 0. -1.
         25    1    1    2    0    0  0.00000000000E+00  0.00000000000E+00 -0.38575312638E+02  0.13081687485E+03  0.12500000000E+03 0.  0.
<mgrwt>
<rscale>  0 0.12500000E+03</rscale>
<asrwt>0</asrwt>
<pdfrwt beam="1">  1       21 0.70955048E-02 0.12500000E+03</pdfrwt>
<pdfrwt beam="2">  1       21 0.13030168E-01 0.12500000E+03</pdfrwt>
<totfact> 0.73255360E+06</totfact>
</mgrwt>
</event>
<event>
 3    1  0.1603864E-001  0.1250000E+03  0.7546771E-02  0.1235069E+00
         21   -1    0    0  502  501  0.00000000000E+00  0.00000000000E+00  0.17705115877E+02  0.17705115877E+02  0.00000000000E+00 0.  1.
         21   -1    0    0  501  502 -0.00000000000E+00 -0.00000000000E+00 -0.22062832161E+03  0.22062832161E+03  0.00000000000E+00 0.  1.
         25    1    1    2    0    0  0.00000000000E+00  0.00000000000E+00 -0.20292320574E+03  0.23833343749E+03  0.12500000000E+03 0.  0.
<mgrwt>
<rscale>  0 0.12500000E+03</rscale>
<asrwt>0</asrwt>
<pdfrwt beam="1">  1       21 0.27238642E-02 0.12500000E+03</pdfrwt>
<pdfrwt beam="2">  1       21 0.33942817E-01 0.12500000E+03</pdfrwt>
<totfact> 0.60994307E+06</totfact>
</mgrwt>
</event>
<event>
 3    1  0.1603864E-001  0.1250000E+03  0.7546771E-02  0.1235069E+00
         21   -1    0    0  502  501  0.00000000000E+00  0.00000000000E+00  0.18278468504E+03  0.18278468504E+03  0.00000000000E+00 0.  1.
         21   -1    0    0  501  502 -0.00000000000E+00 -0.00000000000E+00 -0.21370772935E+02  0.21370772935E+02  0.00000000000E+00 0.  1.
         25    1    1    2    0    0  0.00000000000E+00  0.00000000000E+00  0.16141391210E+03  0.20415545797E+03  0.12500000000E+03 0.  0.
<mgrwt>
<rscale>  0 0.12500000E+03</rscale>
<asrwt>0</asrwt>
<pdfrwt beam="1">  1       21 0.28120720E-01 0.12500000E+03</pdfrwt>
<pdfrwt beam="2">  1       21 0.32878113E-02 0.12500000E+03</pdfrwt>
<totfact> 0.64479743E+06</totfact>
</mgrwt>
</event>
<event>
 3    1  0.1603864E-001  0.1250000E+03  0.7546771E-02  0.1235069E+00
         21   -1    0    0  502  501  0.00000000000E+00  0.00000000000E+00  0.21104582032E+03  0.21104582032E+03  0.00000000000E+00 0.  1.
         21   -1    0    0  501  502 -0.00000000000E+00 -0.00000000000E+00 -0.18509013796E+02  0.18509013796E+02  0.00000000000E+00 0.  1.
         25    1    1    2    0    0  0.00000000000E+00  0.00000000000E+00  0.19253680653E+03  0.22955483412E+03  0.12500000000E+03 0.  0.
<mgrwt>
<rscale>  0 0.12500000E+03</rscale>
<asrwt>0</asrwt>
<pdfrwt beam="1">  1       21 0.32468586E-01 0.12500000E+03</pdfrwt>
<pdfrwt beam="2">  1       21 0.28475407E-02 0.12500000E+03</pdfrwt>
<totfact> 0.61858310E+06</totfact>
</mgrwt>
</event>
<event>
 3    1  0.1603864E-001  0.1250000E+03  0.7546771E-02  0.1235069E+00
         21   -1    0    0  502  501  0.00000000000E+00  0.00000000000E+00  0.32097012669E+01  0.32097012669E+01  0.00000000000E+00 0.  1.
         21   -1    0    0  501  502 -0.00000000000E+00 -0.00000000000E+00 -0.12170135708E+04  0.12170135708E+04  0.00000000000E+00 0.  1.
         25    1    1    2    0    0  0.00000000000E+00  0.00000000000E+00 -0.12138038695E+04  0.12202232720E+04  0.12500000000E+03 0.  0.
<mgrwt>
<rscale>  0 0.12500000E+03</rscale>
<asrwt>0</asrwt>
<pdfrwt beam="1">  1       21 0.49379988E-03 0.12500000E+03</pdfrwt>
<pdfrwt beam="2">  1       21 0.18723298E+00 0.12500000E+03</pdfrwt>
<totfact> 0.18744952E+06</totfact>
</mgrwt>
</event>
<event>
 3    1  0.1603864E-001  0.1250000E+03  0.7546771E-02  0.1235069E+00
         21   -1    0    0  502  501  0.00000000000E+00  0.00000000000E+00  0.39226591670E+02  0.39226591670E+02  0.00000000000E+00 0.  1.
         21   -1    0    0  501  502 -0.00000000000E+00 -0.00000000000E+00 -0.99581682571E+02  0.99581682571E+02  0.00000000000E+00 0.  1.
         25    1    1    2    0    0  0.00000000000E+00  0.00000000000E+00 -0.60355090902E+02  0.13880827424E+03  0.12500000000E+03 0.  0.
<mgrwt>
<rscale>  0 0.12500000E+03</rscale>
<asrwt>0</asrwt>
<pdfrwt beam="1">  1       21 0.60348603E-02 0.12500000E+03</pdfrwt>
<pdfrwt beam="2">  1       21 0.15320259E-01 0.12500000E+03</pdfrwt>
<totfact> 0.72195270E+06</totfact>
</mgrwt>
</event>
<event>
 3    1  0.1603864E-001  0.1250000E+03  0.7546771E-02  0.1235069E+00
         21   -1    0    0  502  501  0.00000000000E+00  0.00000000000E+00  0.58518705476E+02  0.58518705476E+02  0.00000000000E+00 0. -1.
         21   -1    0    0  501  502 -0.00000000000E+00 -0.00000000000E+00 -0.66752160155E+02  0.66752160155E+02  0.00000000000E+00 0. -1.
         25    1    1    2    0    0  0.00000000000E+00  0.00000000000E+00 -0.82334546792E+01  0.12527086563E+03  0.12500000000E+03 0.  0.
<mgrwt>
<rscale>  0 0.12500000E+03</rscale>
<asrwt>0</asrwt>
<pdfrwt beam="1">  1       21 0.90028778E-02 0.12500000E+03</pdfrwt>
<pdfrwt beam="2">  1       21 0.10269563E-01 0.12500000E+03</pdfrwt>
<totfact> 0.74007005E+06</totfact>
</mgrwt>
</event>
<event>
 3    1  0.1603864E-001  0.1250000E+03  0.7546771E-02  0.1235069E+00
         21   -1    0    0  502  501  0.00000000000E+00  0.00000000000E+00  0.12655806990E+04  0.12655806990E+04  0.00000000000E+00 0.  1.
         21   -1    0    0  501  502 -0.00000000000E+00 -0.00000000000E+00 -0.30865277916E+01  0.30865277916E+01  0.00000000000E+00 0.  1.
         25    1    1    2    0    0  0.00000000000E+00  0.00000000000E+00  0.12624941712E+04  0.12686672268E+04  0.12500000000E+03 0.  0.
<mgrwt>
<rscale>  0 0.12500000E+03</rscale>
<asrwt>0</asrwt>
<pdfrwt beam="1">  1       21 0.19470431E+00 0.12500000E+03</pdfrwt>
<pdfrwt beam="2">  1       21 0.47485144E-03 0.12500000E+03</pdfrwt>
<totfact> 0.17824527E+06</totfact>
</mgrwt>
</event>
<event>
 3    1  0.1603864E-001  0.1250000E+03  0.7546771E-02  0.1235069E+00
         21   -1    0    0  502  501  0.00000000000E+00  0.00000000000E+00  0.10110164612E+04  0.10110164612E+04  0.00000000000E+00 0. -1.
         21   -1    0    0  501  502 -0.00000000000E+00 -0.00000000000E+00 -0.38636858546E+01  0.38636858546E+01  0.00000000000E+00 0. -1.
         25    1    1    2    0    0  0.00000000000E+00  0.00000000000E+00  0.10071527754E+04  0.10148801471E+04  0.12500000000E+03 0.  0.
<mgrwt>
<rscale>  0 0.12500000E+03</rscale>
<asrwt>0</asrwt>
<pdfrwt beam="1">  1       21 0.15554078E+00 0.12500000E+03</pdfrwt>
<pdfrwt beam="2">  1       21 0.59441402E-03 0.12500000E+03</pdfrwt>
<totfact> 0.23249897E+06</totfact>
</mgrwt>
</event>
<event>
 3    1  0.1603864E-001  0.1250000E+03  0.7546771E-02  0.1235069E+00
         21   -1    0    0  502  501  0.00000000000E+00  0.00000000000E+00  0.21517860535E+02  0.21517860535E+02  0.00000000000E+00 0.  1.
         21   -1    0    0  501  502 -0.00000000000E+00 -0.00000000000E+00 -0.18153524109E+03  0.18153524109E+03  0.00000000000E+00 0.  1.
         25    1    1    2    0    0  0.00000000000E+00  0.00000000000E+00 -0.16001738056E+03  0.20305310163E+03  0.12500000000E+03 0.  0.
<mgrwt>
<rscale>  0 0.12500000E+03</rscale>
<asrwt>0</asrwt>
<pdfrwt beam="1">  1       21 0.33104401E-02 0.12500000E+03</pdfrwt>
<pdfrwt beam="2">  1       21 0.27928498E-01 0.12500000E+03</pdfrwt>
<totfact> 0.64597922E+06</totfact>
</mgrwt>
</event>
<event>
 3    1  0.1603864E-001  0.1250000E+03  0.7546771E-02  0.1235069E+00
         21   -1    0    0  502  501  0.00000000000E+00  0.00000000000E+00  0.33818050889E+03  0.33818050889E+03  0.00000000000E+00 0.  1.
         21   -1    0    0  501  502 -0.00000000000E+00 -0.00000000000E+00 -0.11550783967E+02  0.11550783967E+02  0.00000000000E+00 0.  1.
         25    1    1    2    0    0  0.00000000000E+00  0.00000000000E+00  0.32662972493E+03  0.34973129286E+03  0.12500000000E+03 0.  0.
<mgrwt>
<rscale>  0 0.12500000E+03</rscale>
<asrwt>0</asrwt>
<pdfrwt beam="1">  1       21 0.52027763E-01 0.12500000E+03</pdfrwt>
<pdfrwt beam="2">  1       21 0.17770439E-02 0.12500000E+03</pdfrwt>
<totfact> 0.51558286E+06</totfact>
</mgrwt>
</event>
<event>
 3    1  0.1603864E-001  0.1250000E+03  0.7546771E-02  0.1235069E+00
         21   -1    0    0  502  501  0.00000000000E+00  0.00000000000E+00  0.70577975035E+01  0.70577975035E+01  0.00000000000E+00 0. -1.
         21   -1    0    0  501  502 -0.00000000000E+00 -0.00000000000E+00 -0.55346586497E+03  0.55346586497E+03  0.00000000000E+00 0. -1.
         25    1    1    2    0    0  0.00000000000E+00  0.00000000000E+00 -0.54640806746E+03  0.56052366247E+03  0.12500000000E+03 0.  0.
<mgrwt>
<rscale>  0 0.12500000E+03</rscale>
<asrwt>0</asrwt>
<pdfrwt beam="1">  1       21 0.10858150E-02 0.12500000E+03</pdfrwt>
<pdfrwt beam="2">  1       21 0.85148595E-01 0.12500000E+03</pdfrwt>
<totfact> 0.38941008E+06</totfact>
</mgrwt>
</event>
<event>
 3    1  0.1603864E-001  0.1250000E+03  0.7546771E-02  0.1235069E+00
         21   -1    0    0  502  501  0.00000000000E+00  0.00000000000E+00  0.92899778786E+02  0.92899778786E+02  0.00000000000E+00 0. -1.
         21   -1    0    0  501  502 -0.00000000000E+00 -0.00000000000E+00 -0.42048001094E+02  0.42048001094E+02  0.00000000000E+00 0. -1.
         25    1    1    2    0    0  0.00000000000E+00  0.00000000000E+00  0.50851777693E+02  0.13494777988E+03  0.12500000000E+03 0.  0.
<mgrwt>
<rscale>  0 0.12500000E+03</rscale>
<asrwt>0</asrwt>
<pdfrwt beam="1">  1       21 0.14292274E-01 0.12500000E+03</pdfrwt>
<pdfrwt beam="2">  1       21 0.64689233E-02 0.12500000E+03</pdfrwt>
<totfact> 0.72703387E+06</totfact>
</mgrwt>
</event>
<event>
 3    1  0.1603864E-001  0.1250000E+03  0.7546771E-02  0.1235069E+00
         21   -1    0    0  502  501  0.00000000000E+00  0.00000000000E+00  0.59392441482E+02  0.59392441482E+02  0.00000000000E+00 0.  1.
         21   -1    0    0  501  502 -0.00000000000E+00 -0.00000000000E+00 -0.65770153618E+02  0.65770153618E+02  0.00000000000E+00 0.  1.
         25    1    1    2    0    0  0.00000000000E+00  0.00000000000E+00 -0.63777121354E+01  0.12516259510E+03  0.12500000000E+03 0.  0.
<mgrwt>
<rscale>  0 0.12500000E+03</rscale>
<asrwt>0</asrwt>
<pdfrwt beam="1">  1       21 0.91372987E-02 0.12500000E+03</pdfrwt>
<pdfrwt beam="2">  1       21 0.10118485E-01 0.12500000E+03</pdfrwt>
<totfact> 0.74021623E+06</totfact>
</mgrwt>
</event>
<event>
 3    1  0.1603864E-001  0.1250000E+03  0.7546771E-02  0.1235069E+00
         21   -1    0    0  502  501  0.00000000000E+00  0.00000000000E+00  0.78212802605E+01  0.78212802605E+01  0.00000000000E+00 0.  1.
         21   -1    0    0  501  502 -0.00000000000E+00 -0.00000000000E+00 -0.49943869416E+03  0.49943869416E+03  0.00000000000E+00 0.  1.
         25    1    1    2    0    0  0.00000000000E+00  0.00000000000E+00 -0.49161741390E+03  0.50725997442E+03  0.12500000000E+03 0.  0.
<mgrwt>
<rscale>  0 0.12500000E+03</rscale>
<asrwt>0</asrwt>
<pdfrwt beam="1">  1       21 0.12032735E-02 0.12500000E+03</pdfrwt>
<pdfrwt beam="2">  1       21 0.76836749E-01 0.12500000E+03</pdfrwt>
<totfact> 0.41653054E+06</totfact>
</mgrwt>
</event>
<event>
 3    1  0.1603864E-001  0.1250000E+03  0.7546771E-02  0.1235069E+00
         21   -1    0    0  502  501  0.00000000000E+00  0.00000000000E+00  0.95439965312E+01  0.95439965312E+01  0.00000000000E+00 0.  1.
         21   -1    0    0  501  502 -0.00000000000E+00 -0.00000000000E+00 -0.40928870701E+03  0.40928870701E+03  0.00000000000E+00 0.  1.
         25    1    1    2    0    0  0.00000000000E+00  0.00000000000E+00 -0.39974471048E+03  0.41883270355E+03  0.12500000000E+03 0.  0.
<mgrwt>
<rscale>  0 0.12500000E+03</rscale>
<asrwt>0</asrwt>
<pdfrwt beam="1">  1       21 0.14683070E-02 0.12500000E+03</pdfrwt>
<pdfrwt beam="2">  1       21 0.62967500E-01 0.12500000E+03</pdfrwt>
<totfact> 0.46816777E+06</totfact>
</mgrwt>
</event>
<event>
 3    1  0.1603864E-001  0.1250000E+03  0.7546771E-02  0.1235069E+00
         21   -1    0    0  502  501  0.00000000000E+00  0.00000000000E+00  0.19179745724E+03  0.19179745724E+03  0.00000000000E+00 0. -1.
         21   -1    0    0  501  502 -0.00000000000E+00 -0.00000000000E+00 -0.20366536952E+02  0.20366536952E+02  0.00000000000E+00 0. -1.
         25    1    1    2    0    0  0.00000000000E+00  0.00000000000E+00  0.17143092028E+03  0.21216399419E+03  0.12500000000E+03 0.  0.
<mgrwt>
<rscale>  0 0.12500000E+03</rscale>
<asrwt>0</asrwt>
<pdfrwt beam="1">  1       21 0.29507300E-01 0.12500000E+03</pdfrwt>
<pdfrwt beam="2">  1       21 0.31333135E-02 0.12500000E+03</pdfrwt>
<totfact> 0.63632576E+06</totfact>
</mgrwt>
</event>
<event>
 3    1  0.1603864E-001  0.1250000E+03  0.7546771E-02  0.1235069E+00
         21   -1    0    0  502  501  0.00000000000E+00  0.00000000000E+00  0.10631050747E+04  0.10631050747E+04  0.00000000000E+00 0.  1.
         21   -1    0    0  501  502 -0.00000000000E+00 -0.00000000000E+00 -0.36743780956E+01  0.36743780956E+01  0.00000000000E+00 0.  1.
         25    1    1    2    0    0  0.00000000000E+00  0.00000000000E+00  0.10594306966E+04  0.10667794528E+04  0.12500000000E+03 0.  0.
<mgrwt>
<rscale>  0 0.12500000E+03</rscale>
<asrwt>0</asrwt>
<pdfrwt beam="1">  1       21 0.16355438E+00 0.12500000E+03</pdfrwt>
<pdfrwt beam="2">  1       21 0.56528978E-03 0.12500000E+03</pdfrwt>
<totfact> 0.22005800E+06</totfact>
</mgrwt>
</event>
<event>
 3    1  0.1603864E-001  0.1250000E+03  0.7546771E-02  0.1235069E+00
         21   -1    0    0  502  501  0.00000000000E+00  0.00000000000E+00  0.77226051606E+02  0.77226051606E+02  0.00000000000E+00 0. -1.
         21   -1    0    0  501  502 -0.00000000000E+00 -0.00000000000E+00 -0.50582024055E+02  0.50582024055E+02  0.00000000000E+00 0. -1.
         25    1    1    2    0    0  0.00000000000E+00  0.00000000000E+00  0.26644027551E+02  0.12780807566E+03  0.12500000000E+03 0.  0.
<mgrwt>
<rscale>  0 0.12500000E+03</rscale>
<asrwt>0</asrwt>
<pdfrwt beam="1">  1       21 0.11880931E-01 0.12500000E+03</pdfrwt>
<pdfrwt beam="2">  1       21 0.77818498E-02 0.12500000E+03</pdfrwt>
<totfact> 0.73659502E+06</totfact>
</mgrwt>
</event>
<event>
 3    1  0.1603864E-001  0.1250000E+03  0.7546771E-02  0.1235069E+00
         21   -1    0    0  502  501  0.00000000000E+00  0.00000000000E+00  0.46783225006E+03  0.46783225006E+03  0.00000000000E+00 0.  1.
         21   -1    0    0  501  502 -0.00000000000E+00 -0.00000000000E+00 -0.83496808941E+01  0.83496808941E+01  0.00000000000E+00 0.  1.
         25    1    1    2    0    0  0.00000000000E+00  0.00000000000E+00  0.45948256917E+03  0.47618193096E+03  0.12500000000E+03 0.  0.
<mgrwt>
<rscale>  0 0.12500000E+03</rscale>
<asrwt>0</asrwt>
<pdfrwt beam="1">  1       21 0.71974172E-01 0.12500000E+03</pdfrwt>
<pdfrwt beam="2">  1       21 0.12845667E-02 0.12500000E+03</pdfrwt>
<totfact> 0.43365956E+06</totfact>
</mgrwt>
</event>
<event>
 3    1  0.1603864E-001  0.1250000E+03  0.7546771E-02  0.1235069E+00
         21   -1    0    0  502  501  0.00000000000E+00  0.00000000000E+00  0.71096934837E+01  0.71096934837E+01  0.00000000000E+00 0. -1.
         21   -1    0    0  501  502 -0.00000000000E+00 -0.00000000000E+00 -0.54942593643E+03  0.54942593643E+03  0.00000000000E+00 0. -1.
         25    1    1    2    0    0  0.00000000000E+00  0.00000000000E+00 -0.54231624295E+03  0.55653562991E+03  0.12500000000E+03 0.  0.
<mgrwt>
<rscale>  0 0.12500000E+03</rscale>
<asrwt>0</asrwt>
<pdfrwt beam="1">  1       21 0.10937989E-02 0.12500000E+03</pdfrwt>
<pdfrwt beam="2">  1       21 0.84527075E-01 0.12500000E+03</pdfrwt>
<totfact> 0.39135044E+06</totfact>
</mgrwt>
</event>
<event>
 3    1  0.1603864E-001  0.1250000E+03  0.7546771E-02  0.1235069E+00
         21   -1    0    0  502  501  0.00000000000E+00  0.00000000000E+00  0.33818023563E+03  0.33818023563E+03  0.00000000000E+00 0. -1.
         21   -1    0    0  501  502 -0.00000000000E+00 -0.00000000000E+00 -0.11550793300E+02  0.11550793300E+02  0.00000000000E+00 0. -1.
         25    1    1    2    0    0  0.00000000000E+00  0.00000000000E+00  0.32662944233E+03  0.34973102893E+03  0.12500000000E+03 0.  0.
<mgrwt>
<rscale>  0 0.12500000E+03</rscale>
<asrwt>0</asrwt>
<pdfrwt beam="1">  1       21 0.52027721E-01 0.12500000E+03</pdfrwt>
<pdfrwt beam="2">  1       21 0.17770454E-02 0.12500000E+03</pdfrwt>
<totfact> 0.51558305E+06</totfact>
</mgrwt>
</event>
<event>
 3    1  0.1603864E-001  0.1250000E+03  0.7546771E-02  0.1235069E+00
         21   -1    0    0  502  501  0.00000000000E+00  0.00000000000E+00  0.20058191428E+03  0.20058191428E+03  0.00000000000E+00 0.  1.
         21   -1    0    0  501  502 -0.00000000000E+00 -0.00000000000E+00 -0.19474587298E+02  0.19474587298E+02  0.00000000000E+00 0.  1.
         25    1    1    2    0    0  0.00000000000E+00  0.00000000000E+00  0.18110732698E+03  0.22005650157E+03  0.12500000000E+03 0.  0.
<mgrwt>
<rscale>  0 0.12500000E+03</rscale>
<asrwt>0</asrwt>
<pdfrwt beam="1">  1       21 0.30858755E-01 0.12500000E+03</pdfrwt>
<pdfrwt beam="2">  1       21 0.29960905E-02 0.12500000E+03</pdfrwt>
<totfact> 0.62816761E+06</totfact>
</mgrwt>
</event>
<event>
 3    1  0.1603864E-001  0.1250000E+03  0.7546771E-02  0.1235069E+00
         21   -1    0    0  502  501  0.00000000000E+00  0.00000000000E+00  0.28857825200E+02  0.28857825200E+02  0.00000000000E+00 0.  1.
         21   -1    0    0  501  502 -0.00000000000E+00 -0.00000000000E+00 -0.13536189830E+03  0.13536189830E+03  0.00000000000E+00 0.  1.
         25    1    1    2    0    0  0.00000000000E+00  0.00000000000E+00 -0.10650407310E+03  0.16421972350E+03  0.12500000000E+03 0.  0.
<mgrwt>
<rscale>  0 0.12500000E+03</rscale>
<asrwt>0</asrwt>
<pdfrwt beam="1">  1       21 0.44396654E-02 0.12500000E+03</pdfrwt>
<pdfrwt beam="2">  1       21 0.20824907E-01 0.12500000E+03</pdfrwt>
<totfact> 0.69007532E+06</totfact>
</mgrwt>
</event>
<event>
 3    1  0.1603864E-001  0.1250000E+03  0.7546771E-02  0.1235069E+00
         21   -1    0    0  502  501  0.00000000000E+00  0.00000000000E+00  0.97234533084E+02  0.97234533084E+02  0.00000000000E+00 0. -1.
         21   -1    0    0  501  502 -0.00000000000E+00 -0.00000000000E+00 -0.40173484421E+02  0.40173484421E+02  0.00000000000E+00 0. -1.
         25    1    1    2    0    0  0.00000000000E+00  0.00000000000E+00  0.57061048664E+02  0.13740801750E+03  0.12500000000E+03 0.  0.
<mgrwt>
<rscale>  0 0.12500000E+03</rscale>
<asrwt>0</asrwt>
<pdfrwt beam="1">  1       21 0.14959159E-01 0.12500000E+03</pdfrwt>
<pdfrwt beam="2">  1       21 0.61805361E-02 0.12500000E+03</pdfrwt>
<totfact> 0.72379177E+06</totfact>
</mgrwt>
</event>
<event>
 3    1  0.1603864E-001  0.1250000E+03  0.7546771E-02  0.1235069E+00
         21   -1    0    0  502  501  0.00000000000E+00  0.00000000000E+00  0.14211829142E+03  0.14211829142E+03  0.00000000000E+00 0.  1.
         21   -1    0    0  501  502 -0.00000000000E+00 -0.00000000000E+00 -0.27485906007E+02  0.27485906007E+02  0.00000000000E+00 0.  1.
         25    1    1    2    0    0  0.00000000000E+00  0.00000000000E+00  0.11463238542E+03  0.16960419743E+03  0.12500000000E+03 0.  0.
<mgrwt>
<rscale>  0 0.12500000E+03</rscale>
<asrwt>0</asrwt>
<pdfrwt beam="1">  1       21 0.21864352E-01 0.12500000E+03</pdfrwt>
<pdfrwt beam="2">  1       21 0.42286010E-02 0.12500000E+03</pdfrwt>
<totfact> 0.68364586E+06</totfact>
</mgrwt>
</event>
<event>
 3    1  0.1603864E-001  0.1250000E+03  0.7546771E-02  0.1235069E+00
         21   -1    0    0  502  501  0.00000000000E+00  0.00000000000E+00  0.10545665959E+02  0.10545665959E+02  0.00000000000E+00 0. -1.
         21   -1    0    0  501  502 -0.00000000000E+00 -0.00000000000E+00 -0.37041283266E+03  0.37041283266E+03  0.00000000000E+00 0. -1.
         25    1    1    2    0    0  0.00000000000E+00  0.00000000000E+00 -0.35986716670E+03  0.38095849862E+03  0.12500000000E+03 0.  0.
<mgrwt>
<rscale>  0 0.12500000E+03</rscale>
<asrwt>0</asrwt>
<pdfrwt beam="1">  1       21 0.16224104E-02 0.12500000E+03</pdfrwt>
<pdfrwt beam="2">  1       21 0.56986581E-01 0.12500000E+03</pdfrwt>
<totfact> 0.49330230E+06</totfact>
</mgrwt>
</event>
<event>
 3    1  0.1603864E-001  0.1250000E+03  0.7546771E-02  0.1235069E+00
         21   -1    0    0  502  501  0.00000000000E+00  0.00000000000E+00  0.18765656858E+02  0.18765656858E+02  0.00000000000E+00 0.  1.
         21   -1    0    0  501  502 -0.00000000000E+00 -0.00000000000E+00 -0.20815951339E+03  0.20815951339E+03  0.00000000000E+00 0.  1.
         25    1    1    2    0    0  0.00000000000E+00  0.00000000000E+00 -0.18939385654E+03  0.22692517025E+03  0.12500000000E+03 0.  0.
<mgrwt>
<rscale>  0 0.12500000E+03</rscale>
<asrwt>0</asrwt>
<pdfrwt beam="1">  1       21 0.28870240E-02 0.12500000E+03</pdfrwt>
<pdfrwt beam="2">  1       21 0.32024542E-01 0.12500000E+03</pdfrwt>
<totfact> 0.62121315E+06</totfact>
</mgrwt>
</event>
<event>
 3    1  0.1603864E-001  0.1250000E+03  0.7546771E-02  0.1235069E+00
         21   -1    0    0  502  501  0.00000000000E+00  0.00000000000E+00  0.48802221646E+02  0.48802221646E+02  0.00000000000E+00 0.  1.
         21   -1    0    0  501  502 -0.00000000000E+00 -0.00000000000E+00 -0.80042462582E+02  0.80042462582E+02  0.00000000000E+00 0.  1.
         25    1    1    2    0    0  0.00000000000E+00  0.00000000000E+00 -0.31240240936E+02  0.12884468423E+03  0.12500000000E+03 0.  0.
<mgrwt>
<rscale>  0 0.12500000E+03</rscale>
<asrwt>0</asrwt>
<pdfrwt beam="1">  1       21 0.75080341E-02 0.12500000E+03</pdfrwt>
<pdfrwt beam="2">  1       21 0.12314225E-01 0.12500000E+03</pdfrwt>
<totfact> 0.73519748E+06</totfact>
</mgrwt>
</event>
<event>
 3    1  0.1603864E-001  0.1250000E+03  0.7546771E-02  0.1235069E+00
         21   -1    0    0  502  501  0.00000000000E+00  0.00000000000E+00  0.46494151533E+03  0.46494151533E+03  0.00000000000E+00 0. -1.
         21   -1    0    0  501  502 -0.00000000000E+00 -0.00000000000E+00 -0.84015943323E+01  0.84015943323E+01  0.00000000000E+00 0. -1.
         25    1    1    2    0    0  0.00000000000E+00  0.00000000000E+00  0.45653992099E+03  0.47334310966E+03  0.12500000000E+03 0.  0.
<mgrwt>
<rscale>  0 0.12500000E+03</rscale>
<asrwt>0</asrwt>
<pdfrwt beam="1">  1       21 0.71529444E-01 0.12500000E+03</pdfrwt>
<pdfrwt beam="2">  1       21 0.12925533E-02 0.12500000E+03</pdfrwt>
<totfact> 0.43527642E+06</totfact>
</mgrwt>
</event>
<event>
 3    1  0.1603864E-001  0.1250000E+03  0.7546771E-02  0.1235069E+00
         21   -1    0    0  502  501  0.00000000000E+00  0.00000000000E+00  0.10325389630E+03  0.10325389630E+03  0.00000000000E+00 0.  1.
         21   -1    0    0  501  502 -0.00000000000E+00 -0.00000000000E+00 -0.37831502150E+02  0.37831502150E+02  0.00000000000E+00 0.  1.
         25    1    1    2    0    0  0.00000000000E+00  0.00000000000E+00  0.65422394155E+02  0.14108539845E+03  0.12500000000E+03 0.  0.
<mgrwt>
<rscale>  0 0.12500000E+03</rscale>
<asrwt>0</asrwt>
<pdfrwt beam="1">  1       21 0.15885215E-01 0.12500000E+03</pdfrwt>
<pdfrwt beam="2">  1       21 0.58202312E-02 0.12500000E+03</pdfrwt>
<totfact> 0.71897927E+06</totfact>
</mgrwt>
</event>
<event>
 3    1  0.1603864E-001  0.1250000E+03  0.7546771E-02  0.1235069E+00
         21   -1    0    0  502  501  0.00000000000E+00  0.00000000000E+00  0.81554925882E+03  0.81554925882E+03  0.00000000000E+00 0.  1.
         21   -1    0    0  501  502 -0.00000000000E+00 -0.00000000000E+00 -0.47897168169E+01  0.47897168169E+01  0.00000000000E+00 0.  1.
         25    1    1    2    0    0  0.00000000000E+00  0.00000000000E+00  0.81075954201E+03  0.82033897564E+03  0.12500000000E+03 0.  0.
<mgrwt>
<rscale>  0 0.12500000E+03</rscale>
<asrwt>0</asrwt>
<pdfrwt beam="1">  1       21 0.12546901E+00 0.12500000E+03</pdfrwt>
<pdfrwt beam="2">  1       21 0.73688016E-03 0.12500000E+03</pdfrwt>
<totfact> 0.28699956E+06</totfact>
</mgrwt>
</event>
<event>
 3    1  0.1603864E-001  0.1250000E+03  0.7546771E-02  0.1235069E+00
         21   -1    0    0  502  501  0.00000000000E+00  0.00000000000E+00  0.29364269207E+03  0.29364269207E+03  0.00000000000E+00 0.  1.
         21   -1    0    0  501  502 -0.00000000000E+00 -0.00000000000E+00 -0.13302731876E+02  0.13302731876E+02  0.00000000000E+00 0.  1.
         25    1    1    2    0    0  0.00000000000E+00  0.00000000000E+00  0.28033996019E+03  0.30694542394E+03  0.12500000000E+03 0.  0.
<mgrwt>
<rscale>  0 0.12500000E+03</rscale>
<asrwt>0</asrwt>
<pdfrwt beam="1">  1       21 0.45175794E-01 0.12500000E+03</pdfrwt>
<pdfrwt beam="2">  1       21 0.20465744E-02 0.12500000E+03</pdfrwt>
<totfact> 0.54883878E+06</totfact>
</mgrwt>
</event>
<event>
 3    1  0.1603864E-001  0.1250000E+03  0.7546771E-02  0.1235069E+00
         21   -1    0    0  502  501  0.00000000000E+00  0.00000000000E+00  0.88926643454E+02  0.88926643454E+02  0.00000000000E+00 0.  1.
         21   -1    0    0  501  502 -0.00000000000E+00 -0.00000000000E+00 -0.43926655143E+02  0.43926655143E+02  0.00000000000E+00 0.  1.
         25    1    1    2    0    0  0.00000000000E+00  0.00000000000E+00  0.44999988311E+02  0.13285329860E+03  0.12500000000E+03 0.  0.
<mgrwt>
<rscale>  0 0.12500000E+03</rscale>
<asrwt>0</asrwt>
<pdfrwt beam="1">  1       21 0.13681022E-01 0.12500000E+03</pdfrwt>
<pdfrwt beam="2">  1       21 0.67579470E-02 0.12500000E+03</pdfrwt>
<totfact> 0.72981994E+06</totfact>
</mgrwt>
</event>
<event>
 3    1  0.1603864E-001  0.1250000E+03  0.7546771E-02  0.1235069E+00
         21   -1    0    0  502  501  0.00000000000E+00  0.00000000000E+00  0.59362277239E+02  0.59362277239E+02  0.00000000000E+00 0. -1.
         21   -1    0    0  501  502 -0.00000000000E+00 -0.00000000000E+00 -0.65803573947E+02  0.65803573947E+02  0.00000000000E+00 0. -1.
         25    1    1    2    0    0  0.00000000000E+00  0.00000000000E+00 -0.64412967077E+01  0.12516585119E+03  0.12500000000E+03 0.  0.
<mgrwt>
<rscale>  0 0.12500000E+03</rscale>
<asrwt>0</asrwt>
<pdfrwt beam="1">  1       21 0.91326581E-02 0.12500000E+03</pdfrwt>
<pdfrwt beam="2">  1       21 0.10123627E-01 0.12500000E+03</pdfrwt>
<totfact> 0.74021183E+06</totfact>
</mgrwt>
</event>
<event>
 3    1  0.1603864E-001  0.1250000E+03  0.7546771E-02  0.1235069E+00
         21   -1    0    0  502  501  0.00000000000E+00  0.00000000000E+00  0.26868500302E+03  0.26868500302E+03  0.00000000000E+00 0.  1.
         21   -1    0    0  501  502 -0.00000000000E+00 -0.00000000000E+00 -0.14538399822E+02  0.14538399822E+02  0.00000000000E+00 0.  1.
         25    1    1    2    0    0  0.00000000000E+00  0.00000000000E+00  0.25414660320E+03  0.28322340284E+03  0.12500000000E+03 0.  0.
<mgrwt>
<rscale>  0 0.12500000E+03</rscale>
<asrwt>0</asrwt>
<pdfrwt beam="1">  1       21 0.41336151E-01 0.12500000E+03</pdfrwt>
<pdfrwt beam="2">  1       21 0.22366771E-02 0.12500000E+03</pdfrwt>
<totfact> 0.56879845E+06</totfact>
</mgrwt>
</event>
<event>
 3    1  0.1603864E-001  0.1250000E+03  0.7546771E-02  0.1235069E+00
         21   -1    0    0  502  501  0.00000000000E+00  0.00000000000E+00  0.16428655563E+03  0.16428655563E+03  0.00000000000E+00 0. -1.
         21   -1    0    0  501  502 -0.00000000000E+00 -0.00000000000E+00 -0.23777052146E+02  0.23777052146E+02  0.00000000000E+00 0. -1.
         25    1    1    2    0    0  0.00000000000E+00  0.00000000000E+00  0.14050950348E+03  0.18806360777E+03  0.12500000000E+03 0.  0.
<mgrwt>
<rscale>  0 0.12500000E+03</rscale>
<asrwt>0</asrwt>
<pdfrwt beam="1">  1       21 0.25274854E-01 0.12500000E+03</pdfrwt>
<pdfrwt beam="2">  1       21 0.36580081E-02 0.12500000E+03</pdfrwt>
<totfact> 0.66238325E+06</totfact>
</mgrwt>
</event>
<event>
 3    1  0.1603864E-001  0.1250000E+03  0.7546771E-02  0.1235069E+00
         21   -1    0    0  502  501  0.00000000000E+00  0.00000000000E+00  0.13197732408E+03  0.13197732408E+03  0.00000000000E+00 0.  1.
         21   -1    0    0  501  502 -0.00000000000E+00 -0.00000000000E+00 -0.29597887570E+02  0.29597887570E+02  0.00000000000E+00 0.  1.
         25    1    1    2    0    0  0.00000000000E+00  0.00000000000E+00  0.10237943651E+03  0.16157521165E+03  0.12500000000E+03 0.  0.
<mgrwt>
<rscale>  0 0.12500000E+03</rscale>
<asrwt>0</asrwt>
<pdfrwt beam="1">  1       21 0.20304203E-01 0.12500000E+03</pdfrwt>
<pdfrwt beam="2">  1       21 0.45535212E-02 0.12500000E+03</pdfrwt>
<totfact> 0.69327533E+06</totfact>
</mgrwt>
</event>
<event>
 3    1  0.1603864E-001  0.1250000E+03  0.7546771E-02  0.1235069E+00
         21   -1    0    0  502  501  0.00000000000E+00  0.00000000000E+00  0.98476376471E+02  0.98476376471E+02  0.00000000000E+00 0. -1.
         21   -1    0    0  501  502 -0.00000000000E+00 -0.00000000000E+00 -0.39666873823E+02  0.39666873823E+02  0.00000000000E+00 0. -1.
         25    1    1    2    0    0  0.00000000000E+00  0.00000000000E+00  0.58809502649E+02  0.13814325029E+03  0.12500000000E+03 0.  0.
<mgrwt>
<rscale>  0 0.12500000E+03</rscale>
<asrwt>0</asrwt>
<pdfrwt beam="1">  1       21 0.15150212E-01 0.12500000E+03</pdfrwt>
<pdfrwt beam="2">  1       21 0.61025960E-02 0.12500000E+03</pdfrwt>
<totfact> 0.72282640E+06</totfact>
</mgrwt>
</event>
<event>
 3    1  0.1603864E-001  0.1250000E+03  0.7546771E-02  0.1235069E+00
         21   -1    0    0  502  501  0.00000000000E+00  0.00000000000E+00  0.12058742994E+03  0.12058742994E+03  0.00000000000E+00 0.  1.
         21   -1    0    0  501  502 -0.00000000000E+00 -0.00000000000E+00 -0.32393509023E+02  0.32393509023E+02  0.00000000000E+00 0.  1.
         25    1    1    2    0    0  0.00000000000E+00  0.00000000000E+00  0.88193920922E+02  0.15298093897E+03  0.12500000000E+03 0.  0.
<mgrwt>
<rscale>  0 0.12500000E+03</rscale>
<asrwt>0</asrwt>
<pdfrwt beam="1">  1       21 0.18551912E-01 0.12500000E+03</pdfrwt>
<pdfrwt beam="2">  1       21 0.49836168E-02 0.12500000E+03</pdfrwt>
<totfact> 0.70386719E+06</totfact>
</mgrwt>
</event>
<event>
 3    1  0.1603864E-001  0.1250000E+03  0.7546771E-02  0.1235069E+00
         21   -1    0    0  502  501  0.00000000000E+00  0.00000000000E+00  0.10074146761E+03  0.10074146761E+03  0.00000000000E+00 0. -1.
         21   -1    0    0  501  502 -0.00000000000E+00 -0.00000000000E+00 -0.38774995965E+02  0.38774995965E+02  0.00000000000E+00 0. -1.
         25    1    1    2    0    0  0.00000000000E+00  0.00000000000E+00  0.61966471643E+02  0.13951646357E+03  0.12500000000E+03 0.  0.
<mgrwt>
<rscale>  0 0.12500000E+03</rscale>
<asrwt>0</asrwt>
<pdfrwt beam="1">  1       21 0.15498687E-01 0.12500000E+03</pdfrwt>
<pdfrwt beam="2">  1       21 0.59653840E-02 0.12500000E+03</pdfrwt>
<totfact> 0.72102496E+06</totfact>
</mgrwt>
</event>
<event>
 3    1  0.1603864E-001  0.1250000E+03  0.7546771E-02  0.1235069E+00
         21   -1    0    0  502  501  0.00000000000E+00  0.00000000000E+00  0.96341797548E+02  0.96341797548E+02  0.00000000000E+00 0.  1.
         21   -1    0    0  501  502 -0.00000000000E+00 -0.00000000000E+00 -0.40545745455E+02  0.40545745455E+02  0.00000000000E+00 0.  1.
         25    1    1    2    0    0  0.00000000000E+00  0.00000000000E+00  0.55796052093E+02  0.13688754300E+03  0.12500000000E+03 0.  0.
<mgrwt>
<rscale>  0 0.12500000E+03</rscale>
<asrwt>0</asrwt>
<pdfrwt beam="1">  1       21 0.14821815E-01 0.12500000E+03</pdfrwt>
<pdfrwt beam="2">  1       21 0.62378070E-02 0.12500000E+03</pdfrwt>
<totfact> 0.72447501E+06</totfact>
</mgrwt>
</event>
<event>
 3    1  0.1603864E-001  0.1250000E+03  0.7546771E-02  0.1235069E+00
         21   -1    0    0  502  501  0.00000000000E+00  0.00000000000E+00  0.10118435803E+03  0.10118435803E+03  0.00000000000E+00 0. -1.
         21   -1    0    0  501  502 -0.00000000000E+00 -0.00000000000E+00 -0.38605275320E+02  0.38605275320E+02  0.00000000000E+00 0. -1.
         25    1    1    2    0    0  0.00000000000E+00  0.00000000000E+00  0.62579082713E+02  0.13978963335E+03  0.12500000000E+03 0.  0.
<mgrwt>
<rscale>  0 0.12500000E+03</rscale>
<asrwt>0</asrwt>
<pdfrwt beam="1">  1       21 0.15566824E-01 0.12500000E+03</pdfrwt>
<pdfrwt beam="2">  1       21 0.59392732E-02 0.12500000E+03</pdfrwt>
<totfact> 0.72066783E+06</totfact>
</mgrwt>
</event>
<event>
 3    1  0.1603864E-001  0.1250000E+03  0.7546771E-02  0.1235069E+00
         21   -1    0    0  502  501  0.00000000000E+00  0.00000000000E+00  0.48858644484E+02  0.48858644484E+02  0.00000000000E+00 0. -1.
         21   -1    0    0  501  502 -0.00000000000E+00 -0.00000000000E+00 -0.79950028112E+02  0.79950028112E+02  0.00000000000E+00 0. -1.
         25    1    1    2    0    0  0.00000000000E+00  0.00000000000E+00 -0.31091383628E+02  0.12880867260E+03  0.12500000000E+03 0.  0.
<mgrwt>
<rscale>  0 0.12500000E+03</rscale>
<asrwt>0</asrwt>
<pdfrwt beam="1">  1       21 0.75167145E-02 0.12500000E+03</pdfrwt>
<pdfrwt beam="2">  1       21 0.12300004E-01 0.12500000E+03</pdfrwt>
<totfact> 0.73524589E+06</totfact>
</mgrwt>
</event>
<event>
 3    1  0.1603864E-001  0.1250000E+03  0.7546771E-02  0.1235069E+00
         21   -1    0    0  502  501  0.00000000000E+00  0.00000000000E+00  0.26458018352E+03  0.26458018352E+03  0.00000000000E+00 0. -1.
         21   -1    0    0  501  502 -0.00000000000E+00 -0.00000000000E+00 -0.14763955290E+02  0.14763955290E+02  0.00000000000E+00 0. -1.
         25    1    1    2    0    0  0.00000000000E+00  0.00000000000E+00  0.24981622823E+03  0.27934413881E+03  0.12500000000E+03 0.  0.
<mgrwt>
<rscale>  0 0.12500000E+03</rscale>
<asrwt>0</asrwt>
<pdfrwt beam="1">  1       21 0.40704640E-01 0.12500000E+03</pdfrwt>
<pdfrwt beam="2">  1       21 0.22713779E-02 0.12500000E+03</pdfrwt>
<totfact> 0.57217665E+06</totfact>
</mgrwt>
</event>
<event>
 3    1  0.1603864E-001  0.1250000E+03  0.7546771E-02  0.1235069E+00
         21   -1    0    0  502  501  0.00000000000E+00  0.00000000000E+00  0.42633170200E+02  0.42633170200E+02  0.00000000000E+00 0.  1.
         21   -1    0    0  501  502 -0.00000000000E+00 -0.00000000000E+00 -0.91624666467E+02  0.91624666467E+02  0.00000000000E+00 0.  1.
         25    1    1    2    0    0  0.00000000000E+00  0.00000000000E+00 -0.48991496267E+02  0.13425783667E+03  0.12500000000E+03 0.  0.
<mgrwt>
<rscale>  0 0.12500000E+03</rscale>
<asrwt>0</asrwt>
<pdfrwt beam="1">  1       21 0.65589493E-02 0.12500000E+03</pdfrwt>
<pdfrwt beam="2">  1       21 0.14096102E-01 0.12500000E+03</pdfrwt>
<totfact> 0.72794890E+06</totfact>
</mgrwt>
</event>
<event>
 3    1  0.1603864E-001  0.1250000E+03  0.7546771E-02  0.1235069E+00
         21   -1    0    0  502  501  0.00000000000E+00  0.00000000000E+00  0.23597538616E+03  0.23597538616E+03  0.00000000000E+00 0. -1.
         21   -1    0    0  501  502 -0.00000000000E+00 -0.00000000000E+00 -0.16553633256E+02  0.16553633256E+02  0.00000000000E+00 0. -1.
         25    1    1    2    0    0  0.00000000000E+00  0.00000000000E+00  0.21942175291E+03  0.25252901942E+03  0.12500000000E+03 0.  0.
<mgrwt>
<rscale>  0 0.12500000E+03</rscale>
<asrwt>0</asrwt>
<pdfrwt beam="1">  1       21 0.36303903E-01 0.12500000E+03</pdfrwt>
<pdfrwt beam="2">  1       21 0.25467130E-02 0.12500000E+03</pdfrwt>
<totfact> 0.59640901E+06</totfact>
</mgrwt>
</event>
<event>
 3    1  0.1603864E-001  0.1250000E+03  0.7546771E-02  0.1235069E+00
         21   -1    0    0  502  501  0.00000000000E+00  0.00000000000E+00  0.30519759439E+03  0.30519759439E+03  0.00000000000E+00 0. -1.
         21   -1    0    0  501  502 -0.00000000000E+00 -0.00000000000E+00 -0.12799085156E+02  0.12799085156E+02  0.00000000000E+00 0. -1.
         25    1    1    2    0    0  0.00000000000E+00  0.00000000000E+00  0.29239850923E+03  0.31799667954E+03  0.12500000000E+03 0.  0.
<mgrwt>
<rscale>  0 0.12500000E+03</rscale>
<asrwt>0</asrwt>
<pdfrwt beam="1">  1       21 0.46953471E-01 0.12500000E+03</pdfrwt>
<pdfrwt beam="2">  1       21 0.19690903E-02 0.12500000E+03</pdfrwt>
<totfact> 0.53992481E+06</totfact>
</mgrwt>
</event>
<event>
 3    1  0.1603864E-001  0.1250000E+03  0.7546771E-02  0.1235069E+00
         21   -1    0    0  502  501  0.00000000000E+00  0.00000000000E+00  0.22069399999E+03  0.22069399999E+03  0.00000000000E+00 0. -1.
         21   -1    0    0  501  502 -0.00000000000E+00 -0.00000000000E+00 -0.17699846847E+02  0.17699846847E+02  0.00000000000E+00 0. -1.
         25    1    1    2    0    0  0.00000000000E+00  0.00000000000E+00  0.20299415314E+03  0.23839384684E+03  0.12500000000E+03 0.  0.
<mgrwt>
<rscale>  0 0.12500000E+03</rscale>
<asrwt>0</asrwt>
<pdfrwt beam="1">  1       21 0.33952921E-01 0.12500000E+03</pdfrwt>
<pdfrwt beam="2">  1       21 0.27230535E-02 0.12500000E+03</pdfrwt>
<totfact> 0.60988435E+06</totfact>
</mgrwt>
</event>
<event>
 3    1  0.1603864E-001  0.1250000E+03  0.7546771E-02  0.1235069E+00
         21   -1    0    0  502  501  0.00000000000E+00  0.00000000000E+00  0.51000575417E+03  0.51000575417E+03  0.00000000000E+00 0.  1.
         21   -1    0    0  501  502 -0.00000000000E+00 -0.00000000000E+00 -0.76592273088E+01  0.76592273088E+01  0.00000000000E+00 0.  1.
         25    1    1    2    0    0  0.00000000000E+00  0.00000000000E+00  0.50234652687E+03  0.51766498148E+03  0.12500000000E+03 0.  0.
<mgrwt>
<rscale>  0 0.12500000E+03</rscale>
<asrwt>0</asrwt>
<pdfrwt beam="1">  1       21 0.78462397E-01 0.12500000E+03</pdfrwt>
<pdfrwt beam="2">  1       21 0.11783431E-02 0.12500000E+03</pdfrwt>
<totfact> 0.41101991E+06</totfact>
</mgrwt>
</event>
<event>
 3    1  0.1603864E-001  0.1250000E+03  0.7546771E-02  0.1235069E+00
         21   -1    0    0  502  501  0.00000000000E+00  0.00000000000E+00  0.33917200565E+02  0.33917200565E+02  0.00000000000E+00 0.  1.
         21   -1    0    0  501  502 -0.00000000000E+00 -0.00000000000E+00 -0.11517017722E+03  0.11517017722E+03  0.00000000000E+00 0.  1.
         25    1    1    2    0    0  0.00000000000E+00  0.00000000000E+00 -0.81252976660E+02  0.14908737779E+03  0.12500000000E+03 0.  0.
<mgrwt>
<rscale>  0 0.12500000E+03</rscale>
<asrwt>0</asrwt>
<pdfrwt beam="1">  1       21 0.52180309E-02 0.12500000E+03</pdfrwt>
<pdfrwt beam="2">  1       21 0.17718489E-01 0.12500000E+03</pdfrwt>
<totfact> 0.70874032E+06</totfact>
</mgrwt>
</event>
<event>
 3    1  0.1603864E-001  0.1250000E+03  0.7546771E-02  0.1235069E+00
         21   -1    0    0  502  501  0.00000000000E+00  0.00000000000E+00  0.35126232312E+02  0.35126232312E+02  0.00000000000E+00 0.  1.
         21   -1    0    0  501  502 -0.00000000000E+00 -0.00000000000E+00 -0.11120606290E+03  0.11120606290E+03  0.00000000000E+00 0.  1.
         25    1    1    2    0    0  0.00000000000E+00  0.00000000000E+00 -0.76079830589E+02  0.14633229521E+03  0.12500000000E+03 0.  0.
<mgrwt>
<rscale>  0 0.12500000E+03</rscale>
<asrwt>0</asrwt>
<pdfrwt beam="1">  1       21 0.54040359E-02 0.12500000E+03</pdfrwt>
<pdfrwt beam="2">  1       21 0.17108625E-01 0.12500000E+03</pdfrwt>
<totfact> 0.71223032E+06</totfact>
</mgrwt>
</event>
<event>
 3    1  0.1603864E-001  0.1250000E+03  0.7546771E-02  0.1235069E+00
         21   -1    0    0  502  501  0.00000000000E+00  0.00000000000E+00  0.42532858606E+03  0.42532858606E+03  0.00000000000E+00 0. -1.
         21   -1    0    0  501  502 -0.00000000000E+00 -0.00000000000E+00 -0.91840758604E+01  0.91840758604E+01  0.00000000000E+00 0. -1.
         25    1    1    2    0    0  0.00000000000E+00  0.00000000000E+00  0.41614451020E+03  0.43451266192E+03  0.12500000000E+03 0.  0.
<mgrwt>
<rscale>  0 0.12500000E+03</rscale>
<asrwt>0</asrwt>
<pdfrwt beam="1">  1       21 0.65435152E-01 0.12500000E+03</pdfrwt>
<pdfrwt beam="2">  1       21 0.14129351E-02 0.12500000E+03</pdfrwt>
<totfact> 0.45833358E+06</totfact>
</mgrwt>
</event>
<event>
 3    1  0.1603864E-001  0.1250000E+03  0.7546771E-02  0.1235069E+00
         21   -1    0    0  502  501  0.00000000000E+00  0.00000000000E+00  0.40954592764E+02  0.40954592764E+02  0.00000000000E+00 0.  1.
         21   -1    0    0  501  502 -0.00000000000E+00 -0.00000000000E+00 -0.95380023006E+02  0.95380023006E+02  0.00000000000E+00 0.  1.
         25    1    1    2    0    0  0.00000000000E+00  0.00000000000E+00 -0.54425430243E+02  0.13633461577E+03  0.12500000000E+03 0.  0.
<mgrwt>
<rscale>  0 0.12500000E+03</rscale>
<asrwt>0</asrwt>
<pdfrwt beam="1">  1       21 0.63007066E-02 0.12500000E+03</pdfrwt>
<pdfrwt beam="2">  1       21 0.14673850E-01 0.12500000E+03</pdfrwt>
<totfact> 0.72520239E+06</totfact>
</mgrwt>
</event>
<event>
 3    1  0.1603864E-001  0.1250000E+03  0.7546771E-02  0.1235069E+00
         21   -1    0    0  502  501  0.00000000000E+00  0.00000000000E+00  0.83273462277E+01  0.83273462277E+01  0.00000000000E+00 0. -1.
         21   -1    0    0  501  502 -0.00000000000E+00 -0.00000000000E+00 -0.46908701682E+03  0.46908701682E+03  0.00000000000E+00 0. -1.
         25    1    1    2    0    0  0.00000000000E+00  0.00000000000E+00 -0.46075967060E+03  0.47741436305E+03  0.12500000000E+03 0.  0.
<mgrwt>
<rscale>  0 0.12500000E+03</rscale>
<asrwt>0</asrwt>
<pdfrwt beam="1">  1       21 0.12811300E-02 0.12500000E+03</pdfrwt>
<pdfrwt beam="2">  1       21 0.72167245E-01 0.12500000E+03</pdfrwt>
<totfact> 0.43296031E+06</totfact>
</mgrwt>
</event>
<event>
 3    1  0.1603864E-001  0.1250000E+03  0.7546771E-02  0.1235069E+00
         21   -1    0    0  502  501  0.00000000000E+00  0.00000000000E+00  0.95016892921E+02  0.95016892921E+02  0.00000000000E+00 0. -1.
         21   -1    0    0  501  502 -0.00000000000E+00 -0.00000000000E+00 -0.41111110666E+02  0.41111110666E+02  0.00000000000E+00 0. -1.
         25    1    1    2    0    0  0.00000000000E+00  0.00000000000E+00  0.53905782255E+02  0.13612800359E+03  0.12500000000E+03 0.  0.
<mgrwt>
<rscale>  0 0.12500000E+03</rscale>
<asrwt>0</asrwt>
<pdfrwt beam="1">  1       21 0.14617983E-01 0.12500000E+03</pdfrwt>
<pdfrwt beam="2">  1       21 0.63247863E-02 0.12500000E+03</pdfrwt>
<totfact> 0.72547460E+06</totfact>
</mgrwt>
</event>
<event>
 3    1  0.1603864E-001  0.1250000E+03  0.7546771E-02  0.1235069E+00
         21   -1    0    0  502  501  0.00000000000E+00  0.00000000000E+00  0.22460916307E+02  0.22460916307E+02  0.00000000000E+00 0. -1.
         21   -1    0    0  501  502 -0.00000000000E+00 -0.00000000000E+00 -0.17391320757E+03  0.17391320757E+03  0.00000000000E+00 0. -1.
         25    1    1    2    0    0  0.00000000000E+00  0.00000000000E+00 -0.15145229127E+03  0.19637412388E+03  0.12500000000E+03 0.  0.
<mgrwt>
<rscale>  0 0.12500000E+03</rscale>
<asrwt>0</asrwt>
<pdfrwt beam="1">  1       21 0.34555256E-02 0.12500000E+03</pdfrwt>
<pdfrwt beam="2">  1       21 0.26755878E-01 0.12500000E+03</pdfrwt>
<totfact> 0.65320942E+06</totfact>
</mgrwt>
</event>
<event>
 3    1  0.1603864E-001  0.1250000E+03  0.7546771E-02  0.1235069E+00
         21   -1    0    0  502  501  0.00000000000E+00  0.00000000000E+00  0.30211508941E+03  0.30211508941E+03  0.00000000000E+00 0.  1.
         21   -1    0    0  501  502 -0.00000000000E+00 -0.00000000000E+00 -0.12929675269E+02  0.12929675269E+02  0.00000000000E+00 0.  1.
         25    1    1    2    0    0  0.00000000000E+00  0.00000000000E+00  0.28918541414E+03  0.31504476468E+03  0.12500000000E+03 0.  0.
<mgrwt>
<rscale>  0 0.12500000E+03</rscale>
<asrwt>0</asrwt>
<pdfrwt beam="1">  1       21 0.46479239E-01 0.12500000E+03</pdfrwt>
<pdfrwt beam="2">  1       21 0.19891810E-02 0.12500000E+03</pdfrwt>
<totfact> 0.54228373E+06</totfact>
</mgrwt>
</event>
<event>
 3    1  0.1603864E-001  0.1250000E+03  0.7546771E-02  0.1235069E+00
         21   -1    0    0  502  501  0.00000000000E+00  0.00000000000E+00  0.44427429644E+01  0.44427429644E+01  0.00000000000E+00 0. -1.
         21   -1    0    0  501  502 -0.00000000000E+00 -0.00000000000E+00 -0.87924285320E+03  0.87924285320E+03  0.00000000000E+00 0. -1.
         25    1    1    2    0    0  0.00000000000E+00  0.00000000000E+00 -0.87480011023E+03  0.88368559616E+03  0.12500000000E+03 0.  0.
<mgrwt>
<rscale>  0 0.12500000E+03</rscale>
<asrwt>0</asrwt>
<pdfrwt beam="1">  1       21 0.68349953E-03 0.12500000E+03</pdfrwt>
<pdfrwt beam="2">  1       21 0.13526801E+00 0.12500000E+03</pdfrwt>
<totfact> 0.26769482E+06</totfact>
</mgrwt>
</event>
<event>
 3    1  0.1603864E-001  0.1250000E+03  0.7546771E-02  0.1235069E+00
         21   -1    0    0  502  501  0.00000000000E+00  0.00000000000E+00  0.80946668616E+02  0.80946668616E+02  0.00000000000E+00 0.  1.
         21   -1    0    0  501  502 -0.00000000000E+00 -0.00000000000E+00 -0.48257081691E+02  0.48257081691E+02  0.00000000000E+00 0.  1.
         25    1    1    2    0    0  0.00000000000E+00  0.00000000000E+00  0.32689586926E+02  0.12920375031E+03  0.12500000000E+03 0.  0.
<mgrwt>
<rscale>  0 0.12500000E+03</rscale>
<asrwt>0</asrwt>
<pdfrwt beam="1">  1       21 0.12453334E-01 0.12500000E+03</pdfrwt>
<pdfrwt beam="2">  1       21 0.74241664E-02 0.12500000E+03</pdfrwt>
<totfact> 0.73471532E+06</totfact>
</mgrwt>
</event>
<event>
 3    1  0.1603864E-001  0.1250000E+03  0.7546771E-02  0.1235069E+00
         21   -1    0    0  502  501  0.00000000000E+00  0.00000000000E+00  0.76405692662E+02  0.76405692662E+02  0.00000000000E+00 0. -1.
         21   -1    0    0  501  502 -0.00000000000E+00 -0.00000000000E+00 -0.51125117304E+02  0.51125117304E+02  0.00000000000E+00 0. -1.
         25    1    1    2    0    0  0.00000000000E+00  0.00000000000E+00  0.25280575358E+02  0.12753080997E+03  0.12500000000E+03 0.  0.
<mgrwt>
<rscale>  0 0.12500000E+03</rscale>
<asrwt>0</asrwt>
<pdfrwt beam="1">  1       21 0.11754722E-01 0.12500000E+03</pdfrwt>
<pdfrwt beam="2">  1       21 0.78654027E-02 0.12500000E+03</pdfrwt>
<totfact> 0.73697042E+06</totfact>
</mgrwt>
</event>
<event>
 3    1  0.1603864E-001  0.1250000E+03  0.7546771E-02  0.1235069E+00
         21   -1    0    0  502  501  0.00000000000E+00  0.00000000000E+00  0.26500805417E+02  0.26500805417E+02  0.00000000000E+00 0.  1.
         21   -1    0    0  501  502 -0.00000000000E+00 -0.00000000000E+00 -0.14740118040E+03  0.14740118040E+03  0.00000000000E+00 0.  1.
         25    1    1    2    0    0  0.00000000000E+00  0.00000000000E+00 -0.12090037498E+03  0.17390198582E+03  0.12500000000E+03 0.  0.
<mgrwt>
<rscale>  0 0.12500000E+03</rscale>
<asrwt>0</asrwt>
<pdfrwt beam="1">  1       21 0.40770469E-02 0.12500000E+03</pdfrwt>
<pdfrwt beam="2">  1       21 0.22677105E-01 0.12500000E+03</pdfrwt>
<totfact> 0.67858061E+06</totfact>
</mgrwt>
</event>
<event>
 3    1  0.1603864E-001  0.1250000E+03  0.7546771E-02  0.1235069E+00
         21   -1    0    0  502  501  0.00000000000E+00  0.00000000000E+00  0.42933996322E+01  0.42933996322E+01  0.00000000000E+00 0. -1.
         21   -1    0    0  501  502 -0.00000000000E+00 -0.00000000000E+00 -0.90982678870E+03  0.90982678870E+03  0.00000000000E+00 0. -1.
         25    1    1    2    0    0  0.00000000000E+00  0.00000000000E+00 -0.90553338907E+03  0.91412018833E+03  0.12500000000E+03 0.  0.
<mgrwt>
<rscale>  0 0.12500000E+03</rscale>
<asrwt>0</asrwt>
<pdfrwt beam="1">  1       21 0.66052356E-03 0.12500000E+03</pdfrwt>
<pdfrwt beam="2">  1       21 0.13997324E+00 0.12500000E+03</pdfrwt>
<totfact> 0.25897192E+06</totfact>
</mgrwt>
</event>
<event>
 3    1  0.1603864E-001  0.1250000E+03  0.7546771E-02  0.1235069E+00
         21   -1    0    0  502  501  0.00000000000E+00  0.00000000000E+00  0.29086402347E+02  0.29086402347E+02  0.00000000000E+00 0.  1.
         21   -1    0    0  501  502 -0.00000000000E+00 -0.00000000000E+00 -0.13429814913E+03  0.13429814913E+03  0.00000000000E+00 0.  1.
         25    1    1    2    0    0  0.00000000000E+00  0.00000000000E+00 -0.10521174678E+03  0.16338455148E+03  0.12500000000E+03 0.  0.
<mgrwt>
<rscale>  0 0.12500000E+03</rscale>
<asrwt>0</asrwt>
<pdfrwt beam="1">  1       21 0.44748310E-02 0.12500000E+03</pdfrwt>
<pdfrwt beam="2">  1       21 0.20661254E-01 0.12500000E+03</pdfrwt>
<totfact> 0.69108287E+06</totfact>
</mgrwt>
</event>
<event>
 3    1  0.1603864E-001  0.1250000E+03  0.7546771E-02  0.1235069E+00
         21   -1    0    0  502  501  0.00000000000E+00  0.00000000000E+00  0.76404606492E+01  0.76404606492E+01  0.00000000000E+00 0.  1.
         21   -1    0    0  501  502 -0.00000000000E+00 -0.00000000000E+00 -0.51125844100E+03  0.51125844100E+03  0.00000000000E+00 0.  1.
         25    1    1    2    0    0  0.00000000000E+00  0.00000000000E+00 -0.50361798035E+03  0.51889890165E+03  0.12500000000E+03 0.  0.
<mgrwt>
<rscale>  0 0.12500000E+03</rscale>
<asrwt>0</asrwt>
<pdfrwt beam="1">  1       21 0.11754556E-02 0.12500000E+03</pdfrwt>
<pdfrwt beam="2">  1       21 0.78655139E-01 0.12500000E+03</pdfrwt>
<totfact> 0.41037346E+06</totfact>
</mgrwt>
</event>
<event>
 3    1  0.1603864E-001  0.1250000E+03  0.7546771E-02  0.1235069E+00
         21   -1    0    0  502  501  0.00000000000E+00  0.00000000000E+00  0.16696760998E+02  0.16696760998E+02  0.00000000000E+00 0.  1.
         21   -1    0    0  501  502 -0.00000000000E+00 -0.00000000000E+00 -0.23395256124E+03  0.23395256124E+03  0.00000000000E+00 0.  1.
         25    1    1    2    0    0  0.00000000000E+00  0.00000000000E+00 -0.21725580025E+03  0.25064932224E+03  0.12500000000E+03 0.  0.
<mgrwt>
<rscale>  0 0.12500000E+03</rscale>
<asrwt>0</asrwt>
<pdfrwt beam="1">  1       21 0.25687326E-02 0.12500000E+03</pdfrwt>
<pdfrwt beam="2">  1       21 0.35992700E-01 0.12500000E+03</pdfrwt>
<totfact> 0.59817111E+06</totfact>
</mgrwt>
</event>
<event>
 3    1  0.1603864E-001  0.1250000E+03  0.7546771E-02  0.1235069E+00
         21   -1    0    0  502  501  0.00000000000E+00  0.00000000000E+00  0.15296415386E+04  0.15296415386E+04  0.00000000000E+00 0.  1.
         21   -1    0    0  501  502 -0.00000000000E+00 -0.00000000000E+00 -0.25537028783E+01  0.25537028783E+01  0.00000000000E+00 0.  1.
         25    1    1    2    0    0  0.00000000000E+00  0.00000000000E+00  0.15270878357E+04  0.15321952415E+04  0.12500000000E+03 0.  0.
<mgrwt>
<rscale>  0 0.12500000E+03</rscale>
<asrwt>0</asrwt>
<pdfrwt beam="1">  1       21 0.23532873E+00 0.12500000E+03</pdfrwt>
<pdfrwt beam="2">  1       21 0.39287859E-03 0.12500000E+03</pdfrwt>
<totfact> 0.13522140E+06</totfact>
</mgrwt>
</event>
<event>
 3    1  0.1603864E-001  0.1250000E+03  0.7546771E-02  0.1235069E+00
         21   -1    0    0  502  501  0.00000000000E+00  0.00000000000E+00  0.36052398323E+03  0.36052398323E+03  0.00000000000E+00 0.  1.
         21   -1    0    0  501  502 -0.00000000000E+00 -0.00000000000E+00 -0.10834924115E+02  0.10834924115E+02  0.00000000000E+00 0.  1.
         25    1    1    2    0    0  0.00000000000E+00  0.00000000000E+00  0.34968905912E+03  0.37135890735E+03  0.12500000000E+03 0.  0.
<mgrwt>
<rscale>  0 0.12500000E+03</rscale>
<asrwt>0</asrwt>
<pdfrwt beam="1">  1       21 0.55465219E-01 0.12500000E+03</pdfrwt>
<pdfrwt beam="2">  1       21 0.16669117E-02 0.12500000E+03</pdfrwt>
<totfact> 0.49998677E+06</totfact>
</mgrwt>
</event>
<event>
 3    1  0.1603864E-001  0.1250000E+03  0.7546771E-02  0.1235069E+00
         21   -1    0    0  502  501  0.00000000000E+00  0.00000000000E+00  0.11174963218E+03  0.11174963218E+03  0.00000000000E+00 0.  1.
         21   -1    0    0  501  502 -0.00000000000E+00 -0.00000000000E+00 -0.34955372324E+02  0.34955372324E+02  0.00000000000E+00 0.  1.
         25    1    1    2    0    0  0.00000000000E+00  0.00000000000E+00  0.76794259858E+02  0.14670500451E+03  0.12500000000E+03 0.  0.
<mgrwt>
<rscale>  0 0.12500000E+03</rscale>
<asrwt>0</asrwt>
<pdfrwt beam="1">  1       21 0.17192251E-01 0.12500000E+03</pdfrwt>
<pdfrwt beam="2">  1       21 0.53777496E-02 0.12500000E+03</pdfrwt>
<totfact> 0.71175609E+06</totfact>
</mgrwt>
</event>
<event>
 3    1  0.1603864E-001  0.1250000E+03  0.7546771E-02  0.1235069E+00
         21   -1    0    0  502  501  0.00000000000E+00  0.00000000000E+00  0.30850396247E+02  0.30850396247E+02  0.00000000000E+00 0.  1.
         21   -1    0    0  501  502 -0.00000000000E+00 -0.00000000000E+00 -0.12661911921E+03  0.12661911921E+03  0.00000000000E+00 0.  1.
         25    1    1    2    0    0  0.00000000000E+00  0.00000000000E+00 -0.95768722963E+02  0.15746951546E+03  0.12500000000E+03 0.  0.
<mgrwt>
<rscale>  0 0.12500000E+03</rscale>
<asrwt>0</asrwt>
<pdfrwt beam="1">  1       21 0.47462148E-02 0.12500000E+03</pdfrwt>
<pdfrwt beam="2">  1       21 0.19479864E-01 0.12500000E+03</pdfrwt>
<totfact> 0.69830023E+06</totfact>
</mgrwt>
</event>
<event>
 3    1  0.1603864E-001  0.1250000E+03  0.7546771E-02  0.1235069E+00
         21   -1    0    0  502  501  0.00000000000E+00  0.00000000000E+00  0.30059529142E+02  0.30059529142E+02  0.00000000000E+00 0. -1.
         21   -1    0    0  501  502 -0.00000000000E+00 -0.00000000000E+00 -0.12995047200E+03  0.12995047200E+03  0.00000000000E+00 0. -1.
         25    1    1    2    0    0  0.00000000000E+00  0.00000000000E+00 -0.99890942856E+02  0.16001000114E+03  0.12500000000E+03 0.  0.
<mgrwt>
<rscale>  0 0.12500000E+03</rscale>
<asrwt>0</asrwt>
<pdfrwt beam="1">  1       21 0.46245429E-02 0.12500000E+03</pdfrwt>
<pdfrwt beam="2">  1       21 0.19992380E-01 0.12500000E+03</pdfrwt>
<totfact> 0.69518274E+06</totfact>
</mgrwt>
</event>
<event>
 3    1  0.1603864E-001  0.1250000E+03  0.7546771E-02  0.1235069E+00
         21   -1    0    0  502  501  0.00000000000E+00  0.00000000000E+00  0.42523152497E+02  0.42523152497E+02  0.00000000000E+00 0. -1.
         21   -1    0    0  501  502 -0.00000000000E+00 -0.00000000000E+00 -0.91861721688E+02  0.91861721688E+02  0.00000000000E+00 0. -1.
         25    1    1    2    0    0  0.00000000000E+00  0.00000000000E+00 -0.49338569191E+02  0.13438487419E+03  0.12500000000E+03 0.  0.
<mgrwt>
<rscale>  0 0.12500000E+03</rscale>
<asrwt>0</asrwt>
<pdfrwt beam="1">  1       21 0.65420236E-02 0.12500000E+03</pdfrwt>
<pdfrwt beam="2">  1       21 0.14132572E-01 0.12500000E+03</pdfrwt>
<totfact> 0.72778022E+06</totfact>
</mgrwt>
</event>
<event>
 3    1  0.1603864E-001  0.1250000E+03  0.7546771E-02  0.1235069E+00
         21   -1    0    0  502  501  0.00000000000E+00  0.00000000000E+00  0.23530400207E+02  0.23530400207E+02  0.00000000000E+00 0.  1.
         21   -1    0    0  501  502 -0.00000000000E+00 -0.00000000000E+00 -0.16600865118E+03  0.16600865118E+03  0.00000000000E+00 0.  1.
         25    1    1    2    0    0  0.00000000000E+00  0.00000000000E+00 -0.14247825097E+03  0.18953905138E+03  0.12500000000E+03 0.  0.
<mgrwt>
<rscale>  0 0.12500000E+03</rscale>
<asrwt>0</asrwt>
<pdfrwt beam="1">  1       21 0.36200617E-02 0.12500000E+03</pdfrwt>
<pdfrwt beam="2">  1       21 0.25539792E-01 0.12500000E+03</pdfrwt>
<totfact> 0.66073731E+06</totfact>
</mgrwt>
</event>
<event>
 3    1  0.1603864E-001  0.1250000E+03  0.7546771E-02  0.1235069E+00
         21   -1    0    0  502  501  0.00000000000E+00  0.00000000000E+00  0.31451932808E+02  0.31451932808E+02  0.00000000000E+00 0.  1.
         21   -1    0    0  501  502 -0.00000000000E+00 -0.00000000000E+00 -0.12419745470E+03  0.12419745470E+03  0.00000000000E+00 0.  1.
         25    1    1    2    0    0  0.00000000000E+00  0.00000000000E+00 -0.92745521888E+02  0.15564938750E+03  0.12500000000E+03 0.  0.
<mgrwt>
<rscale>  0 0.12500000E+03</rscale>
<asrwt>0</asrwt>
<pdfrwt beam="1">  1       21 0.48387589E-02 0.12500000E+03</pdfrwt>
<pdfrwt beam="2">  1       21 0.19107301E-01 0.12500000E+03</pdfrwt>
<totfact> 0.70055038E+06</totfact>
</mgrwt>
</event>
<event>
 3    1  0.1603864E-001  0.1250000E+03  0.7546771E-02  0.1235069E+00
         21   -1    0    0  502  501  0.00000000000E+00  0.00000000000E+00  0.14661251891E+04  0.14661251891E+04  0.00000000000E+00 0. -1.
         21   -1    0    0  501  502 -0.00000000000E+00 -0.00000000000E+00 -0.26643359169E+01  0.26643359169E+01  0.00000000000E+00 0. -1.
         25    1    1    2    0    0  0.00000000000E+00  0.00000000000E+00  0.14634608532E+04  0.14687895250E+04  0.12500000000E+03 0.  0.
<mgrwt>
<rscale>  0 0.12500000E+03</rscale>
<asrwt>0</asrwt>
<pdfrwt beam="1">  1       21 0.22555708E+00 0.12500000E+03</pdfrwt>
<pdfrwt beam="2">  1       21 0.40989900E-03 0.12500000E+03</pdfrwt>
<totfact> 0.14462102E+06</totfact>
</mgrwt>
</event>
<event>
 3    1  0.1603864E-001  0.1250000E+03  0.7546771E-02  0.1235069E+00
         21   -1    0    0  502  501  0.00000000000E+00  0.00000000000E+00  0.24167181915E+03  0.24167181915E+03  0.00000000000E+00 0. -1.
         21   -1    0    0  501  502 -0.00000000000E+00 -0.00000000000E+00 -0.16163448489E+02  0.16163448489E+02  0.00000000000E+00 0. -1.
         25    1    1    2    0    0  0.00000000000E+00  0.00000000000E+00  0.22550837066E+03  0.25783526763E+03  0.12500000000E+03 0.  0.
<mgrwt>
<rscale>  0 0.12500000E+03</rscale>
<asrwt>0</asrwt>
<pdfrwt beam="1">  1       21 0.37180277E-01 0.12500000E+03</pdfrwt>
<pdfrwt beam="2">  1       21 0.24866846E-02 0.12500000E+03</pdfrwt>
<totfact> 0.59148255E+06</totfact>
</mgrwt>
</event>
<event>
 3    1  0.1603864E-001  0.1250000E+03  0.7546771E-02  0.1235069E+00
         21   -1    0    0  502  501  0.00000000000E+00  0.00000000000E+00  0.39473103084E+03  0.39473103084E+03  0.00000000000E+00 0. -1.
         21   -1    0    0  501  502 -0.00000000000E+00 -0.00000000000E+00 -0.98959790206E+01  0.98959790206E+01  0.00000000000E+00 0. -1.
         25    1    1    2    0    0  0.00000000000E+00  0.00000000000E+00  0.38483505182E+03  0.40462700986E+03  0.12500000000E+03 0.  0.
<mgrwt>
<rscale>  0 0.12500000E+03</rscale>
<asrwt>0</asrwt>
<pdfrwt beam="1">  1       21 0.60727839E-01 0.12500000E+03</pdfrwt>
<pdfrwt beam="2">  1       21 0.15224586E-02 0.12500000E+03</pdfrwt>
<totfact> 0.47735958E+06</totfact>
</mgrwt>
</event>
<event>
 3    1  0.1603864E-001  0.1250000E+03  0.7546771E-02  0.1235069E+00
         21   -1    0    0  502  501  0.00000000000E+00  0.00000000000E+00  0.32829803497E+02  0.32829803497E+02  0.00000000000E+00 0.  1.
         21   -1    0    0  501  502 -0.00000000000E+00 -0.00000000000E+00 -0.11898487301E+03  0.11898487301E+03  0.00000000000E+00 0.  1.
         25    1    1    2    0    0  0.00000000000E+00  0.00000000000E+00 -0.86155069510E+02  0.15181467651E+03  0.12500000000E+03 0.  0.
<mgrwt>
<rscale>  0 0.12500000E+03</rscale>
<asrwt>0</asrwt>
<pdfrwt beam="1">  1       21 0.50507391E-02 0.12500000E+03</pdfrwt>
<pdfrwt beam="2">  1       21 0.18305365E-01 0.12500000E+03</pdfrwt>
<totfact> 0.70531983E+06</totfact>
</mgrwt>
</event>
<event>
 3    1  0.1603864E-001  0.1250000E+03  0.7546771E-02  0.1235069E+00
         21   -1    0    0  502  501  0.00000000000E+00  0.00000000000E+00  0.83814290529E+01  0.83814290529E+01  0.00000000000E+00 0.  1.
         21   -1    0    0  501  502 -0.00000000000E+00 -0.00000000000E+00 -0.46606014026E+03  0.46606014026E+03  0.00000000000E+00 0.  1.
         25    1    1    2    0    0  0.00000000000E+00  0.00000000000E+00 -0.45767871121E+03  0.47444156931E+03  0.12500000000E+03 0.  0.
<mgrwt>
<rscale>  0 0.12500000E+03</rscale>
<asrwt>0</asrwt>
<pdfrwt beam="1">  1       21 0.12894500E-02 0.12500000E+03</pdfrwt>
<pdfrwt beam="2">  1       21 0.71701595E-01 0.12500000E+03</pdfrwt>
<totfact> 0.43464952E+06</totfact>
</mgrwt>
</event>
<event>
 3    1  0.1603864E-001  0.1250000E+03  0.7546771E-02  0.1235069E+00
         21   -1    0    0  502  501  0.00000000000E+00  0.00000000000E+00  0.80382874987E+02  0.80382874987E+02  0.00000000000E+00 0.  1.
         21   -1    0    0  501  502 -0.00000000000E+00 -0.00000000000E+00 -0.48595549744E+02  0.48595549744E+02  0.00000000000E+00 0.  1.
         25    1    1    2    0    0  0.00000000000E+00  0.00000000000E+00  0.31787325243E+02  0.12897842473E+03  0.12500000000E+03 0.  0.
<mgrwt>
<rscale>  0 0.12500000E+03</rscale>
<asrwt>0</asrwt>
<pdfrwt beam="1">  1       21 0.12366596E-01 0.12500000E+03</pdfrwt>
<pdfrwt beam="2">  1       21 0.74762385E-02 0.12500000E+03</pdfrwt>
<totfact> 0.73501778E+06</totfact>
</mgrwt>
</event>
<event>
 3    1  0.1603864E-001  0.1250000E+03  0.7546771E-02  0.1235069E+00
         21   -1    0    0  502  501  0.00000000000E+00  0.00000000000E+00  0.41239774143E+02  0.41239774143E+02  0.00000000000E+00 0. -1.
         21   -1    0    0  501  502 -0.00000000000E+00 -0.00000000000E+00 -0.94720450855E+02  0.94720450855E+02  0.00000000000E+00 0. -1.
         25    1    1    2    0    0  0.00000000000E+00  0.00000000000E+00 -0.53480676712E+02  0.13596022500E+03  0.12500000000E+03 0.  0.
<mgrwt>
<rscale>  0 0.12500000E+03</rscale>
<asrwt>0</asrwt>
<pdfrwt beam="1">  1       21 0.63445806E-02 0.12500000E+03</pdfrwt>
<pdfrwt beam="2">  1       21 0.14572377E-01 0.12500000E+03</pdfrwt>
<totfact> 0.72569581E+06</totfact>
</mgrwt>
</event>
<event>
 3    1  0.1603864E-001  0.1250000E+03  0.7546771E-02  0.1235069E+00
         21   -1    0    0  502  501  0.00000000000E+00  0.00000000000E+00  0.90811788771E+01  0.90811788771E+01  0.00000000000E+00 0.  1.
         21   -1    0    0  501  502 -0.00000000000E+00 -0.00000000000E+00 -0.43014789741E+03  0.43014789741E+03  0.00000000000E+00 0.  1.
         25    1    1    2    0    0  0.00000000000E+00  0.00000000000E+00 -0.42106671854E+03  0.43922907629E+03  0.12500000000E+03 0.  0.
<mgrwt>
<rscale>  0 0.12500000E+03</rscale>
<asrwt>0</asrwt>
<pdfrwt beam="1">  1       21 0.13971044E-02 0.12500000E+03</pdfrwt>
<pdfrwt beam="2">  1       21 0.66176604E-01 0.12500000E+03</pdfrwt>
<totfact> 0.45543703E+06</totfact>
</mgrwt>
</event>
<event>
 3    1  0.1603864E-001  0.1250000E+03  0.7546771E-02  0.1235069E+00
         21   -1    0    0  502  501  0.00000000000E+00  0.00000000000E+00  0.98536142912E+01  0.98536142912E+01  0.00000000000E+00 0. -1.
         21   -1    0    0  501  502 -0.00000000000E+00 -0.00000000000E+00 -0.39642814145E+03  0.39642814145E+03  0.00000000000E+00 0. -1.
         25    1    1    2    0    0  0.00000000000E+00  0.00000000000E+00 -0.38657452716E+03  0.40628175574E+03  0.12500000000E+03 0.  0.
<mgrwt>
<rscale>  0 0.12500000E+03</rscale>
<asrwt>0</asrwt>
<pdfrwt beam="1">  1       21 0.15159408E-02 0.12500000E+03</pdfrwt>
<pdfrwt beam="2">  1       21 0.60988939E-01 0.12500000E+03</pdfrwt>
<totfact> 0.47627463E+06</totfact>
</mgrwt>
</event>
<event>
 3    1  0.1603864E-001  0.1250000E+03  0.7546771E-02  0.1235069E+00
         21   -1    0    0  502  501  0.00000000000E+00  0.00000000000E+00  0.11983735168E+02  0.11983735168E+02  0.00000000000E+00 0.  1.
         21   -1    0    0  501  502 -0.00000000000E+00 -0.00000000000E+00 -0.32596264397E+03  0.32596264397E+03  0.00000000000E+00 0.  1.
         25    1    1    2    0    0  0.00000000000E+00  0.00000000000E+00 -0.31397890880E+03  0.33794637913E+03  0.12500000000E+03 0.  0.
<mgrwt>
<rscale>  0 0.12500000E+03</rscale>
<asrwt>0</asrwt>
<pdfrwt beam="1">  1       21 0.18436516E-02 0.12500000E+03</pdfrwt>
<pdfrwt beam="2">  1       21 0.50148099E-01 0.12500000E+03</pdfrwt>
<totfact> 0.52441135E+06</totfact>
</mgrwt>
</event>
<event>
 3    1  0.1603864E-001  0.1250000E+03  0.7546771E-02  0.1235069E+00
         21   -1    0    0  502  501  0.00000000000E+00  0.00000000000E+00  0.14823219484E+03  0.14823219484E+03  0.00000000000E+00 0.  1.
         21   -1    0    0  501  502 -0.00000000000E+00 -0.00000000000E+00 -0.26352237475E+02  0.26352237475E+02  0.00000000000E+00 0.  1.
         25    1    1    2    0    0  0.00000000000E+00  0.00000000000E+00  0.12187995737E+03  0.17458443232E+03  0.12500000000E+03 0.  0.
<mgrwt>
<rscale>  0 0.12500000E+03</rscale>
<asrwt>0</asrwt>
<pdfrwt beam="1">  1       21 0.22804952E-01 0.12500000E+03</pdfrwt>
<pdfrwt beam="2">  1       21 0.40541905E-02 0.12500000E+03</pdfrwt>
<totfact> 0.67778290E+06</totfact>
</mgrwt>
</event>
<event>
 3    1  0.1603864E-001  0.1250000E+03  0.7546771E-02  0.1235069E+00
         21   -1    0    0  502  501  0.00000000000E+00  0.00000000000E+00  0.20387239471E+02  0.20387239471E+02  0.00000000000E+00 0. -1.
         21   -1    0    0  501  502 -0.00000000000E+00 -0.00000000000E+00 -0.19160269371E+03  0.19160269371E+03  0.00000000000E+00 0. -1.
         25    1    1    2    0    0  0.00000000000E+00  0.00000000000E+00 -0.17121545424E+03  0.21198993318E+03  0.12500000000E+03 0.  0.
<mgrwt>
<rscale>  0 0.12500000E+03</rscale>
<asrwt>0</asrwt>
<pdfrwt beam="1">  1       21 0.31364984E-02 0.12500000E+03</pdfrwt>
<pdfrwt beam="2">  1       21 0.29477337E-01 0.12500000E+03</pdfrwt>
<totfact> 0.63650778E+06</totfact>
</mgrwt>
</event>
<event>
 3    1  0.1603864E-001  0.1250000E+03  0.7546771E-02  0.1235069E+00
         21   -1    0    0  502  501  0.00000000000E+00  0.00000000000E+00  0.91784043611E+02  0.91784043611E+02  0.00000000000E+00 0.  1.
         21   -1    0    0  501  502 -0.00000000000E+00 -0.00000000000E+00 -0.42559140416E+02  0.42559140416E+02  0.00000000000E+00 0.  1.
         25    1    1    2    0    0  0.00000000000E+00  0.00000000000E+00  0.49224903196E+02  0.13434318403E+03  0.12500000000E+03 0.  0.
<mgrwt>
<rscale>  0 0.12500000E+03</rscale>
<asrwt>0</asrwt>
<pdfrwt beam="1">  1       21 0.14120622E-01 0.12500000E+03</pdfrwt>
<pdfrwt beam="2">  1       21 0.65475601E-02 0.12500000E+03</pdfrwt>
<totfact> 0.72783557E+06</totfact>
</mgrwt>
</event>
<event>
 3    1  0.1603864E-001  0.1250000E+03  0.7546771E-02  0.1235069E+00
         21   -1    0    0  502  501  0.00000000000E+00  0.00000000000E+00  0.80593739272E+02  0.80593739272E+02  0.00000000000E+00 0.  1.
         21   -1    0    0  501  502 -0.00000000000E+00 -0.00000000000E+00 -0.48468405056E+02  0.48468405056E+02  0.00000000000E+00 0.  1.
         25    1    1    2    0    0  0.00000000000E+00  0.00000000000E+00  0.32125334216E+02  0.12906214433E+03  0.12500000000E+03 0.  0.
<mgrwt>
<rscale>  0 0.12500000E+03</rscale>
<asrwt>0</asrwt>
<pdfrwt beam="1">  1       21 0.12399037E-01 0.12500000E+03</pdfrwt>
<pdfrwt beam="2">  1       21 0.74566777E-02 0.12500000E+03</pdfrwt>
<totfact> 0.73490536E+06</totfact>
</mgrwt>
</event>
<event>
 3    1  0.1603864E-001  0.1250000E+03  0.7546771E-02  0.1235069E+00
         21   -1    0    0  502  501  0.00000000000E+00  0.00000000000E+00  0.25414188885E+02  0.25414188885E+02  0.00000000000E+00 0. -1.
         21   -1    0    0  501  502 -0.00000000000E+00 -0.00000000000E+00 -0.15370350860E+03  0.15370350860E+03  0.00000000000E+00 0. -1.
         25    1    1    2    0    0  0.00000000000E+00  0.00000000000E+00 -0.12828931972E+03  0.17911769749E+03  0.12500000000E+03 0.  0.
<mgrwt>
<rscale>  0 0.12500000E+03</rscale>
<asrwt>0</asrwt>
<pdfrwt beam="1">  1       21 0.39098751E-02 0.12500000E+03</pdfrwt>
<pdfrwt beam="2">  1       21 0.23646694E-01 0.12500000E+03</pdfrwt>
<totfact> 0.67252895E+06</totfact>
</mgrwt>
</event>
<event>
 3    1  0.1603864E-001  0.1250000E+03  0.7546771E-02  0.1235069E+00
         21   -1    0    0  502  501  0.00000000000E+00  0.00000000000E+00  0.21235917855E+03  0.21235917855E+03  0.00000000000E+00 0.  1.
         21   -1    0    0  501  502 -0.00000000000E+00 -0.00000000000E+00 -0.18394542806E+02  0.18394542806E+02  0.00000000000E+00 0.  1.
         25    1    1    2    0    0  0.00000000000E+00  0.00000000000E+00  0.19396463574E+03  0.23075372135E+03  0.12500000000E+03 0.  0.
<mgrwt>
<rscale>  0 0.12500000E+03</rscale>
<asrwt>0</asrwt>
<pdfrwt beam="1">  1       21 0.32670641E-01 0.12500000E+03</pdfrwt>
<pdfrwt beam="2">  1       21 0.28299298E-02 0.12500000E+03</pdfrwt>
<totfact> 0.61739052E+06</totfact>
</mgrwt>
</event>
<event>
 3    1  0.1603864E-001  0.1250000E+03  0.7546771E-02  0.1235069E+00
         21   -1    0    0  502  501  0.00000000000E+00  0.00000000000E+00  0.69993056693E+02  0.69993056693E+02  0.00000000000E+00 0.  1.
         21   -1    0    0  501  502 -0.00000000000E+00 -0.00000000000E+00 -0.55809107140E+02  0.55809107140E+02  0.00000000000E+00 0.  1.
         25    1    1    2    0    0  0.00000000000E+00  0.00000000000E+00  0.14183949553E+02  0.12580216383E+03  0.12500000000E+03 0.  0.
<mgrwt>
<rscale>  0 0.12500000E+03</rscale>
<asrwt>0</asrwt>
<pdfrwt beam="1">  1       21 0.10768162E-01 0.12500000E+03</pdfrwt>
<pdfrwt beam="2">  1       21 0.85860165E-02 0.12500000E+03</pdfrwt>
<totfact> 0.73933372E+06</totfact>
</mgrwt>
</event>
<event>
 3    1  0.1603864E-001  0.1250000E+03  0.7546771E-02  0.1235069E+00
         21   -1    0    0  502  501  0.00000000000E+00  0.00000000000E+00  0.66723916204E+01  0.66723916204E+01  0.00000000000E+00 0. -1.
         21   -1    0    0  501  502 -0.00000000000E+00 -0.00000000000E+00 -0.58543476196E+03  0.58543476196E+03  0.00000000000E+00 0. -1.
         25    1    1    2    0    0  0.00000000000E+00  0.00000000000E+00 -0.57876237034E+03  0.59210715358E+03  0.12500000000E+03 0.  0.
<mgrwt>
<rscale>  0 0.12500000E+03</rscale>
<asrwt>0</asrwt>
<pdfrwt beam="1">  1       21 0.10265220E-02 0.12500000E+03</pdfrwt>
<pdfrwt beam="2">  1       21 0.90066869E-01 0.12500000E+03</pdfrwt>
<totfact> 0.37452029E+06</totfact>
</mgrwt>
</event>
<event>
 3    1  0.1603864E-001  0.1250000E+03  0.7546771E-02  0.1235069E+00
         21   -1    0    0  502  501  0.00000000000E+00  0.00000000000E+00  0.78569885173E+01  0.78569885173E+01  0.00000000000E+00 0.  1.
         21   -1    0    0  501  502 -0.00000000000E+00 -0.00000000000E+00 -0.49716885692E+03  0.49716885692E+03  0.00000000000E+00 0.  1.
         25    1    1    2    0    0  0.00000000000E+00  0.00000000000E+00 -0.48931186840E+03  0.50502584544E+03  0.12500000000E+03 0.  0.
<mgrwt>
<rscale>  0 0.12500000E+03</rscale>
<asrwt>0</asrwt>
<pdfrwt beam="1">  1       21 0.12087674E-02 0.12500000E+03</pdfrwt>
<pdfrwt beam="2">  1       21 0.76487518E-01 0.12500000E+03</pdfrwt>
<totfact> 0.41772812E+06</totfact>
</mgrwt>
</event>
<event>
 3    1  0.1603864E-001  0.1250000E+03  0.7546771E-02  0.1235069E+00
         21   -1    0    0  502  501  0.00000000000E+00  0.00000000000E+00  0.41965743429E+03  0.41965743429E+03  0.00000000000E+00 0. -1.
         21   -1    0    0  501  502 -0.00000000000E+00 -0.00000000000E+00 -0.93081872996E+01  0.93081872996E+01  0.00000000000E+00 0. -1.
         25    1    1    2    0    0  0.00000000000E+00  0.00000000000E+00  0.41034924699E+03  0.42896562159E+03  0.12500000000E+03 0.  0.
<mgrwt>
<rscale>  0 0.12500000E+03</rscale>
<asrwt>0</asrwt>
<pdfrwt beam="1">  1       21 0.64562667E-01 0.12500000E+03</pdfrwt>
<pdfrwt beam="2">  1       21 0.14320291E-02 0.12500000E+03</pdfrwt>
<totfact> 0.46177624E+06</totfact>
</mgrwt>
</event>
<event>
 3    1  0.1603864E-001  0.1250000E+03  0.7546771E-02  0.1235069E+00
         21   -1    0    0  502  501  0.00000000000E+00  0.00000000000E+00  0.38905242621E+03  0.38905242621E+03  0.00000000000E+00 0. -1.
         21   -1    0    0  501  502 -0.00000000000E+00 -0.00000000000E+00 -0.10040420614E+02  0.10040420614E+02  0.00000000000E+00 0. -1.
         25    1    1    2    0    0  0.00000000000E+00  0.00000000000E+00  0.37901200559E+03  0.39909284682E+03  0.12500000000E+03 0.  0.
<mgrwt>
<rscale>  0 0.12500000E+03</rscale>
<asrwt>0</asrwt>
<pdfrwt beam="1">  1       21 0.59854208E-01 0.12500000E+03</pdfrwt>
<pdfrwt beam="2">  1       21 0.15446804E-02 0.12500000E+03</pdfrwt>
<totfact> 0.48101584E+06</totfact>
</mgrwt>
</event>
<event>
 3    1  0.1603864E-001  0.1250000E+03  0.7546771E-02  0.1235069E+00
         21   -1    0    0  502  501  0.00000000000E+00  0.00000000000E+00  0.12703380771E+04  0.12703380771E+04  0.00000000000E+00 0.  1.
         21   -1    0    0  501  502 -0.00000000000E+00 -0.00000000000E+00 -0.30749688373E+01  0.30749688373E+01  0.00000000000E+00 0.  1.
         25    1    1    2    0    0  0.00000000000E+00  0.00000000000E+00  0.12672631083E+04  0.12734130460E+04  0.12500000000E+03 0.  0.
<mgrwt>
<rscale>  0 0.12500000E+03</rscale>
<asrwt>0</asrwt>
<pdfrwt beam="1">  1       21 0.19543621E+00 0.12500000E+03</pdfrwt>
<pdfrwt beam="2">  1       21 0.47307314E-03 0.12500000E+03</pdfrwt>
<totfact> 0.17736628E+06</totfact>
</mgrwt>
</event>
<event>
 3    1  0.1603864E-001  0.1250000E+03  0.7546771E-02  0.1235069E+00
         21   -1    0    0  502  501  0.00000000000E+00  0.00000000000E+00  0.13610433827E+02  0.13610433827E+02  0.00000000000E+00 0.  1.
         21   -1    0    0  501  502 -0.00000000000E+00 -0.00000000000E+00 -0.28700407715E+03  0.28700407715E+03  0.00000000000E+00 0.  1.
         25    1    1    2    0    0  0.00000000000E+00  0.00000000000E+00 -0.27339364332E+03  0.30061451097E+03  0.12500000000E+03 0.  0.
<mgrwt>
<rscale>  0 0.12500000E+03</rscale>
<asrwt>0</asrwt>
<pdfrwt beam="1">  1       21 0.20939131E-02 0.12500000E+03</pdfrwt>
<pdfrwt beam="2">  1       21 0.44154469E-01 0.12500000E+03</pdfrwt>
<totfact> 0.55405146E+06</totfact>
</mgrwt>
</event>
<event>
 3    1  0.1603864E-001  0.1250000E+03  0.7546771E-02  0.1235069E+00
         21   -1    0    0  502  501  0.00000000000E+00  0.00000000000E+00  0.16616203787E+03  0.16616203787E+03  0.00000000000E+00 0.  1.
         21   -1    0    0  501  502 -0.00000000000E+00 -0.00000000000E+00 -0.23508678938E+02  0.23508678938E+02  0.00000000000E+00 0.  1.
         25    1    1    2    0    0  0.00000000000E+00  0.00000000000E+00  0.14265335893E+03  0.18967071681E+03  0.12500000000E+03 0.  0.
<mgrwt>
<rscale>  0 0.12500000E+03</rscale>
<asrwt>0</asrwt>
<pdfrwt beam="1">  1       21 0.25563390E-01 0.12500000E+03</pdfrwt>
<pdfrwt beam="2">  1       21 0.36167199E-02 0.12500000E+03</pdfrwt>
<totfact> 0.66059080E+06</totfact>
</mgrwt>
</event>
<event>
 3    1  0.1603864E-001  0.1250000E+03  0.7546771E-02  0.1235069E+00
         21   -1    0    0  502  501  0.00000000000E+00  0.00000000000E+00  0.26031438891E+02  0.26031438891E+02  0.00000000000E+00 0.  1.
         21   -1    0    0  501  502 -0.00000000000E+00 -0.00000000000E+00 -0.15005893514E+03  0.15005893514E+03  0.00000000000E+00 0.  1.
         25    1    1    2    0    0  0.00000000000E+00  0.00000000000E+00 -0.12402749624E+03  0.17609037403E+03  0.12500000000E+03 0.  0.
<mgrwt>
<rscale>  0 0.12500000E+03</rscale>
<asrwt>0</asrwt>
<pdfrwt beam="1">  1       21 0.40048368E-02 0.12500000E+03</pdfrwt>
<pdfrwt beam="2">  1       21 0.23085990E-01 0.12500000E+03</pdfrwt>
<totfact> 0.67602891E+06</totfact>
</mgrwt>
</event>
<event>
 3    1  0.1603864E-001  0.1250000E+03  0.7546771E-02  0.1235069E+00
         21   -1    0    0  502  501  0.00000000000E+00  0.00000000000E+00  0.13482640244E+03  0.13482640244E+03  0.00000000000E+00 0.  1.
         21   -1    0    0  501  502 -0.00000000000E+00 -0.00000000000E+00 -0.28972441075E+02  0.28972441075E+02  0.00000000000E+00 0.  1.
         25    1    1    2    0    0  0.00000000000E+00  0.00000000000E+00  0.10585396136E+03  0.16379884351E+03  0.12500000000E+03 0.  0.
<mgrwt>
<rscale>  0 0.12500000E+03</rscale>
<asrwt>0</asrwt>
<pdfrwt beam="1">  1       21 0.20742523E-01 0.12500000E+03</pdfrwt>
<pdfrwt beam="2">  1       21 0.44572987E-02 0.12500000E+03</pdfrwt>
<totfact> 0.69058272E+06</totfact>
</mgrwt>
</event>
<event>
 3    1  0.1603864E-001  0.1250000E+03  0.7546771E-02  0.1235069E+00
         21   -1    0    0  502  501  0.00000000000E+00  0.00000000000E+00  0.85674436137E+02  0.85674436137E+02  0.00000000000E+00 0. -1.
         21   -1    0    0  501  502 -0.00000000000E+00 -0.00000000000E+00 -0.45594113905E+02  0.45594113905E+02  0.00000000000E+00 0. -1.
         25    1    1    2    0    0  0.00000000000E+00  0.00000000000E+00  0.40080322232E+02  0.13126855004E+03  0.12500000000E+03 0.  0.
<mgrwt>
<rscale>  0 0.12500000E+03</rscale>
<asrwt>0</asrwt>
<pdfrwt beam="1">  1       21 0.13180682E-01 0.12500000E+03</pdfrwt>
<pdfrwt beam="2">  1       21 0.70144791E-02 0.12500000E+03</pdfrwt>
<totfact> 0.73194505E+06</totfact>
</mgrwt>
</event>
<event>
 3    1  0.1603864E-001  0.1250000E+03  0.7546771E-02  0.1235069E+00
         21   -1    0    0  502  501  0.00000000000E+00  0.00000000000E+00  0.12418199963E+04  0.12418199963E+04  0.00000000000E+00 0.  1.
         21   -1    0    0  501  502 -0.00000000000E+00 -0.00000000000E+00 -0.31455847157E+01  0.31455847157E+01  0.00000000000E+00 0.  1.
         25    1    1    2    0    0  0.00000000000E+00  0.00000000000E+00  0.12386744116E+04  0.12449655810E+04  0.12500000000E+03 0.  0.
<mgrwt>
<rscale>  0 0.12500000E+03</rscale>
<asrwt>0</asrwt>
<pdfrwt beam="1">  1       21 0.19104884E+00 0.12500000E+03</pdfrwt>
<pdfrwt beam="2">  1       21 0.48393710E-03 0.12500000E+03</pdfrwt>
<totfact> 0.18269763E+06</totfact>
</mgrwt>
</event>
<event>
 3    1  0.1603864E-001  0.1250000E+03  0.7546771E-02  0.1235069E+00
         21   -1    0    0  502  501  0.00000000000E+00  0.00000000000E+00  0.23854552525E+03  0.23854552525E+03  0.00000000000E+00 0. -1.
         21   -1    0    0  501  502 -0.00000000000E+00 -0.00000000000E+00 -0.16375280969E+02  0.16375280969E+02  0.00000000000E+00 0. -1.
         25    1    1    2    0    0  0.00000000000E+00  0.00000000000E+00  0.22217024428E+03  0.25492080622E+03  0.12500000000E+03 0.  0.
<mgrwt>
<rscale>  0 0.12500000E+03</rscale>
<asrwt>0</asrwt>
<pdfrwt beam="1">  1       21 0.36699309E-01 0.12500000E+03</pdfrwt>
<pdfrwt beam="2">  1       21 0.25192742E-02 0.12500000E+03</pdfrwt>
<totfact> 0.59417973E+06</totfact>
</mgrwt>
</event>
<event>
 3    1  0.1603864E-001  0.1250000E+03  0.7546771E-02  0.1235069E+00
         21   -1    0    0  502  501  0.00000000000E+00  0.00000000000E+00  0.98816426804E+02  0.98816426804E+02  0.00000000000E+00 0. -1.
         21   -1    0    0  501  502 -0.00000000000E+00 -0.00000000000E+00 -0.39530370874E+02  0.39530370874E+02  0.00000000000E+00 0. -1.
         25    1    1    2    0    0  0.00000000000E+00  0.00000000000E+00  0.59286055930E+02  0.13834679768E+03  0.12500000000E+03 0.  0.
<mgrwt>
<rscale>  0 0.12500000E+03</rscale>
<asrwt>0</asrwt>
<pdfrwt beam="1">  1       21 0.15202527E-01 0.12500000E+03</pdfrwt>
<pdfrwt beam="2">  1       21 0.60815955E-02 0.12500000E+03</pdfrwt>
<totfact> 0.72255872E+06</totfact>
</mgrwt>
</event>
<event>
 3    1  0.1603864E-001  0.1250000E+03  0.7546771E-02  0.1235069E+00
         21   -1    0    0  502  501  0.00000000000E+00  0.00000000000E+00  0.17100264893E+03  0.17100264893E+03  0.00000000000E+00 0. -1.
         21   -1    0    0  501  502 -0.00000000000E+00 -0.00000000000E+00 -0.22843213392E+02  0.22843213392E+02  0.00000000000E+00 0. -1.
         25    1    1    2    0    0  0.00000000000E+00  0.00000000000E+00  0.14815943554E+03  0.19384586232E+03  0.12500000000E+03 0.  0.
<mgrwt>
<rscale>  0 0.12500000E+03</rscale>
<asrwt>0</asrwt>
<pdfrwt beam="1">  1       21 0.26308099E-01 0.12500000E+03</pdfrwt>
<pdfrwt beam="2">  1       21 0.35143406E-02 0.12500000E+03</pdfrwt>
<totfact> 0.65597561E+06</totfact>
</mgrwt>
</event>
<event>
 3    1  0.1603864E-001  0.1250000E+03  0.7546771E-02  0.1235069E+00
         21   -1    0    0  502  501  0.00000000000E+00  0.00000000000E+00  0.56971287940E+03  0.56971287940E+03  0.00000000000E+00 0.  1.
         21   -1    0    0  501  502 -0.00000000000E+00 -0.00000000000E+00 -0.68565239461E+01  0.68565239461E+01  0.00000000000E+00 0.  1.
         25    1    1    2    0    0  0.00000000000E+00  0.00000000000E+00  0.56285635545E+03  0.57656940334E+03  0.12500000000E+03 0.  0.
<mgrwt>
<rscale>  0 0.12500000E+03</rscale>
<asrwt>0</asrwt>
<pdfrwt beam="1">  1       21 0.87648098E-01 0.12500000E+03</pdfrwt>
<pdfrwt beam="2">  1       21 0.10548503E-02 0.12500000E+03</pdfrwt>
<totfact> 0.38174162E+06</totfact>
</mgrwt>
</event>
<event>
 3    1  0.1603864E-001  0.1250000E+03  0.7546771E-02  0.1235069E+00
         21   -1    0    0  502  501  0.00000000000E+00  0.00000000000E+00  0.28207426972E+02  0.28207426972E+02  0.00000000000E+00 0. -1.
         21   -1    0    0  501  502 -0.00000000000E+00 -0.00000000000E+00 -0.13848303158E+03  0.13848303158E+03  0.00000000000E+00 0. -1.
         25    1    1    2    0    0  0.00000000000E+00  0.00000000000E+00 -0.11027560460E+03  0.16669045855E+03  0.12500000000E+03 0.  0.
<mgrwt>
<rscale>  0 0.12500000E+03</rscale>
<asrwt>0</asrwt>
<pdfrwt beam="1">  1       21 0.43396042E-02 0.12500000E+03</pdfrwt>
<pdfrwt beam="2">  1       21 0.21305081E-01 0.12500000E+03</pdfrwt>
<totfact> 0.68711095E+06</totfact>
</mgrwt>
</event>
<event>
 3    1  0.1603864E-001  0.1250000E+03  0.7546771E-02  0.1235069E+00
         21   -1    0    0  502  501  0.00000000000E+00  0.00000000000E+00  0.40289844078E+02  0.40289844078E+02  0.00000000000E+00 0.  1.
         21   -1    0    0  501  502 -0.00000000000E+00 -0.00000000000E+00 -0.96953713508E+02  0.96953713508E+02  0.00000000000E+00 0.  1.
         25    1    1    2    0    0  0.00000000000E+00  0.00000000000E+00 -0.56663869430E+02  0.13724355759E+03  0.12500000000E+03 0.  0.
<mgrwt>
<rscale>  0 0.12500000E+03</rscale>
<asrwt>0</asrwt>
<pdfrwt beam="1">  1       21 0.61984376E-02 0.12500000E+03</pdfrwt>
<pdfrwt beam="2">  1       21 0.14915956E-01 0.12500000E+03</pdfrwt>
<totfact> 0.72400751E+06</totfact>
</mgrwt>
</event>
<event>
 3    1  0.1603864E-001  0.1250000E+03  0.7546771E-02  0.1235069E+00
         21   -1    0    0  502  501  0.00000000000E+00  0.00000000000E+00  0.75948438703E+01  0.75948438703E+01  0.00000000000E+00 0.  1.
         21   -1    0    0  501  502 -0.00000000000E+00 -0.00000000000E+00 -0.51432920369E+03  0.51432920369E+03  0.00000000000E+00 0.  1.
         25    1    1    2    0    0  0.00000000000E+00  0.00000000000E+00 -0.50673435982E+03  0.52192404756E+03  0.12500000000E+03 0.  0.
<mgrwt>
<rscale>  0 0.12500000E+03</rscale>
<asrwt>0</asrwt>
<pdfrwt beam="1">  1       21 0.11684371E-02 0.12500000E+03</pdfrwt>
<pdfrwt beam="2">  1       21 0.79127600E-01 0.12500000E+03</pdfrwt>
<totfact> 0.40879495E+06</totfact>
</mgrwt>
</event>
<event>
 3    1  0.1603864E-001  0.1250000E+03  0.7546771E-02  0.1235069E+00
         21   -1    0    0  502  501  0.00000000000E+00  0.00000000000E+00  0.24614200531E+03  0.24614200531E+03  0.00000000000E+00 0. -1.
         21   -1    0    0  501  502 -0.00000000000E+00 -0.00000000000E+00 -0.15869904022E+02  0.15869904022E+02  0.00000000000E+00 0. -1.
         25    1    1    2    0    0  0.00000000000E+00  0.00000000000E+00  0.23027210128E+03  0.26201190933E+03  0.12500000000E+03 0.  0.
<mgrwt>
<rscale>  0 0.12500000E+03</rscale>
<asrwt>0</asrwt>
<pdfrwt beam="1">  1       21 0.37867998E-01 0.12500000E+03</pdfrwt>
<pdfrwt beam="2">  1       21 0.24415239E-02 0.12500000E+03</pdfrwt>
<totfact> 0.58765359E+06</totfact>
</mgrwt>
</event>
<event>
 3    1  0.1603864E-001  0.1250000E+03  0.7546771E-02  0.1235069E+00
         21   -1    0    0  502  501  0.00000000000E+00  0.00000000000E+00  0.23663245264E+02  0.23663245264E+02  0.00000000000E+00 0. -1.
         21   -1    0    0  501  502 -0.00000000000E+00 -0.00000000000E+00 -0.16507668143E+03  0.16507668143E+03  0.00000000000E+00 0. -1.
         25    1    1    2    0    0  0.00000000000E+00  0.00000000000E+00 -0.14141343616E+03  0.18873992669E+03  0.12500000000E+03 0.  0.
<mgrwt>
<rscale>  0 0.12500000E+03</rscale>
<asrwt>0</asrwt>
<pdfrwt beam="1">  1       21 0.36404992E-02 0.12500000E+03</pdfrwt>
<pdfrwt beam="2">  1       21 0.25396413E-01 0.12500000E+03</pdfrwt>
<totfact> 0.66162783E+06</totfact>
</mgrwt>
</event>
<event>
 3    1  0.1603864E-001  0.1250000E+03  0.7546771E-02  0.1235069E+00
         21   -1    0    0  502  501  0.00000000000E+00  0.00000000000E+00  0.10260091530E+02  0.10260091530E+02  0.00000000000E+00 0. -1.
         21   -1    0    0  501  502 -0.00000000000E+00 -0.00000000000E+00 -0.38072272440E+03  0.38072272440E+03  0.00000000000E+00 0. -1.
         25    1    1    2    0    0  0.00000000000E+00  0.00000000000E+00 -0.37046263287E+03  0.39098281593E+03  0.12500000000E+03 0.  0.
<mgrwt>
<rscale>  0 0.12500000E+03</rscale>
<asrwt>0</asrwt>
<pdfrwt beam="1">  1       21 0.15784760E-02 0.12500000E+03</pdfrwt>
<pdfrwt beam="2">  1       21 0.58572714E-01 0.12500000E+03</pdfrwt>
<totfact> 0.48645264E+06</totfact>
</mgrwt>
</event>
<event>
 3    1  0.1603864E-001  0.1250000E+03  0.7546771E-02  0.1235069E+00
         21   -1    0    0  502  501  0.00000000000E+00  0.00000000000E+00  0.18672555021E+02  0.18672555021E+02  0.00000000000E+00 0. -1.
         21   -1    0    0  501  502 -0.00000000000E+00 -0.00000000000E+00 -0.20919740205E+03  0.20919740205E+03  0.00000000000E+00 0. -1.
         25    1    1    2    0    0  0.00000000000E+00  0.00000000000E+00 -0.19052484703E+03  0.22786995707E+03  0.12500000000E+03 0.  0.
<mgrwt>
<rscale>  0 0.12500000E+03</rscale>
<asrwt>0</asrwt>
<pdfrwt beam="1">  1       21 0.28727007E-02 0.12500000E+03</pdfrwt>
<pdfrwt beam="2">  1       21 0.32184217E-01 0.12500000E+03</pdfrwt>
<totfact> 0.62026596E+06</totfact>
</mgrwt>
</event>
<event>
 3    1  0.1603864E-001  0.1250000E+03  0.7546771E-02  0.1235069E+00
         21   -1    0    0  502  501  0.00000000000E+00  0.00000000000E+00  0.33402204115E+03  0.33402204115E+03  0.00000000000E+00 0.  1.
         21   -1    0    0  501  502 -0.00000000000E+00 -0.00000000000E+00 -0.11694587538E+02  0.11694587538E+02  0.00000000000E+00 0.  1.
         25    1    1    2    0    0  0.00000000000E+00  0.00000000000E+00  0.32232745361E+03  0.34571662869E+03  0.12500000000E+03 0.  0.
<mgrwt>
<rscale>  0 0.12500000E+03</rscale>
<asrwt>0</asrwt>
<pdfrwt beam="1">  1       21 0.51387999E-01 0.12500000E+03</pdfrwt>
<pdfrwt beam="2">  1       21 0.17991676E-02 0.12500000E+03</pdfrwt>
<totfact> 0.51856337E+06</totfact>
</mgrwt>
</event>
<event>
 3    1  0.1603864E-001  0.1250000E+03  0.7546771E-02  0.1235069E+00
         21   -1    0    0  502  501  0.00000000000E+00  0.00000000000E+00  0.62961109366E+02  0.62961109366E+02  0.00000000000E+00 0. -1.
         21   -1    0    0  501  502 -0.00000000000E+00 -0.00000000000E+00 -0.62042267668E+02  0.62042267668E+02  0.00000000000E+00 0. -1.
         25    1    1    2    0    0  0.00000000000E+00  0.00000000000E+00  0.91884169826E+00  0.12500337703E+03  0.12500000000E+03 0.  0.
<mgrwt>
<rscale>  0 0.12500000E+03</rscale>
<asrwt>0</asrwt>
<pdfrwt beam="1">  1       21 0.96863245E-02 0.12500000E+03</pdfrwt>
<pdfrwt beam="2">  1       21 0.95449643E-02 0.12500000E+03</pdfrwt>
<totfact> 0.74043125E+06</totfact>
</mgrwt>
</event>
<event>
 3    1  0.1603864E-001  0.1250000E+03  0.7546771E-02  0.1235069E+00
         21   -1    0    0  502  501  0.00000000000E+00  0.00000000000E+00  0.12450026572E+03  0.12450026572E+03  0.00000000000E+00 0. -1.
         21   -1    0    0  501  502 -0.00000000000E+00 -0.00000000000E+00 -0.31375435043E+02  0.31375435043E+02  0.00000000000E+00 0. -1.
         25    1    1    2    0    0  0.00000000000E+00  0.00000000000E+00  0.93124830678E+02  0.15587570076E+03  0.12500000000E+03 0.  0.
<mgrwt>
<rscale>  0 0.12500000E+03</rscale>
<asrwt>0</asrwt>
<pdfrwt beam="1">  1       21 0.19153887E-01 0.12500000E+03</pdfrwt>
<pdfrwt beam="2">  1       21 0.48269901E-02 0.12500000E+03</pdfrwt>
<totfact> 0.70026984E+06</totfact>
</mgrwt>
</event>
<event>
 3    1  0.1603864E-001  0.1250000E+03  0.7546771E-02  0.1235069E+00
         21   -1    0    0  502  501  0.00000000000E+00  0.00000000000E+00  0.67419971043E+03  0.67419971043E+03  0.00000000000E+00 0.  1.
         21   -1    0    0  501  502 -0.00000000000E+00 -0.00000000000E+00 -0.57939063746E+01  0.57939063746E+01  0.00000000000E+00 0.  1.
         25    1    1    2    0    0  0.00000000000E+00  0.00000000000E+00  0.66840580405E+03  0.67999361680E+03  0.12500000000E+03 0.  0.
<mgrwt>
<rscale>  0 0.12500000E+03</rscale>
<asrwt>0</asrwt>
<pdfrwt beam="1">  1       21 0.10372297E+00 0.12500000E+03</pdfrwt>
<pdfrwt beam="2">  1       21 0.89137074E-03 0.12500000E+03</pdfrwt>
<totfact> 0.33695838E+06</totfact>
</mgrwt>
</event>
<event>
 3    1  0.1603864E-001  0.1250000E+03  0.7546771E-02  0.1235069E+00
         21   -1    0    0  502  501  0.00000000000E+00  0.00000000000E+00  0.17947728922E+03  0.17947728922E+03  0.00000000000E+00 0.  1.
         21   -1    0    0  501  502 -0.00000000000E+00 -0.00000000000E+00 -0.21764592150E+02  0.21764592150E+02  0.00000000000E+00 0.  1.
         25    1    1    2    0    0  0.00000000000E+00  0.00000000000E+00  0.15771269707E+03  0.20124188137E+03  0.12500000000E+03 0.  0.
<mgrwt>
<rscale>  0 0.12500000E+03</rscale>
<asrwt>0</asrwt>
<pdfrwt beam="1">  1       21 0.27611890E-01 0.12500000E+03</pdfrwt>
<pdfrwt beam="2">  1       21 0.33483989E-02 0.12500000E+03</pdfrwt>
<totfact> 0.64792935E+06</totfact>
</mgrwt>
</event>
<event>
 3    1  0.1603864E-001  0.1250000E+03  0.7546771E-02  0.1235069E+00
         21   -1    0    0  502  501  0.00000000000E+00  0.00000000000E+00  0.19314791375E+03  0.19314791375E+03  0.00000000000E+00 0.  1.
         21   -1    0    0  501  502 -0.00000000000E+00 -0.00000000000E+00 -0.20224137678E+02  0.20224137678E+02  0.00000000000E+00 0.  1.
         25    1    1    2    0    0  0.00000000000E+00  0.00000000000E+00  0.17292377608E+03  0.21337205143E+03  0.12500000000E+03 0.  0.
<mgrwt>
<rscale>  0 0.12500000E+03</rscale>
<asrwt>0</asrwt>
<pdfrwt beam="1">  1       21 0.29715062E-01 0.12500000E+03</pdfrwt>
<pdfrwt beam="2">  1       21 0.31114059E-02 0.12500000E+03</pdfrwt>
<totfact> 0.63506495E+06</totfact>
</mgrwt>
</event>
<event>
 3    1  0.1603864E-001  0.1250000E+03  0.7546771E-02  0.1235069E+00
         21   -1    0    0  502  501  0.00000000000E+00  0.00000000000E+00  0.24931967282E+02  0.24931967282E+02  0.00000000000E+00 0.  1.
         21   -1    0    0  501  502 -0.00000000000E+00 -0.00000000000E+00 -0.15667636476E+03  0.15667636476E+03  0.00000000000E+00 0.  1.
         25    1    1    2    0    0  0.00000000000E+00  0.00000000000E+00 -0.13174439747E+03  0.18160833204E+03  0.12500000000E+03 0.  0.
<mgrwt>
<rscale>  0 0.12500000E+03</rscale>
<asrwt>0</asrwt>
<pdfrwt beam="1">  1       21 0.38356873E-02 0.12500000E+03</pdfrwt>
<pdfrwt beam="2">  1       21 0.24104056E-01 0.12500000E+03</pdfrwt>
<totfact> 0.66967511E+06</totfact>
</mgrwt>
</event>
<event>
 3    1  0.1603864E-001  0.1250000E+03  0.7546771E-02  0.1235069E+00
         21   -1    0    0  502  501  0.00000000000E+00  0.00000000000E+00  0.82810462828E+02  0.82810462828E+02  0.00000000000E+00 0.  1.
         21   -1    0    0  501  502 -0.00000000000E+00 -0.00000000000E+00 -0.47170971718E+02  0.47170971718E+02  0.00000000000E+00 0.  1.
         25    1    1    2    0    0  0.00000000000E+00  0.00000000000E+00  0.35639491109E+02  0.12998143455E+03  0.12500000000E+03 0.  0.
<mgrwt>
<rscale>  0 0.12500000E+03</rscale>
<asrwt>0</asrwt>
<pdfrwt beam="1">  1       21 0.12740071E-01 0.12500000E+03</pdfrwt>
<pdfrwt beam="2">  1       21 0.72570726E-02 0.12500000E+03</pdfrwt>
<totfact> 0.73367396E+06</totfact>
</mgrwt>
</event>
<event>
 3    1  0.1603864E-001  0.1250000E+03  0.7546771E-02  0.1235069E+00
         21   -1    0    0  502  501  0.00000000000E+00  0.00000000000E+00  0.11002437280E+04  0.11002437280E+04  0.00000000000E+00 0. -1.
         21   -1    0    0  501  502 -0.00000000000E+00 -0.00000000000E+00 -0.35503497094E+01  0.35503497094E+01  0.00000000000E+00 0. -1.
         25    1    1    2    0    0  0.00000000000E+00  0.00000000000E+00  0.10966933783E+04  0.11037940777E+04  0.12500000000E+03 0.  0.
<mgrwt>
<rscale>  0 0.12500000E+03</rscale>
<asrwt>0</asrwt>
<pdfrwt beam="1">  1       21 0.16926799E+00 0.12500000E+03</pdfrwt>
<pdfrwt beam="2">  1       21 0.54620852E-03 0.12500000E+03</pdfrwt>
<totfact> 0.21167263E+06</totfact>
</mgrwt>
</event>
<event>
 3    1  0.1603864E-001  0.1250000E+03  0.7546771E-02  0.1235069E+00
         21   -1    0    0  502  501  0.00000000000E+00  0.00000000000E+00  0.20997039015E+02  0.20997039015E+02  0.00000000000E+00 0.  1.
         21   -1    0    0  501  502 -0.00000000000E+00 -0.00000000000E+00 -0.18603813600E+03  0.18603813600E+03  0.00000000000E+00 0.  1.
         25    1    1    2    0    0  0.00000000000E+00  0.00000000000E+00 -0.16504109699E+03  0.20703517502E+03  0.12500000000E+03 0.  0.
<mgrwt>
<rscale>  0 0.12500000E+03</rscale>
<asrwt>0</asrwt>
<pdfrwt beam="1">  1       21 0.32303137E-02 0.12500000E+03</pdfrwt>
<pdfrwt beam="2">  1       21 0.28621251E-01 0.12500000E+03</pdfrwt>
<totfact> 0.64172825E+06</totfact>
</mgrwt>
</event>
<event>
 3    1  0.1603864E-001  0.1250000E+03  0.7546771E-02  0.1235069E+00
         21   -1    0    0  502  501  0.00000000000E+00  0.00000000000E+00  0.33970781505E+03  0.33970781505E+03  0.00000000000E+00 0.  1.
         21   -1    0    0  501  502 -0.00000000000E+00 -0.00000000000E+00 -0.11498852328E+02  0.11498852328E+02  0.00000000000E+00 0.  1.
         25    1    1    2    0    0  0.00000000000E+00  0.00000000000E+00  0.32820896272E+03  0.35120666737E+03  0.12500000000E+03 0.  0.
<mgrwt>
<rscale>  0 0.12500000E+03</rscale>
<asrwt>0</asrwt>
<pdfrwt beam="1">  1       21 0.52262733E-01 0.12500000E+03</pdfrwt>
<pdfrwt beam="2">  1       21 0.17690545E-02 0.12500000E+03</pdfrwt>
<totfact> 0.51449443E+06</totfact>
</mgrwt>
</event>
<event>
 3    1  0.1603864E-001  0.1250000E+03  0.7546771E-02  0.1235069E+00
         21   -1    0    0  502  501  0.00000000000E+00  0.00000000000E+00  0.67330326708E+02  0.67330326708E+02  0.00000000000E+00 0. -1.
         21   -1    0    0  501  502 -0.00000000000E+00 -0.00000000000E+00 -0.58016204450E+02  0.58016204450E+02  0.00000000000E+00 0. -1.
         25    1    1    2    0    0  0.00000000000E+00  0.00000000000E+00  0.93141222580E+01  0.12534653116E+03  0.12500000000E+03 0.  0.
<mgrwt>
<rscale>  0 0.12500000E+03</rscale>
<asrwt>0</asrwt>
<pdfrwt beam="1">  1       21 0.10358512E-01 0.12500000E+03</pdfrwt>
<pdfrwt beam="2">  1       21 0.89255699E-02 0.12500000E+03</pdfrwt>
<totfact> 0.73996791E+06</totfact>
</mgrwt>
</event>
<event>
 3    1  0.1603864E-001  0.1250000E+03  0.7546771E-02  0.1235069E+00
         21   -1    0    0  502  501  0.00000000000E+00  0.00000000000E+00  0.36829908374E+01  0.36829908374E+01  0.00000000000E+00 0. -1.
         21   -1    0    0  501  502 -0.00000000000E+00 -0.00000000000E+00 -0.10606189840E+04  0.10606189840E+04  0.00000000000E+00 0. -1.
         25    1    1    2    0    0  0.00000000000E+00  0.00000000000E+00 -0.10569359932E+04  0.10643019748E+04  0.12500000000E+03 0.  0.
<mgrwt>
<rscale>  0 0.12500000E+03</rscale>
<asrwt>0</asrwt>
<pdfrwt beam="1">  1       21 0.56661245E-03 0.12500000E+03</pdfrwt>
<pdfrwt beam="2">  1       21 0.16317259E+00 0.12500000E+03</pdfrwt>
<totfact> 0.22063233E+06</totfact>
</mgrwt>
</event>
<event>
 3    1  0.1603864E-001  0.1250000E+03  0.7546771E-02  0.1235069E+00
         21   -1    0    0  502  501  0.00000000000E+00  0.00000000000E+00  0.48372773310E+01  0.48372773310E+01  0.00000000000E+00 0.  1.
         21   -1    0    0  501  502 -0.00000000000E+00 -0.00000000000E+00 -0.80753071050E+03  0.80753071050E+03  0.00000000000E+00 0.  1.
         25    1    1    2    0    0  0.00000000000E+00  0.00000000000E+00 -0.80269343316E+03  0.81236798783E+03  0.12500000000E+03 0.  0.
<mgrwt>
<rscale>  0 0.12500000E+03</rscale>
<asrwt>0</asrwt>
<pdfrwt beam="1">  1       21 0.74419559E-03 0.12500000E+03</pdfrwt>
<pdfrwt beam="2">  1       21 0.12423565E+00 0.12500000E+03</pdfrwt>
<totfact> 0.28957078E+06</totfact>
</mgrwt>
</event>
<event>
 3    1  0.1603864E-001  0.1250000E+03  0.7546771E-02  0.1235069E+00
         21   -1    0    0  502  501  0.00000000000E+00  0.00000000000E+00  0.11837595256E+03  0.11837595256E+03  0.00000000000E+00 0.  1.
         21   -1    0    0  501  502 -0.00000000000E+00 -0.00000000000E+00 -0.32998678496E+02  0.32998678496E+02  0.00000000000E+00 0.  1.
         25    1    1    2    0    0  0.00000000000E+00  0.00000000000E+00  0.85377274059E+02  0.15137463105E+03  0.12500000000E+03 0.  0.
<mgrwt>
<rscale>  0 0.12500000E+03</rscale>
<asrwt>0</asrwt>
<pdfrwt beam="1">  1       21 0.18211685E-01 0.12500000E+03</pdfrwt>
<pdfrwt beam="2">  1       21 0.50767198E-02 0.12500000E+03</pdfrwt>
<totfact> 0.70586947E+06</totfact>
</mgrwt>
</event>
<event>
 3    1  0.1603864E-001  0.1250000E+03  0.7546771E-02  0.1235069E+00
         21   -1    0    0  502  501  0.00000000000E+00  0.00000000000E+00  0.20413023799E+03  0.20413023799E+03  0.00000000000E+00 0.  1.
         21   -1    0    0  501  502 -0.00000000000E+00 -0.00000000000E+00 -0.19136067437E+02  0.19136067437E+02  0.00000000000E+00 0.  1.
         25    1    1    2    0    0  0.00000000000E+00  0.00000000000E+00  0.18499417055E+03  0.22326630543E+03  0.12500000000E+03 0.  0.
<mgrwt>
<rscale>  0 0.12500000E+03</rscale>
<asrwt>0</asrwt>
<pdfrwt beam="1">  1       21 0.31404650E-01 0.12500000E+03</pdfrwt>
<pdfrwt beam="2">  1       21 0.29440105E-02 0.12500000E+03</pdfrwt>
<totfact> 0.62490228E+06</totfact>
</mgrwt>
</event>
<event>
 3    1  0.1603864E-001  0.1250000E+03  0.7546771E-02  0.1235069E+00
         21   -1    0    0  502  501  0.00000000000E+00  0.00000000000E+00  0.29896375375E+02  0.29896375375E+02  0.00000000000E+00 0.  1.
         21   -1    0    0  501  502 -0.00000000000E+00 -0.00000000000E+00 -0.13065965191E+03  0.13065965191E+03  0.00000000000E+00 0.  1.
         25    1    1    2    0    0  0.00000000000E+00  0.00000000000E+00 -0.10076327654E+03  0.16055602729E+03  0.12500000000E+03 0.  0.
<mgrwt>
<rscale>  0 0.12500000E+03</rscale>
<asrwt>0</asrwt>
<pdfrwt beam="1">  1       21 0.45994425E-02 0.12500000E+03</pdfrwt>
<pdfrwt beam="2">  1       21 0.20101484E-01 0.12500000E+03</pdfrwt>
<totfact> 0.69451619E+06</totfact>
</mgrwt>
</event>
<event>
 3    1  0.1603864E-001  0.1250000E+03  0.7546771E-02  0.1235069E+00
         21   -1    0    0  502  501  0.00000000000E+00  0.00000000000E+00  0.16443671532E+03  0.16443671532E+03  0.00000000000E+00 0. -1.
         21   -1    0    0  501  502 -0.00000000000E+00 -0.00000000000E+00 -0.23755339509E+02  0.23755339509E+02  0.00000000000E+00 0. -1.
         25    1    1    2    0    0  0.00000000000E+00  0.00000000000E+00  0.14068137581E+03  0.18819205482E+03  0.12500000000E+03 0.  0.
<mgrwt>
<rscale>  0 0.12500000E+03</rscale>
<asrwt>0</asrwt>
<pdfrwt beam="1">  1       21 0.25297955E-01 0.12500000E+03</pdfrwt>
<pdfrwt beam="2">  1       21 0.36546677E-02 0.12500000E+03</pdfrwt>
<totfact> 0.66223966E+06</totfact>
</mgrwt>
</event>
<event>
 3    1  0.1603864E-001  0.1250000E+03  0.7546771E-02  0.1235069E+00
         21   -1    0    0  502  501  0.00000000000E+00  0.00000000000E+00  0.21919245015E+03  0.21919245015E+03  0.00000000000E+00 0.  1.
         21   -1    0    0  501  502 -0.00000000000E+00 -0.00000000000E+00 -0.17821097384E+02  0.17821097384E+02  0.00000000000E+00 0.  1.
         25    1    1    2    0    0  0.00000000000E+00  0.00000000000E+00  0.20137135277E+03  0.23701354754E+03  0.12500000000E+03 0.  0.
<mgrwt>
<rscale>  0 0.12500000E+03</rscale>
<asrwt>0</asrwt>
<pdfrwt beam="1">  1       21 0.33721913E-01 0.12500000E+03</pdfrwt>
<pdfrwt beam="2">  1       21 0.27417074E-02 0.12500000E+03</pdfrwt>
<totfact> 0.61122859E+06</totfact>
</mgrwt>
</event>
<event>
 3    1  0.1603864E-001  0.1250000E+03  0.7546771E-02  0.1235069E+00
         21   -1    0    0  502  501  0.00000000000E+00  0.00000000000E+00  0.61358525075E+02  0.61358525075E+02  0.00000000000E+00 0. -1.
         21   -1    0    0  501  502 -0.00000000000E+00 -0.00000000000E+00 -0.63662710198E+02  0.63662710198E+02  0.00000000000E+00 0. -1.
         25    1    1    2    0    0  0.00000000000E+00  0.00000000000E+00 -0.23041851230E+01  0.12502123527E+03  0.12500000000E+03 0.  0.
<mgrwt>
<rscale>  0 0.12500000E+03</rscale>
<asrwt>0</asrwt>
<pdfrwt beam="1">  1       21 0.94397731E-02 0.12500000E+03</pdfrwt>
<pdfrwt beam="2">  1       21 0.97942631E-02 0.12500000E+03</pdfrwt>
<totfact> 0.74040713E+06</totfact>
</mgrwt>
</event>
<event>
 3    1  0.1603864E-001  0.1250000E+03  0.7546771E-02  0.1235069E+00
         21   -1    0    0  502  501  0.00000000000E+00  0.00000000000E+00  0.16379942583E+03  0.16379942583E+03  0.00000000000E+00 0. -1.
         21   -1    0    0  501  502 -0.00000000000E+00 -0.00000000000E+00 -0.23847763691E+02  0.23847763691E+02  0.00000000000E+00 0. -1.
         25    1    1    2    0    0  0.00000000000E+00  0.00000000000E+00  0.13995166214E+03  0.18764718952E+03  0.12500000000E+03 0.  0.
<mgrwt>
<rscale>  0 0.12500000E+03</rscale>
<asrwt>0</asrwt>
<pdfrwt beam="1">  1       21 0.25199911E-01 0.12500000E+03</pdfrwt>
<pdfrwt beam="2">  1       21 0.36688868E-02 0.12500000E+03</pdfrwt>
<totfact> 0.66284917E+06</totfact>
</mgrwt>
</event>
<event>
 3    1  0.1603864E-001  0.1250000E+03  0.7546771E-02  0.1235069E+00
         21   -1    0    0  502  501  0.00000000000E+00  0.00000000000E+00  0.19671967903E+03  0.19671967903E+03  0.00000000000E+00 0.  1.
         21   -1    0    0  501  502 -0.00000000000E+00 -0.00000000000E+00 -0.19856935612E+02  0.19856935612E+02  0.00000000000E+00 0.  1.
         25    1    1    2    0    0  0.00000000000E+00  0.00000000000E+00  0.17686274341E+03  0.21657661464E+03  0.12500000000E+03 0.  0.
<mgrwt>
<rscale>  0 0.12500000E+03</rscale>
<asrwt>0</asrwt>
<pdfrwt beam="1">  1       21 0.30264565E-01 0.12500000E+03</pdfrwt>
<pdfrwt beam="2">  1       21 0.30549133E-02 0.12500000E+03</pdfrwt>
<totfact> 0.63174175E+06</totfact>
</mgrwt>
</event>
<event>
 3    1  0.1603864E-001  0.1250000E+03  0.7546771E-02  0.1235069E+00
         21   -1    0    0  502  501  0.00000000000E+00  0.00000000000E+00  0.88682822011E+02  0.88682822011E+02  0.00000000000E+00 0.  1.
         21   -1    0    0  501  502 -0.00000000000E+00 -0.00000000000E+00 -0.44047425549E+02  0.44047425549E+02  0.00000000000E+00 0.  1.
         25    1    1    2    0    0  0.00000000000E+00  0.00000000000E+00  0.44635396462E+02  0.13273024756E+03  0.12500000000E+03 0.  0.
<mgrwt>
<rscale>  0 0.12500000E+03</rscale>
<asrwt>0</asrwt>
<pdfrwt beam="1">  1       21 0.13643511E-01 0.12500000E+03</pdfrwt>
<pdfrwt beam="2">  1       21 0.67765270E-02 0.12500000E+03</pdfrwt>
<totfact> 0.72998441E+06</totfact>
</mgrwt>
</event>
<event>
 3    1  0.1603864E-001  0.1250000E+03  0.7546771E-02  0.1235069E+00
         21   -1    0    0  502  501  0.00000000000E+00  0.00000000000E+00  0.21644987036E+02  0.21644987036E+02  0.00000000000E+00 0. -1.
         21   -1    0    0  501  502 -0.00000000000E+00 -0.00000000000E+00 -0.18046903856E+03  0.18046903856E+03  0.00000000000E+00 0. -1.
         25    1    1    2    0    0  0.00000000000E+00  0.00000000000E+00 -0.15882405152E+03  0.20211402559E+03  0.12500000000E+03 0.  0.
<mgrwt>
<rscale>  0 0.12500000E+03</rscale>
<asrwt>0</asrwt>
<pdfrwt beam="1">  1       21 0.33299979E-02 0.12500000E+03</pdfrwt>
<pdfrwt beam="2">  1       21 0.27764469E-01 0.12500000E+03</pdfrwt>
<totfact> 0.64698900E+06</totfact>
</mgrwt>
</event>
<event>
 3    1  0.1603864E-001  0.1250000E+03  0.7546771E-02  0.1235069E+00
         21   -1    0    0  502  501  0.00000000000E+00  0.00000000000E+00  0.63035755643E+02  0.63035755643E+02  0.00000000000E+00 0.  1.
         21   -1    0    0  501  502 -0.00000000000E+00 -0.00000000000E+00 -0.61968797870E+02  0.61968797870E+02  0.00000000000E+00 0.  1.
         25    1    1    2    0    0  0.00000000000E+00  0.00000000000E+00  0.10669577736E+01  0.12500455351E+03  0.12500000000E+03 0.  0.
<mgrwt>
<rscale>  0 0.12500000E+03</rscale>
<asrwt>0</asrwt>
<pdfrwt beam="1">  1       21 0.96978086E-02 0.12500000E+03</pdfrwt>
<pdfrwt beam="2">  1       21 0.95336612E-02 0.12500000E+03</pdfrwt>
<totfact> 0.74042966E+06</totfact>
</mgrwt>
</event>
<event>
 3    1  0.1603864E-001  0.1250000E+03  0.7546771E-02  0.1235069E+00
         21   -1    0    0  502  501  0.00000000000E+00  0.00000000000E+00  0.31286800588E+02  0.31286800588E+02  0.00000000000E+00 0.  1.
         21   -1    0    0  501  502 -0.00000000000E+00 -0.00000000000E+00 -0.12485297079E+03  0.12485297079E+03  0.00000000000E+00 0.  1.
         25    1    1    2    0    0  0.00000000000E+00  0.00000000000E+00 -0.93566170203E+02  0.15613977138E+03  0.12500000000E+03 0.  0.
<mgrwt>
<rscale>  0 0.12500000E+03</rscale>
<asrwt>0</asrwt>
<pdfrwt beam="1">  1       21 0.48133540E-02 0.12500000E+03</pdfrwt>
<pdfrwt beam="2">  1       21 0.19208149E-01 0.12500000E+03</pdfrwt>
<totfact> 0.69994276E+06</totfact>
</mgrwt>
</event>
<event>
 3    1  0.1603864E-001  0.1250000E+03  0.7546771E-02  0.1235069E+00
         21   -1    0    0  502  501  0.00000000000E+00  0.00000000000E+00  0.51369653646E+03  0.51369653646E+03  0.00000000000E+00 0. -1.
         21   -1    0    0  501  502 -0.00000000000E+00 -0.00000000000E+00 -0.76041976590E+01  0.76041976590E+01  0.00000000000E+00 0. -1.
         25    1    1    2    0    0  0.00000000000E+00  0.00000000000E+00  0.50609233880E+03  0.52130073412E+03  0.12500000000E+03 0.  0.
<mgrwt>
<rscale>  0 0.12500000E+03</rscale>
<asrwt>0</asrwt>
<pdfrwt beam="1">  1       21 0.79030209E-01 0.12500000E+03</pdfrwt>
<pdfrwt beam="2">  1       21 0.11698770E-02 0.12500000E+03</pdfrwt>
<totfact> 0.40911962E+06</totfact>
</mgrwt>
</event>
<event>
 3    1  0.1603864E-001  0.1250000E+03  0.7546771E-02  0.1235069E+00
         21   -1    0    0  502  501  0.00000000000E+00  0.00000000000E+00  0.21930615279E+02  0.21930615279E+02  0.00000000000E+00 0. -1.
         21   -1    0    0  501  502 -0.00000000000E+00 -0.00000000000E+00 -0.17811857762E+03  0.17811857762E+03  0.00000000000E+00 0. -1.
         25    1    1    2    0    0  0.00000000000E+00  0.00000000000E+00 -0.15618796235E+03  0.20004919290E+03  0.12500000000E+03 0.  0.
<mgrwt>
<rscale>  0 0.12500000E+03</rscale>
<asrwt>0</asrwt>
<pdfrwt beam="1">  1       21 0.33739407E-02 0.12500000E+03</pdfrwt>
<pdfrwt beam="2">  1       21 0.27402859E-01 0.12500000E+03</pdfrwt>
<totfact> 0.64921921E+06</totfact>
</mgrwt>
</event>
<event>
 3    1  0.1603864E-001  0.1250000E+03  0.7546771E-02  0.1235069E+00
         21   -1    0    0  502  501  0.00000000000E+00  0.00000000000E+00  0.43862845858E+02  0.43862845858E+02  0.00000000000E+00 0. -1.
         21   -1    0    0  501  502 -0.00000000000E+00 -0.00000000000E+00 -0.89056009102E+02  0.89056009102E+02  0.00000000000E+00 0. -1.
         25    1    1    2    0    0  0.00000000000E+00  0.00000000000E+00 -0.45193163244E+02  0.13291885496E+03  0.12500000000E+03 0.  0.
<mgrwt>
<rscale>  0 0.12500000E+03</rscale>
<asrwt>0</asrwt>
<pdfrwt beam="1">  1       21 0.67481301E-02 0.12500000E+03</pdfrwt>
<pdfrwt beam="2">  1       21 0.13700924E-01 0.12500000E+03</pdfrwt>
<totfact> 0.72973236E+06</totfact>
</mgrwt>
</event>
<event>
 3    1  0.1603864E-001  0.1250000E+03  0.7546771E-02  0.1235069E+00
         21   -1    0    0  502  501  0.00000000000E+00  0.00000000000E+00  0.19582560292E+02  0.19582560292E+02  0.00000000000E+00 0.  1.
         21   -1    0    0  501  502 -0.00000000000E+00 -0.00000000000E+00 -0.19947595931E+03  0.19947595931E+03  0.00000000000E+00 0.  1.
         25    1    1    2    0    0  0.00000000000E+00  0.00000000000E+00 -0.17989339901E+03  0.21905851960E+03  0.12500000000E+03 0.  0.
<mgrwt>
<rscale>  0 0.12500000E+03</rscale>
<asrwt>0</asrwt>
<pdfrwt beam="1">  1       21 0.30127016E-02 0.12500000E+03</pdfrwt>
<pdfrwt beam="2">  1       21 0.30688609E-01 0.12500000E+03</pdfrwt>
<totfact> 0.62918897E+06</totfact>
</mgrwt>
</event>
<event>
 3    1  0.1603864E-001  0.1250000E+03  0.7546771E-02  0.1235069E+00
         21   -1    0    0  502  501  0.00000000000E+00  0.00000000000E+00  0.44197665189E+02  0.44197665189E+02  0.00000000000E+00 0.  1.
         21   -1    0    0  501  502 -0.00000000000E+00 -0.00000000000E+00 -0.88381365471E+02  0.88381365471E+02  0.00000000000E+00 0.  1.
         25    1    1    2    0    0  0.00000000000E+00  0.00000000000E+00 -0.44183700283E+02  0.13257903066E+03  0.12500000000E+03 0.  0.
<mgrwt>
<rscale>  0 0.12500000E+03</rscale>
<asrwt>0</asrwt>
<pdfrwt beam="1">  1       21 0.67996408E-02 0.12500000E+03</pdfrwt>
<pdfrwt beam="2">  1       21 0.13597133E-01 0.12500000E+03</pdfrwt>
<totfact> 0.73018664E+06</totfact>
</mgrwt>
</event>
<event>
 3    1  0.1603864E-001  0.1250000E+03  0.7546771E-02  0.1235069E+00
         21   -1    0    0  502  501  0.00000000000E+00  0.00000000000E+00  0.57137390233E+02  0.57137390233E+02  0.00000000000E+00 0. -1.
         21   -1    0    0  501  502 -0.00000000000E+00 -0.00000000000E+00 -0.68365915631E+02  0.68365915631E+02  0.00000000000E+00 0. -1.
         25    1    1    2    0    0  0.00000000000E+00  0.00000000000E+00 -0.11228525398E+02  0.12550330586E+03  0.12500000000E+03 0.  0.
<mgrwt>
<rscale>  0 0.12500000E+03</rscale>
<asrwt>0</asrwt>
<pdfrwt beam="1">  1       21 0.87903678E-02 0.12500000E+03</pdfrwt>
<pdfrwt beam="2">  1       21 0.10517833E-01 0.12500000E+03</pdfrwt>
<totfact> 0.73974934E+06</totfact>
</mgrwt>
</event>
<event>
 3    1  0.1603864E-001  0.1250000E+03  0.7546771E-02  0.1235069E+00
         21   -1    0    0  502  501  0.00000000000E+00  0.00000000000E+00  0.43960098656E+01  0.43960098656E+01  0.00000000000E+00 0.  1.
         21   -1    0    0  501  502 -0.00000000000E+00 -0.00000000000E+00 -0.88858990754E+03  0.88858990754E+03  0.00000000000E+00 0.  1.
         25    1    1    2    0    0  0.00000000000E+00  0.00000000000E+00 -0.88419389768E+03  0.89298591741E+03  0.12500000000E+03 0.  0.
<mgrwt>
<rscale>  0 0.12500000E+03</rscale>
<asrwt>0</asrwt>
<pdfrwt beam="1">  1       21 0.67630885E-03 0.12500000E+03</pdfrwt>
<pdfrwt beam="2">  1       21 0.13670621E+00 0.12500000E+03</pdfrwt>
<totfact> 0.26501694E+06</totfact>
</mgrwt>
</event>
<event>
 3    1  0.1603864E-001  0.1250000E+03  0.7546771E-02  0.1235069E+00
         21   -1    0    0  502  501  0.00000000000E+00  0.00000000000E+00  0.91206156519E+01  0.91206156519E+01  0.00000000000E+00 0. -1.
         21   -1    0    0  501  502 -0.00000000000E+00 -0.00000000000E+00 -0.42828797409E+03  0.42828797409E+03  0.00000000000E+00 0. -1.
         25    1    1    2    0    0  0.00000000000E+00  0.00000000000E+00 -0.41916735844E+03  0.43740858974E+03  0.12500000000E+03 0.  0.
<mgrwt>
<rscale>  0 0.12500000E+03</rscale>
<asrwt>0</asrwt>
<pdfrwt beam="1">  1       21 0.14031717E-02 0.12500000E+03</pdfrwt>
<pdfrwt beam="2">  1       21 0.65890454E-01 0.12500000E+03</pdfrwt>
<totfact> 0.45655176E+06</totfact>
</mgrwt>
</event>
<event>
 3    1  0.1603864E-001  0.1250000E+03  0.7546771E-02  0.1235069E+00
         21   -1    0    0  502  501  0.00000000000E+00  0.00000000000E+00  0.10906142230E+02  0.10906142230E+02  0.00000000000E+00 0. -1.
         21   -1    0    0  501  502 -0.00000000000E+00 -0.00000000000E+00 -0.35816972837E+03  0.35816972837E+03  0.00000000000E+00 0. -1.
         25    1    1    2    0    0  0.00000000000E+00  0.00000000000E+00 -0.34726358614E+03  0.36907587060E+03  0.12500000000E+03 0.  0.
<mgrwt>
<rscale>  0 0.12500000E+03</rscale>
<asrwt>0</asrwt>
<pdfrwt beam="1">  1       21 0.16778681E-02 0.12500000E+03</pdfrwt>
<pdfrwt beam="2">  1       21 0.55103032E-01 0.12500000E+03</pdfrwt>
<totfact> 0.50159749E+06</totfact>
</mgrwt>
</event>
<event>
 3    1  0.1603864E-001  0.1250000E+03  0.7546771E-02  0.1235069E+00
         21   -1    0    0  502  501  0.00000000000E+00  0.00000000000E+00  0.57809215668E+01  0.57809215668E+01  0.00000000000E+00 0.  1.
         21   -1    0    0  501  502 -0.00000000000E+00 -0.00000000000E+00 -0.67571406304E+03  0.67571406304E+03  0.00000000000E+00 0.  1.
         25    1    1    2    0    0  0.00000000000E+00  0.00000000000E+00 -0.66993314147E+03  0.68149498461E+03  0.12500000000E+03 0.  0.
<mgrwt>
<rscale>  0 0.12500000E+03</rscale>
<asrwt>0</asrwt>
<pdfrwt beam="1">  1       21 0.88937238E-03 0.12500000E+03</pdfrwt>
<pdfrwt beam="2">  1       21 0.10395603E+00 0.12500000E+03</pdfrwt>
<totfact> 0.33635854E+06</totfact>
</mgrwt>
</event>
<event>
 3    1  0.1603864E-001  0.1250000E+03  0.7546771E-02  0.1235069E+00
         21   -1    0    0  502  501  0.00000000000E+00  0.00000000000E+00  0.17367691285E+03  0.17367691285E+03  0.00000000000E+00 0.  1.
         21   -1    0    0  501  502 -0.00000000000E+00 -0.00000000000E+00 -0.22491475325E+02  0.22491475325E+02  0.00000000000E+00 0.  1.
         25    1    1    2    0    0  0.00000000000E+00  0.00000000000E+00  0.15118543753E+03  0.19616838818E+03  0.12500000000E+03 0.  0.
<mgrwt>
<rscale>  0 0.12500000E+03</rscale>
<asrwt>0</asrwt>
<pdfrwt beam="1">  1       21 0.26719524E-01 0.12500000E+03</pdfrwt>
<pdfrwt beam="2">  1       21 0.34602271E-02 0.12500000E+03</pdfrwt>
<totfact> 0.65343373E+06</totfact>
</mgrwt>
</event>
<event>
 3    1  0.1603864E-001  0.1250000E+03  0.7546771E-02  0.1235069E+00
         21   -1    0    0  502  501  0.00000000000E+00  0.00000000000E+00  0.35719342439E+02  0.35719342439E+02  0.00000000000E+00 0. -1.
         21   -1    0    0  501  502 -0.00000000000E+00 -0.00000000000E+00 -0.10935951597E+03  0.10935951597E+03  0.00000000000E+00 0. -1.
         25    1    1    2    0    0  0.00000000000E+00  0.00000000000E+00 -0.73640173534E+02  0.14507885841E+03  0.12500000000E+03 0.  0.
<mgrwt>
<rscale>  0 0.12500000E+03</rscale>
<asrwt>0</asrwt>
<pdfrwt beam="1">  1       21 0.54952836E-02 0.12500000E+03</pdfrwt>
<pdfrwt beam="2">  1       21 0.16824540E-01 0.12500000E+03</pdfrwt>
<totfact> 0.71383008E+06</totfact>
</mgrwt>
</event>
<event>
 3    1  0.1603864E-001  0.1250000E+03  0.7546771E-02  0.1235069E+00
         21   -1    0    0  502  501  0.00000000000E+00  0.00000000000E+00  0.68997945067E+01  0.68997945067E+01  0.00000000000E+00 0. -1.
         21   -1    0    0  501  502 -0.00000000000E+00 -0.00000000000E+00 -0.56614004898E+03  0.56614004898E+03  0.00000000000E+00 0. -1.
         25    1    1    2    0    0  0.00000000000E+00  0.00000000000E+00 -0.55924025447E+03  0.57303984349E+03  0.12500000000E+03 0.  0.
<mgrwt>
<rscale>  0 0.12500000E+03</rscale>
<asrwt>0</asrwt>
<pdfrwt beam="1">  1       21 0.10615066E-02 0.12500000E+03</pdfrwt>
<pdfrwt beam="2">  1       21 0.87098489E-01 0.12500000E+03</pdfrwt>
<totfact> 0.38340955E+06</totfact>
</mgrwt>
</event>
<event>
 3    1  0.1603864E-001  0.1250000E+03  0.7546771E-02  0.1235069E+00
         21   -1    0    0  502  501  0.00000000000E+00  0.00000000000E+00  0.14927393278E+02  0.14927393278E+02  0.00000000000E+00 0. -1.
         21   -1    0    0  501  502 -0.00000000000E+00 -0.00000000000E+00 -0.26168333126E+03  0.26168333126E+03  0.00000000000E+00 0. -1.
         25    1    1    2    0    0  0.00000000000E+00  0.00000000000E+00 -0.24675593798E+03  0.27661072454E+03  0.12500000000E+03 0.  0.
<mgrwt>
<rscale>  0 0.12500000E+03</rscale>
<asrwt>0</asrwt>
<pdfrwt beam="1">  1       21 0.22965221E-02 0.12500000E+03</pdfrwt>
<pdfrwt beam="2">  1       21 0.40258973E-01 0.12500000E+03</pdfrwt>
<totfact> 0.57457705E+06</totfact>
</mgrwt>
</event>
<event>
 3    1  0.1603864E-001  0.1250000E+03  0.7546771E-02  0.1235069E+00
         21   -1    0    0  502  501  0.00000000000E+00  0.00000000000E+00  0.42534277066E+03  0.42534277066E+03  0.00000000000E+00 0.  1.
         21   -1    0    0  501  502 -0.00000000000E+00 -0.00000000000E+00 -0.91837695841E+01  0.91837695841E+01  0.00000000000E+00 0.  1.
         25    1    1    2    0    0  0.00000000000E+00  0.00000000000E+00  0.41615900108E+03  0.43452654024E+03  0.12500000000E+03 0.  0.
<mgrwt>
<rscale>  0 0.12500000E+03</rscale>
<asrwt>0</asrwt>
<pdfrwt beam="1">  1       21 0.65437334E-01 0.12500000E+03</pdfrwt>
<pdfrwt beam="2">  1       21 0.14128880E-02 0.12500000E+03</pdfrwt>
<totfact> 0.45832502E+06</totfact>
</mgrwt>
</event>
<event>
 3    1  0.1603864E-001  0.1250000E+03  0.7546771E-02  0.1235069E+00
         21   -1    0    0  502  501  0.00000000000E+00  0.00000000000E+00  0.15876969217E+02  0.15876969217E+02  0.00000000000E+00 0.  1.
         21   -1    0    0  501  502 -0.00000000000E+00 -0.00000000000E+00 -0.24603247299E+03  0.24603247299E+03  0.00000000000E+00 0.  1.
         25    1    1    2    0    0  0.00000000000E+00  0.00000000000E+00 -0.23015550377E+03  0.26190944220E+03  0.12500000000E+03 0.  0.
<mgrwt>
<rscale>  0 0.12500000E+03</rscale>
<asrwt>0</asrwt>
<pdfrwt beam="1">  1       21 0.24426108E-02 0.12500000E+03</pdfrwt>
<pdfrwt beam="2">  1       21 0.37851148E-01 0.12500000E+03</pdfrwt>
<totfact> 0.58774702E+06</totfact>
</mgrwt>
</event>
<event>
 3    1  0.1603864E-001  0.1250000E+03  0.7546771E-02  0.1235069E+00
         21   -1    0    0  502  501  0.00000000000E+00  0.00000000000E+00  0.56577287763E+02  0.56577287763E+02  0.00000000000E+00 0. -1.
         21   -1    0    0  501  502 -0.00000000000E+00 -0.00000000000E+00 -0.69042722874E+02  0.69042722874E+02  0.00000000000E+00 0. -1.
         25    1    1    2    0    0  0.00000000000E+00  0.00000000000E+00 -0.12465435110E+02  0.12562001064E+03  0.12500000000E+03 0.  0.
<mgrwt>
<rscale>  0 0.12500000E+03</rscale>
<asrwt>0</asrwt>
<pdfrwt beam="1">  1       21 0.87041981E-02 0.12500000E+03</pdfrwt>
<pdfrwt beam="2">  1       21 0.10621957E-01 0.12500000E+03</pdfrwt>
<totfact> 0.73958656E+06</totfact>
</mgrwt>
</event>
<event>
 3    1  0.1603864E-001  0.1250000E+03  0.7546771E-02  0.1235069E+00
         21   -1    0    0  502  501  0.00000000000E+00  0.00000000000E+00  0.10587126147E+04  0.10587126147E+04  0.00000000000E+00 0. -1.
         21   -1    0    0  501  502 -0.00000000000E+00 -0.00000000000E+00 -0.36896226094E+01  0.36896226094E+01  0.00000000000E+00 0. -1.
         25    1    1    2    0    0  0.00000000000E+00  0.00000000000E+00  0.10550229921E+04  0.10624022373E+04  0.12500000000E+03 0.  0.
<mgrwt>
<rscale>  0 0.12500000E+03</rscale>
<asrwt>0</asrwt>
<pdfrwt beam="1">  1       21 0.16287862E+00 0.12500000E+03</pdfrwt>
<pdfrwt beam="2">  1       21 0.56763509E-03 0.12500000E+03</pdfrwt>
<totfact> 0.22107578E+06</totfact>
</mgrwt>
</event>
<event>
 3    1  0.1603864E-001  0.1250000E+03  0.7546771E-02  0.1235069E+00
         21   -1    0    0  502  501  0.00000000000E+00  0.00000000000E+00  0.81586341666E+01  0.81586341666E+01  0.00000000000E+00 0.  1.
         21   -1    0    0  501  502 -0.00000000000E+00 -0.00000000000E+00 -0.47878724799E+03  0.47878724799E+03  0.00000000000E+00 0.  1.
         25    1    1    2    0    0  0.00000000000E+00  0.00000000000E+00 -0.47062861382E+03  0.48694588216E+03  0.12500000000E+03 0.  0.
<mgrwt>
<rscale>  0 0.12500000E+03</rscale>
<asrwt>0</asrwt>
<pdfrwt beam="1">  1       21 0.12551745E-02 0.12500000E+03</pdfrwt>
<pdfrwt beam="2">  1       21 0.73659574E-01 0.12500000E+03</pdfrwt>
<totfact> 0.42760990E+06</totfact>
</mgrwt>
</event>
<event>
 3    1  0.1603864E-001  0.1250000E+03  0.7546771E-02  0.1235069E+00
         21   -1    0    0  502  501  0.00000000000E+00  0.00000000000E+00  0.24525267901E+03  0.24525267901E+03  0.00000000000E+00 0. -1.
         21   -1    0    0  501  502 -0.00000000000E+00 -0.00000000000E+00 -0.15927450888E+02  0.15927450888E+02  0.00000000000E+00 0. -1.
         25    1    1    2    0    0  0.00000000000E+00  0.00000000000E+00  0.22932522812E+03  0.26118012990E+03  0.12500000000E+03 0.  0.
<mgrwt>
<rscale>  0 0.12500000E+03</rscale>
<asrwt>0</asrwt>
<pdfrwt beam="1">  1       21 0.37731179E-01 0.12500000E+03</pdfrwt>
<pdfrwt beam="2">  1       21 0.24503772E-02 0.12500000E+03</pdfrwt>
<totfact> 0.58841275E+06</totfact>
</mgrwt>
</event>
<event>
 3    1  0.1603864E-001  0.1250000E+03  0.7546771E-02  0.1235069E+00
         21   -1    0    0  502  501  0.00000000000E+00  0.00000000000E+00  0.63752345593E+02  0.63752345593E+02  0.00000000000E+00 0. -1.
         21   -1    0    0  501  502 -0.00000000000E+00 -0.00000000000E+00 -0.61272255377E+02  0.61272255377E+02  0.00000000000E+00 0. -1.
         25    1    1    2    0    0  0.00000000000E+00  0.00000000000E+00  0.24800902160E+01  0.12502460097E+03  0.12500000000E+03 0.  0.
<mgrwt>
<rscale>  0 0.12500000E+03</rscale>
<asrwt>0</asrwt>
<pdfrwt beam="1">  1       21 0.98080531E-02 0.12500000E+03</pdfrwt>
<pdfrwt beam="2">  1       21 0.94265009E-02 0.12500000E+03</pdfrwt>
<totfact> 0.74040259E+06</totfact>
</mgrwt>
</event>
<event>
 3    1  0.1603864E-001  0.1250000E+03  0.7546771E-02  0.1235069E+00
         21   -1    0    0  502  501  0.00000000000E+00  0.00000000000E+00  0.34861309189E+03  0.34861309189E+03  0.00000000000E+00 0. -1.
         21   -1    0    0  501  502 -0.00000000000E+00 -0.00000000000E+00 -0.11205115616E+02  0.11205115616E+02  0.00000000000E+00 0. -1.
         25    1    1    2    0    0  0.00000000000E+00  0.00000000000E+00  0.33740797628E+03  0.35981820751E+03  0.12500000000E+03 0.  0.
<mgrwt>
<rscale>  0 0.12500000E+03</rscale>
<asrwt>0</asrwt>
<pdfrwt beam="1">  1       21 0.53632775E-01 0.12500000E+03</pdfrwt>
<pdfrwt beam="2">  1       21 0.17238642E-02 0.12500000E+03</pdfrwt>
<totfact> 0.50821408E+06</totfact>
</mgrwt>
</event>
<event>
 3    1  0.1603864E-001  0.1250000E+03  0.7546771E-02  0.1235069E+00
         21   -1    0    0  502  501  0.00000000000E+00  0.00000000000E+00  0.98127954686E+03  0.98127954686E+03  0.00000000000E+00 0.  1.
         21   -1    0    0  501  502 -0.00000000000E+00 -0.00000000000E+00 -0.39807718529E+01  0.39807718529E+01  0.00000000000E+00 0.  1.
         25    1    1    2    0    0  0.00000000000E+00  0.00000000000E+00  0.97729877501E+03  0.98526031872E+03  0.12500000000E+03 0.  0.
<mgrwt>
<rscale>  0 0.12500000E+03</rscale>
<asrwt>0</asrwt>
<pdfrwt beam="1">  1       21 0.15096589E+00 0.12500000E+03</pdfrwt>
<pdfrwt beam="2">  1       21 0.61242722E-03 0.12500000E+03</pdfrwt>
<totfact> 0.23990544E+06</totfact>
</mgrwt>
</event>
<event>
 3    1  0.1603864E-001  0.1250000E+03  0.7546771E-02  0.1235069E+00
         21   -1    0    0  502  501  0.00000000000E+00  0.00000000000E+00  0.54667225130E+02  0.54667225130E+02  0.00000000000E+00 0. -1.
         21   -1    0    0  501  502 -0.00000000000E+00 -0.00000000000E+00 -0.71455062712E+02  0.71455062712E+02  0.00000000000E+00 0. -1.
         25    1    1    2    0    0  0.00000000000E+00  0.00000000000E+00 -0.16787837582E+02  0.12612228784E+03  0.12500000000E+03 0.  0.
<mgrwt>
<rscale>  0 0.12500000E+03</rscale>
<asrwt>0</asrwt>
<pdfrwt beam="1">  1       21 0.84103423E-02 0.12500000E+03</pdfrwt>
<pdfrwt beam="2">  1       21 0.10993087E-01 0.12500000E+03</pdfrwt>
<totfact> 0.73889195E+06</totfact>
</mgrwt>
</event>
<event>
 3    1  0.1603864E-001  0.1250000E+03  0.7546771E-02  0.1235069E+00
         21   -1    0    0  502  501  0.00000000000E+00  0.00000000000E+00  0.84543129139E+01  0.84543129139E+01  0.00000000000E+00 0. -1.
         21   -1    0    0  501  502 -0.00000000000E+00 -0.00000000000E+00 -0.46204227828E+03  0.46204227828E+03  0.00000000000E+00 0. -1.
         25    1    1    2    0    0  0.00000000000E+00  0.00000000000E+00 -0.45358796536E+03  0.47049659119E+03  0.12500000000E+03 0.  0.
<mgrwt>
<rscale>  0 0.12500000E+03</rscale>
<asrwt>0</asrwt>
<pdfrwt beam="1">  1       21 0.13006634E-02 0.12500000E+03</pdfrwt>
<pdfrwt beam="2">  1       21 0.71083433E-01 0.12500000E+03</pdfrwt>
<totfact> 0.43690667E+06</totfact>
</mgrwt>
</event>
<event>
 3    1  0.1603864E-001  0.1250000E+03  0.7546771E-02  0.1235069E+00
         21   -1    0    0  502  501  0.00000000000E+00  0.00000000000E+00  0.11951753749E+03  0.11951753749E+03  0.00000000000E+00 0.  1.
         21   -1    0    0  501  502 -0.00000000000E+00 -0.00000000000E+00 -0.32683487981E+02  0.32683487981E+02  0.00000000000E+00 0.  1.
         25    1    1    2    0    0  0.00000000000E+00  0.00000000000E+00  0.86834049505E+02  0.15220102547E+03  0.12500000000E+03 0.  0.
<mgrwt>
<rscale>  0 0.12500000E+03</rscale>
<asrwt>0</asrwt>
<pdfrwt beam="1">  1       21 0.18387313E-01 0.12500000E+03</pdfrwt>
<pdfrwt beam="2">  1       21 0.50282290E-02 0.12500000E+03</pdfrwt>
<totfact> 0.70483795E+06</totfact>
</mgrwt>
</event>
<event>
 3    1  0.1603864E-001  0.1250000E+03  0.7546771E-02  0.1235069E+00
         21   -1    0    0  502  501  0.00000000000E+00  0.00000000000E+00  0.33732269502E+02  0.33732269502E+02  0.00000000000E+00 0.  1.
         21   -1    0    0  501  502 -0.00000000000E+00 -0.00000000000E+00 -0.11580157688E+03  0.11580157688E+03  0.00000000000E+00 0.  1.
         25    1    1    2    0    0  0.00000000000E+00  0.00000000000E+00 -0.82069307378E+02  0.14953384638E+03  0.12500000000E+03 0.  0.
<mgrwt>
<rscale>  0 0.12500000E+03</rscale>
<asrwt>0</asrwt>
<pdfrwt beam="1">  1       21 0.51895801E-02 0.12500000E+03</pdfrwt>
<pdfrwt beam="2">  1       21 0.17815627E-01 0.12500000E+03</pdfrwt>
<totfact> 0.70817808E+06</totfact>
</mgrwt>
</event>
<event>
 3    1  0.1603864E-001  0.1250000E+03  0.7546771E-02  0.1235069E+00
         21   -1    0    0  502  501  0.00000000000E+00  0.00000000000E+00  0.41481534716E+03  0.41481534716E+03  0.00000000000E+00 0.  1.
         21   -1    0    0  501  502 -0.00000000000E+00 -0.00000000000E+00 -0.94168405937E+01  0.94168405937E+01  0.00000000000E+00 0.  1.
         25    1    1    2    0    0  0.00000000000E+00  0.00000000000E+00  0.40539850656E+03  0.42423218775E+03  0.12500000000E+03 0.  0.
<mgrwt>
<rscale>  0 0.12500000E+03</rscale>
<asrwt>0</asrwt>
<pdfrwt beam="1">  1       21 0.63817732E-01 0.12500000E+03</pdfrwt>
<pdfrwt beam="2">  1       21 0.14487450E-02 0.12500000E+03</pdfrwt>
<totfact> 0.46474525E+06</totfact>
</mgrwt>
</event>
<event>
 3    1  0.1603864E-001  0.1250000E+03  0.7546771E-02  0.1235069E+00
         21   -1    0    0  502  501  0.00000000000E+00  0.00000000000E+00  0.46592422940E+01  0.46592422940E+01  0.00000000000E+00 0.  1.
         21   -1    0    0  501  502 -0.00000000000E+00 -0.00000000000E+00 -0.83838739295E+03  0.83838739295E+03  0.00000000000E+00 0.  1.
         25    1    1    2    0    0  0.00000000000E+00  0.00000000000E+00 -0.83372815065E+03  0.84304663524E+03  0.12500000000E+03 0.  0.
<mgrwt>
<rscale>  0 0.12500000E+03</rscale>
<asrwt>0</asrwt>
<pdfrwt beam="1">  1       21 0.71680653E-03 0.12500000E+03</pdfrwt>
<pdfrwt beam="2">  1       21 0.12898267E+00 0.12500000E+03</pdfrwt>
<totfact> 0.27985334E+06</totfact>
</mgrwt>
</event>
<event>
 3    1  0.1603864E-001  0.1250000E+03  0.7546771E-02  0.1235069E+00
         21   -1    0    0  502  501  0.00000000000E+00  0.00000000000E+00  0.18190909277E+02  0.18190909277E+02  0.00000000000E+00 0.  1.
         21   -1    0    0  501  502 -0.00000000000E+00 -0.00000000000E+00 -0.21473637961E+03  0.21473637961E+03  0.00000000000E+00 0.  1.
         25    1    1    2    0    0  0.00000000000E+00  0.00000000000E+00 -0.19654547033E+03  0.23292728889E+03  0.12500000000E+03 0.  0.
<mgrwt>
<rscale>  0 0.12500000E+03</rscale>
<asrwt>0</asrwt>
<pdfrwt beam="1">  1       21 0.27986015E-02 0.12500000E+03</pdfrwt>
<pdfrwt beam="2">  1       21 0.33036365E-01 0.12500000E+03</pdfrwt>
<totfact> 0.61523864E+06</totfact>
</mgrwt>
</event>
<event>
 3    1  0.1603864E-001  0.1250000E+03  0.7546771E-02  0.1235069E+00
         21   -1    0    0  502  501  0.00000000000E+00  0.00000000000E+00  0.26844680667E+01  0.26844680667E+01  0.00000000000E+00 0.  1.
         21   -1    0    0  501  502 -0.00000000000E+00 -0.00000000000E+00 -0.14551299933E+04  0.14551299933E+04  0.00000000000E+00 0.  1.
         25    1    1    2    0    0  0.00000000000E+00  0.00000000000E+00 -0.14524455252E+04  0.14578144614E+04  0.12500000000E+03 0.  0.
<mgrwt>
<rscale>  0 0.12500000E+03</rscale>
<asrwt>0</asrwt>
<pdfrwt beam="1">  1       21 0.41299459E-03 0.12500000E+03</pdfrwt>
<pdfrwt beam="2">  1       21 0.22386642E+00 0.12500000E+03</pdfrwt>
<totfact> 0.14629971E+06</totfact>
</mgrwt>
</event>
<event>
 3    1  0.1603864E-001  0.1250000E+03  0.7546771E-02  0.1235069E+00
         21   -1    0    0  502  501  0.00000000000E+00  0.00000000000E+00  0.54324162684E+02  0.54324162684E+02  0.00000000000E+00 0. -1.
         21   -1    0    0  501  502 -0.00000000000E+00 -0.00000000000E+00 -0.71906308482E+02  0.71906308482E+02  0.00000000000E+00 0. -1.
         25    1    1    2    0    0  0.00000000000E+00  0.00000000000E+00 -0.17582145798E+02  0.12623047117E+03  0.12500000000E+03 0.  0.
<mgrwt>
<rscale>  0 0.12500000E+03</rscale>
<asrwt>0</asrwt>
<pdfrwt beam="1">  1       21 0.83575635E-02 0.12500000E+03</pdfrwt>
<pdfrwt beam="2">  1       21 0.11062509E-01 0.12500000E+03</pdfrwt>
<totfact> 0.73874324E+06</totfact>
</mgrwt>
</event>
<event>
 3    1  0.1603864E-001  0.1250000E+03  0.7546771E-02  0.1235069E+00
         21   -1    0    0  502  501  0.00000000000E+00  0.00000000000E+00  0.75915660969E+01  0.75915660969E+01  0.00000000000E+00 0. -1.
         21   -1    0    0  501  502 -0.00000000000E+00 -0.00000000000E+00 -0.51455127310E+03  0.51455127310E+03  0.00000000000E+00 0. -1.
         25    1    1    2    0    0  0.00000000000E+00  0.00000000000E+00 -0.50695970700E+03  0.52214283920E+03  0.12500000000E+03 0.  0.
<mgrwt>
<rscale>  0 0.12500000E+03</rscale>
<asrwt>0</asrwt>
<pdfrwt beam="1">  1       21 0.11679333E-02 0.12500000E+03</pdfrwt>
<pdfrwt beam="2">  1       21 0.79161728E-01 0.12500000E+03</pdfrwt>
<totfact> 0.40868126E+06</totfact>
</mgrwt>
</event>
<event>
 3    1  0.1603864E-001  0.1250000E+03  0.7546771E-02  0.1235069E+00
         21   -1    0    0  502  501  0.00000000000E+00  0.00000000000E+00  0.17439906062E+02  0.17439906062E+02  0.00000000000E+00 0.  1.
         21   -1    0    0  501  502 -0.00000000000E+00 -0.00000000000E+00 -0.22398343122E+03  0.22398343122E+03  0.00000000000E+00 0.  1.
         25    1    1    2    0    0  0.00000000000E+00  0.00000000000E+00 -0.20654352516E+03  0.24142333728E+03  0.12500000000E+03 0.  0.
<mgrwt>
<rscale>  0 0.12500000E+03</rscale>
<asrwt>0</asrwt>
<pdfrwt beam="1">  1       21 0.26830626E-02 0.12500000E+03</pdfrwt>
<pdfrwt beam="2">  1       21 0.34458988E-01 0.12500000E+03</pdfrwt>
<totfact> 0.60695201E+06</totfact>
</mgrwt>
</event>
<event>
 3    1  0.1603864E-001  0.1250000E+03  0.7546771E-02  0.1235069E+00
         21   -1    0    0  502  501  0.00000000000E+00  0.00000000000E+00  0.22550303027E+03  0.22550303027E+03  0.00000000000E+00 0.  1.
         21   -1    0    0  501  502 -0.00000000000E+00 -0.00000000000E+00 -0.17322383630E+02  0.17322383630E+02  0.00000000000E+00 0.  1.
         25    1    1    2    0    0  0.00000000000E+00  0.00000000000E+00  0.20818064664E+03  0.24282541390E+03  0.12500000000E+03 0.  0.
<mgrwt>
<rscale>  0 0.12500000E+03</rscale>
<asrwt>0</asrwt>
<pdfrwt beam="1">  1       21 0.34692772E-01 0.12500000E+03</pdfrwt>
<pdfrwt beam="2">  1       21 0.26649823E-02 0.12500000E+03</pdfrwt>
<totfact> 0.60560321E+06</totfact>
</mgrwt>
</event>
<event>
 3    1  0.1603864E-001  0.1250000E+03  0.7546771E-02  0.1235069E+00
         21   -1    0    0  502  501  0.00000000000E+00  0.00000000000E+00  0.41760681222E+03  0.41760681222E+03  0.00000000000E+00 0.  1.
         21   -1    0    0  501  502 -0.00000000000E+00 -0.00000000000E+00 -0.93538943469E+01  0.93538943469E+01  0.00000000000E+00 0.  1.
         25    1    1    2    0    0  0.00000000000E+00  0.00000000000E+00  0.40825291787E+03  0.42696070656E+03  0.12500000000E+03 0.  0.
<mgrwt>
<rscale>  0 0.12500000E+03</rscale>
<asrwt>0</asrwt>
<pdfrwt beam="1">  1       21 0.64247188E-01 0.12500000E+03</pdfrwt>
<pdfrwt beam="2">  1       21 0.14390610E-02 0.12500000E+03</pdfrwt>
<totfact> 0.46303026E+06</totfact>
</mgrwt>
</event>
<event>
 3    1  0.1603864E-001  0.1250000E+03  0.7546771E-02  0.1235069E+00
         21   -1    0    0  502  501  0.00000000000E+00  0.00000000000E+00  0.89858972101E+02  0.89858972101E+02  0.00000000000E+00 0. -1.
         21   -1    0    0  501  502 -0.00000000000E+00 -0.00000000000E+00 -0.43470895656E+02  0.43470895656E+02  0.00000000000E+00 0. -1.
         25    1    1    2    0    0  0.00000000000E+00  0.00000000000E+00  0.46388076445E+02  0.13332986776E+03  0.12500000000E+03 0.  0.
<mgrwt>
<rscale>  0 0.12500000E+03</rscale>
<asrwt>0</asrwt>
<pdfrwt beam="1">  1       21 0.13824457E-01 0.12500000E+03</pdfrwt>
<pdfrwt beam="2">  1       21 0.66878301E-02 0.12500000E+03</pdfrwt>
<totfact> 0.72918381E+06</totfact>
</mgrwt>
</event>
<event>
 3    1  0.1603864E-001  0.1250000E+03  0.7546771E-02  0.1235069E+00
         21   -1    0    0  502  501  0.00000000000E+00  0.00000000000E+00  0.14467818809E+02  0.14467818809E+02  0.00000000000E+00 0.  1.
         21   -1    0    0  501  502 -0.00000000000E+00 -0.00000000000E+00 -0.26999577832E+03  0.26999577832E+03  0.00000000000E+00 0.  1.
         25    1    1    2    0    0  0.00000000000E+00  0.00000000000E+00 -0.25552795951E+03  0.28446359713E+03  0.12500000000E+03 0.  0.
<mgrwt>
<rscale>  0 0.12500000E+03</rscale>
<asrwt>0</asrwt>
<pdfrwt beam="1">  1       21 0.22258184E-02 0.12500000E+03</pdfrwt>
<pdfrwt beam="2">  1       21 0.41537810E-01 0.12500000E+03</pdfrwt>
<totfact> 0.56772541E+06</totfact>
</mgrwt>
</event>
<event>
 3    1  0.1603864E-001  0.1250000E+03  0.7546771E-02  0.1235069E+00
         21   -1    0    0  502  501  0.00000000000E+00  0.00000000000E+00  0.32513542895E+02  0.32513542895E+02  0.00000000000E+00 0.  1.
         21   -1    0    0  501  502 -0.00000000000E+00 -0.00000000000E+00 -0.12014224388E+03  0.12014224388E+03  0.00000000000E+00 0.  1.
         25    1    1    2    0    0  0.00000000000E+00  0.00000000000E+00 -0.87628700988E+02  0.15265578678E+03  0.12500000000E+03 0.  0.
<mgrwt>
<rscale>  0 0.12500000E+03</rscale>
<asrwt>0</asrwt>
<pdfrwt beam="1">  1       21 0.50020835E-02 0.12500000E+03</pdfrwt>
<pdfrwt beam="2">  1       21 0.18483422E-01 0.12500000E+03</pdfrwt>
<totfact> 0.70427159E+06</totfact>
</mgrwt>
</event>
<event>
 3    1  0.1603864E-001  0.1250000E+03  0.7546771E-02  0.1235069E+00
         21   -1    0    0  502  501  0.00000000000E+00  0.00000000000E+00  0.42765076252E+02  0.42765076252E+02  0.00000000000E+00 0. -1.
         21   -1    0    0  501  502 -0.00000000000E+00 -0.00000000000E+00 -0.91342056238E+02  0.91342056238E+02  0.00000000000E+00 0. -1.
         25    1    1    2    0    0  0.00000000000E+00  0.00000000000E+00 -0.48576979986E+02  0.13410713249E+03  0.12500000000E+03 0.  0.
<mgrwt>
<rscale>  0 0.12500000E+03</rscale>
<asrwt>0</asrwt>
<pdfrwt beam="1">  1       21 0.65792426E-02 0.12500000E+03</pdfrwt>
<pdfrwt beam="2">  1       21 0.14052624E-01 0.12500000E+03</pdfrwt>
<totfact> 0.72814912E+06</totfact>
</mgrwt>
</event>
<event>
 3    1  0.1603864E-001  0.1250000E+03  0.7546771E-02  0.1235069E+00
         21   -1    0    0  502  501  0.00000000000E+00  0.00000000000E+00  0.14169485758E+02  0.14169485758E+02  0.00000000000E+00 0. -1.
         21   -1    0    0  501  502 -0.00000000000E+00 -0.00000000000E+00 -0.27568043519E+03  0.27568043519E+03  0.00000000000E+00 0. -1.
         25    1    1    2    0    0  0.00000000000E+00  0.00000000000E+00 -0.26151094943E+03  0.28984992094E+03  0.12500000000E+03 0.  0.
<mgrwt>
<rscale>  0 0.12500000E+03</rscale>
<asrwt>0</asrwt>
<pdfrwt beam="1">  1       21 0.21799209E-02 0.12500000E+03</pdfrwt>
<pdfrwt beam="2">  1       21 0.42412375E-01 0.12500000E+03</pdfrwt>
<totfact> 0.56310376E+06</totfact>
</mgrwt>
</event>
<event>
 3    1  0.1603864E-001  0.1250000E+03  0.7546771E-02  0.1235069E+00
         21   -1    0    0  502  501  0.00000000000E+00  0.00000000000E+00  0.17033204918E+03  0.17033204918E+03  0.00000000000E+00 0.  1.
         21   -1    0    0  501  502 -0.00000000000E+00 -0.00000000000E+00 -0.22933147455E+02  0.22933147455E+02  0.00000000000E+00 0.  1.
         25    1    1    2    0    0  0.00000000000E+00  0.00000000000E+00  0.14739890172E+03  0.19326519663E+03  0.12500000000E+03 0.  0.
<mgrwt>
<rscale>  0 0.12500000E+03</rscale>
<asrwt>0</asrwt>
<pdfrwt beam="1">  1       21 0.26204930E-01 0.12500000E+03</pdfrwt>
<pdfrwt beam="2">  1       21 0.35281766E-02 0.12500000E+03</pdfrwt>
<totfact> 0.65661394E+06</totfact>
</mgrwt>
</event>
<event>
 3    1  0.1603864E-001  0.1250000E+03  0.7546771E-02  0.1235069E+00
         21   -1    0    0  502  501  0.00000000000E+00  0.00000000000E+00  0.96828142004E+02  0.96828142004E+02  0.00000000000E+00 0. -1.
         21   -1    0    0  501  502 -0.00000000000E+00 -0.00000000000E+00 -0.40342093932E+02  0.40342093932E+02  0.00000000000E+00 0. -1.
         25    1    1    2    0    0  0.00000000000E+00  0.00000000000E+00  0.56486048071E+02  0.13717023594E+03  0.12500000000E+03 0.  0.
<mgrwt>
<rscale>  0 0.12500000E+03</rscale>
<asrwt>0</asrwt>
<pdfrwt beam="1">  1       21 0.14896637E-01 0.12500000E+03</pdfrwt>
<pdfrwt beam="2">  1       21 0.62064760E-02 0.12500000E+03</pdfrwt>
<totfact> 0.72410374E+06</totfact>
</mgrwt>
</event>
<event>
 3    1  0.1603864E-001  0.1250000E+03  0.7546771E-02  0.1235069E+00
         21   -1    0    0  502  501  0.00000000000E+00  0.00000000000E+00  0.26309211031E+02  0.26309211031E+02  0.00000000000E+00 0. -1.
         21   -1    0    0  501  502 -0.00000000000E+00 -0.00000000000E+00 -0.14847461581E+03  0.14847461581E+03  0.00000000000E+00 0. -1.
         25    1    1    2    0    0  0.00000000000E+00  0.00000000000E+00 -0.12216540478E+03  0.17478382684E+03  0.12500000000E+03 0.  0.
<mgrwt>
<rscale>  0 0.12500000E+03</rscale>
<asrwt>0</asrwt>
<pdfrwt beam="1">  1       21 0.40475709E-02 0.12500000E+03</pdfrwt>
<pdfrwt beam="2">  1       21 0.22842249E-01 0.12500000E+03</pdfrwt>
<totfact> 0.67755016E+06</totfact>
</mgrwt>
</event>
<event>
 3    1  0.1603864E-001  0.1250000E+03  0.7546771E-02  0.1235069E+00
         21   -1    0    0  502  501  0.00000000000E+00  0.00000000000E+00  0.14765096031E+02  0.14765096031E+02  0.00000000000E+00 0.  1.
         21   -1    0    0  501  502 -0.00000000000E+00 -0.00000000000E+00 -0.26455974223E+03  0.26455974223E+03  0.00000000000E+00 0.  1.
         25    1    1    2    0    0  0.00000000000E+00  0.00000000000E+00 -0.24979464620E+03  0.27932483826E+03  0.12500000000E+03 0.  0.
<mgrwt>
<rscale>  0 0.12500000E+03</rscale>
<asrwt>0</asrwt>
<pdfrwt beam="1">  1       21 0.22715535E-02 0.12500000E+03</pdfrwt>
<pdfrwt beam="2">  1       21 0.40701493E-01 0.12500000E+03</pdfrwt>
<totfact> 0.57219355E+06</totfact>
</mgrwt>
</event>
<event>
 3    1  0.1603864E-001  0.1250000E+03  0.7546771E-02  0.1235069E+00
         21   -1    0    0  502  501  0.00000000000E+00  0.00000000000E+00  0.80341516122E+02  0.80341516122E+02  0.00000000000E+00 0. -1.
         21   -1    0    0  501  502 -0.00000000000E+00 -0.00000000000E+00 -0.48620566160E+02  0.48620566160E+02  0.00000000000E+00 0. -1.
         25    1    1    2    0    0  0.00000000000E+00  0.00000000000E+00  0.31720949961E+02  0.12896208228E+03  0.12500000000E+03 0.  0.
<mgrwt>
<rscale>  0 0.12500000E+03</rscale>
<asrwt>0</asrwt>
<pdfrwt beam="1">  1       21 0.12360233E-01 0.12500000E+03</pdfrwt>
<pdfrwt beam="2">  1       21 0.74800871E-02 0.12500000E+03</pdfrwt>
<totfact> 0.73503974E+06</totfact>
</mgrwt>
</event>
<event>
 3    1  0.1603864E-001  0.1250000E+03  0.7546771E-02  0.1235069E+00
         21   -1    0    0  502  501  0.00000000000E+00  0.00000000000E+00  0.36639230519E+01  0.36639230519E+01  0.00000000000E+00 0. -1.
         21   -1    0    0  501  502 -0.00000000000E+00 -0.00000000000E+00 -0.10661386565E+04  0.10661386565E+04  0.00000000000E+00 0. -1.
         25    1    1    2    0    0  0.00000000000E+00  0.00000000000E+00 -0.10624747334E+04  0.10698025795E+04  0.12500000000E+03 0.  0.
<mgrwt>
<rscale>  0 0.12500000E+03</rscale>
<asrwt>0</asrwt>
<pdfrwt beam="1">  1       21 0.56368060E-03 0.12500000E+03</pdfrwt>
<pdfrwt beam="2">  1       21 0.16402129E+00 0.12500000E+03</pdfrwt>
<totfact> 0.21935806E+06</totfact>
</mgrwt>
</event>
<event>
 3    1  0.1603864E-001  0.1250000E+03  0.7546771E-02  0.1235069E+00
         21   -1    0    0  502  501  0.00000000000E+00  0.00000000000E+00  0.47414697599E+02  0.47414697599E+02  0.00000000000E+00 0. -1.
         21   -1    0    0  501  502 -0.00000000000E+00 -0.00000000000E+00 -0.82384792012E+02  0.82384792012E+02  0.00000000000E+00 0. -1.
         25    1    1    2    0    0  0.00000000000E+00  0.00000000000E+00 -0.34970094414E+02  0.12979948961E+03  0.12500000000E+03 0.  0.
<mgrwt>
<rscale>  0 0.12500000E+03</rscale>
<asrwt>0</asrwt>
<pdfrwt beam="1">  1       21 0.72945688E-02 0.12500000E+03</pdfrwt>
<pdfrwt beam="2">  1       21 0.12674583E-01 0.12500000E+03</pdfrwt>
<totfact> 0.73391725E+06</totfact>
</mgrwt>
</event>
<event>
 3    1  0.1603864E-001  0.1250000E+03  0.7546771E-02  0.1235069E+00
         21   -1    0    0  502  501  0.00000000000E+00  0.00000000000E+00  0.16307146579E+03  0.16307146579E+03  0.00000000000E+00 0.  1.
         21   -1    0    0  501  502 -0.00000000000E+00 -0.00000000000E+00 -0.23954221427E+02  0.23954221427E+02  0.00000000000E+00 0.  1.
         25    1    1    2    0    0  0.00000000000E+00  0.00000000000E+00  0.13911724436E+03  0.18702568722E+03  0.12500000000E+03 0.  0.
<mgrwt>
<rscale>  0 0.12500000E+03</rscale>
<asrwt>0</asrwt>
<pdfrwt beam="1">  1       21 0.25087917E-01 0.12500000E+03</pdfrwt>
<pdfrwt beam="2">  1       21 0.36852649E-02 0.12500000E+03</pdfrwt>
<totfact> 0.66354567E+06</totfact>
</mgrwt>
</event>
<event>
 3    1  0.1603864E-001  0.1250000E+03  0.7546771E-02  0.1235069E+00
         21   -1    0    0  502  501  0.00000000000E+00  0.00000000000E+00  0.25085524129E+02  0.25085524129E+02  0.00000000000E+00 0.  1.
         21   -1    0    0  501  502 -0.00000000000E+00 -0.00000000000E+00 -0.15571729656E+03  0.15571729656E+03  0.00000000000E+00 0.  1.
         25    1    1    2    0    0  0.00000000000E+00  0.00000000000E+00 -0.13063177243E+03  0.18080282069E+03  0.12500000000E+03 0.  0.
<mgrwt>
<rscale>  0 0.12500000E+03</rscale>
<asrwt>0</asrwt>
<pdfrwt beam="1">  1       21 0.38593114E-02 0.12500000E+03</pdfrwt>
<pdfrwt beam="2">  1       21 0.23956507E-01 0.12500000E+03</pdfrwt>
<totfact> 0.67059558E+06</totfact>
</mgrwt>
</event>
<event>
 3    1  0.1603864E-001  0.1250000E+03  0.7546771E-02  0.1235069E+00
         21   -1    0    0  502  501  0.00000000000E+00  0.00000000000E+00  0.14065571310E+03  0.14065571310E+03  0.00000000000E+00 0. -1.
         21   -1    0    0  501  502 -0.00000000000E+00 -0.00000000000E+00 -0.27771712318E+02  0.27771712318E+02  0.00000000000E+00 0. -1.
         25    1    1    2    0    0  0.00000000000E+00  0.00000000000E+00  0.11288400078E+03  0.16842742542E+03  0.12500000000E+03 0.  0.
<mgrwt>
<rscale>  0 0.12500000E+03</rscale>
<asrwt>0</asrwt>
<pdfrwt beam="1">  1       21 0.21639340E-01 0.12500000E+03</pdfrwt>
<pdfrwt beam="2">  1       21 0.42725712E-02 0.12500000E+03</pdfrwt>
<totfact> 0.68504136E+06</totfact>
</mgrwt>
</event>
<event>
 3    1  0.1603864E-001  0.1250000E+03  0.7546771E-02  0.1235069E+00
         21   -1    0    0  502  501  0.00000000000E+00  0.00000000000E+00  0.34537519224E+03  0.34537519224E+03  0.00000000000E+00 0.  1.
         21   -1    0    0  501  502 -0.00000000000E+00 -0.00000000000E+00 -0.11310163809E+02  0.11310163809E+02  0.00000000000E+00 0.  1.
         25    1    1    2    0    0  0.00000000000E+00  0.00000000000E+00  0.33406502843E+03  0.35668535605E+03  0.12500000000E+03 0.  0.
<mgrwt>
<rscale>  0 0.12500000E+03</rscale>
<asrwt>0</asrwt>
<pdfrwt beam="1">  1       21 0.53134637E-01 0.12500000E+03</pdfrwt>
<pdfrwt beam="2">  1       21 0.17400255E-02 0.12500000E+03</pdfrwt>
<totfact> 0.51048462E+06</totfact>
</mgrwt>
</event>
<event>
 3    1  0.1603864E-001  0.1250000E+03  0.7546771E-02  0.1235069E+00
         21   -1    0    0  502  501  0.00000000000E+00  0.00000000000E+00  0.13096072370E+02  0.13096072370E+02  0.00000000000E+00 0.  1.
         21   -1    0    0  501  502 -0.00000000000E+00 -0.00000000000E+00 -0.29827645187E+03  0.29827645187E+03  0.00000000000E+00 0.  1.
         25    1    1    2    0    0  0.00000000000E+00  0.00000000000E+00 -0.28518037950E+03  0.31137252424E+03  0.12500000000E+03 0.  0.
<mgrwt>
<rscale>  0 0.12500000E+03</rscale>
<asrwt>0</asrwt>
<pdfrwt beam="1">  1       21 0.20147805E-02 0.12500000E+03</pdfrwt>
<pdfrwt beam="2">  1       21 0.45888681E-01 0.12500000E+03</pdfrwt>
<totfact> 0.54524119E+06</totfact>
</mgrwt>
</event>
<event>
 3    1  0.1603864E-001  0.1250000E+03  0.7546771E-02  0.1235069E+00
         21   -1    0    0  502  501  0.00000000000E+00  0.00000000000E+00  0.91229592767E+02  0.91229592767E+02  0.00000000000E+00 0.  1.
         21   -1    0    0  501  502 -0.00000000000E+00 -0.00000000000E+00 -0.42817794989E+02  0.42817794989E+02  0.00000000000E+00 0.  1.
         25    1    1    2    0    0  0.00000000000E+00  0.00000000000E+00  0.48411797778E+02  0.13404738776E+03  0.12500000000E+03 0.  0.
<mgrwt>
<rscale>  0 0.12500000E+03</rscale>
<asrwt>0</asrwt>
<pdfrwt beam="1">  1       21 0.14035322E-01 0.12500000E+03</pdfrwt>
<pdfrwt beam="2">  1       21 0.65873531E-02 0.12500000E+03</pdfrwt>
<totfact> 0.72822853E+06</totfact>
</mgrwt>
</event>
<event>
 3    1  0.1603864E-001  0.1250000E+03  0.7546771E-02  0.1235069E+00
         21   -1    0    0  502  501  0.00000000000E+00  0.00000000000E+00  0.61769469615E+01  0.61769469615E+01  0.00000000000E+00 0. -1.
         21   -1    0    0  501  502 -0.00000000000E+00 -0.00000000000E+00 -0.63239170165E+03  0.63239170165E+03  0.00000000000E+00 0. -1.
         25    1    1    2    0    0  0.00000000000E+00  0.00000000000E+00 -0.62621475469E+03  0.63856864861E+03  0.12500000000E+03 0.  0.
<mgrwt>
<rscale>  0 0.12500000E+03</rscale>
<asrwt>0</asrwt>
<pdfrwt beam="1">  1       21 0.95029988E-03 0.12500000E+03</pdfrwt>
<pdfrwt beam="2">  1       21 0.97290996E-01 0.12500000E+03</pdfrwt>
<totfact> 0.35404479E+06</totfact>
</mgrwt>
</event>
<event>
 3    1  0.1603864E-001  0.1250000E+03  0.7546771E-02  0.1235069E+00
         21   -1    0    0  502  501  0.00000000000E+00  0.00000000000E+00  0.84997013230E+01  0.84997013230E+01  0.00000000000E+00 0.  1.
         21   -1    0    0  501  502 -0.00000000000E+00 -0.00000000000E+00 -0.45957497229E+03  0.45957497229E+03  0.00000000000E+00 0.  1.
         25    1    1    2    0    0  0.00000000000E+00  0.00000000000E+00 -0.45107527097E+03  0.46807467361E+03  0.12500000000E+03 0.  0.
<mgrwt>
<rscale>  0 0.12500000E+03</rscale>
<asrwt>0</asrwt>
<pdfrwt beam="1">  1       21 0.13076462E-02 0.12500000E+03</pdfrwt>
<pdfrwt beam="2">  1       21 0.70703851E-01 0.12500000E+03</pdfrwt>
<totfact> 0.43830105E+06</totfact>
</mgrwt>
</event>
<event>
 3    1  0.1603864E-001  0.1250000E+03  0.7546771E-02  0.1235069E+00
         21   -1    0    0  502  501  0.00000000000E+00  0.00000000000E+00  0.69309100225E+03  0.69309100225E+03  0.00000000000E+00 0. -1.
         21   -1    0    0  501  502 -0.00000000000E+00 -0.00000000000E+00 -0.56359842897E+01  0.56359842897E+01  0.00000000000E+00 0. -1.
         25    1    1    2    0    0  0.00000000000E+00  0.00000000000E+00  0.68745501796E+03  0.69872698654E+03  0.12500000000E+03 0.  0.
<mgrwt>
<rscale>  0 0.12500000E+03</rscale>
<asrwt>0</asrwt>
<pdfrwt beam="1">  1       21 0.10662932E+00 0.12500000E+03</pdfrwt>
<pdfrwt beam="2">  1       21 0.86707505E-03 0.12500000E+03</pdfrwt>
<totfact> 0.32959293E+06</totfact>
</mgrwt>
</event>
<event>
 3    1  0.1603864E-001  0.1250000E+03  0.7546771E-02  0.1235069E+00
         21   -1    0    0  502  501  0.00000000000E+00  0.00000000000E+00  0.17066362228E+02  0.17066362228E+02  0.00000000000E+00 0.  1.
         21   -1    0    0  501  502 -0.00000000000E+00 -0.00000000000E+00 -0.22888591885E+03  0.22888591885E+03  0.00000000000E+00 0.  1.
         25    1    1    2    0    0  0.00000000000E+00  0.00000000000E+00 -0.21181955663E+03  0.24595228108E+03  0.12500000000E+03 0.  0.
<mgrwt>
<rscale>  0 0.12500000E+03</rscale>
<asrwt>0</asrwt>
<pdfrwt beam="1">  1       21 0.26255942E-02 0.12500000E+03</pdfrwt>
<pdfrwt beam="2">  1       21 0.35213217E-01 0.12500000E+03</pdfrwt>
<totfact> 0.60261383E+06</totfact>
</mgrwt>
</event>
<event>
 3    1  0.1603864E-001  0.1250000E+03  0.7546771E-02  0.1235069E+00
         21   -1    0    0  502  501  0.00000000000E+00  0.00000000000E+00  0.58398340505E+02  0.58398340505E+02  0.00000000000E+00 0. -1.
         21   -1    0    0  501  502 -0.00000000000E+00 -0.00000000000E+00 -0.66889743206E+02  0.66889743206E+02  0.00000000000E+00 0. -1.
         25    1    1    2    0    0  0.00000000000E+00  0.00000000000E+00 -0.84914027009E+01  0.12528808371E+03  0.12500000000E+03 0.  0.
<mgrwt>
<rscale>  0 0.12500000E+03</rscale>
<asrwt>0</asrwt>
<pdfrwt beam="1">  1       21 0.89843601E-02 0.12500000E+03</pdfrwt>
<pdfrwt beam="2">  1       21 0.10290730E-01 0.12500000E+03</pdfrwt>
<totfact> 0.74004680E+06</totfact>
</mgrwt>
</event>
<event>
 3    1  0.1603864E-001  0.1250000E+03  0.7546771E-02  0.1235069E+00
         21   -1    0    0  502  501  0.00000000000E+00  0.00000000000E+00  0.68867506106E+01  0.68867506106E+01  0.00000000000E+00 0.  1.
         21   -1    0    0  501  502 -0.00000000000E+00 -0.00000000000E+00 -0.56721235033E+03  0.56721235033E+03  0.00000000000E+00 0.  1.
         25    1    1    2    0    0  0.00000000000E+00  0.00000000000E+00 -0.56032559972E+03  0.57409910095E+03  0.12500000000E+03 0.  0.
<mgrwt>
<rscale>  0 0.12500000E+03</rscale>
<asrwt>0</asrwt>
<pdfrwt beam="1">  1       21 0.10595000E-02 0.12500000E+03</pdfrwt>
<pdfrwt beam="2">  1       21 0.87263444E-01 0.12500000E+03</pdfrwt>
<totfact> 0.38290788E+06</totfact>
</mgrwt>
</event>
<event>
 3    1  0.1603864E-001  0.1250000E+03  0.7546771E-02  0.1235069E+00
         21   -1    0    0  502  501  0.00000000000E+00  0.00000000000E+00  0.74020149683E+02  0.74020149683E+02  0.00000000000E+00 0. -1.
         21   -1    0    0  501  502 -0.00000000000E+00 -0.00000000000E+00 -0.52772792499E+02  0.52772792499E+02  0.00000000000E+00 0. -1.
         25    1    1    2    0    0  0.00000000000E+00  0.00000000000E+00  0.21247357184E+02  0.12679294218E+03  0.12500000000E+03 0.  0.
<mgrwt>
<rscale>  0 0.12500000E+03</rscale>
<asrwt>0</asrwt>
<pdfrwt beam="1">  1       21 0.11387715E-01 0.12500000E+03</pdfrwt>
<pdfrwt beam="2">  1       21 0.81188912E-02 0.12500000E+03</pdfrwt>
<totfact> 0.73797351E+06</totfact>
</mgrwt>
</event>
<event>
 3    1  0.1603864E-001  0.1250000E+03  0.7546771E-02  0.1235069E+00
         21   -1    0    0  502  501  0.00000000000E+00  0.00000000000E+00  0.14819116034E+02  0.14819116034E+02  0.00000000000E+00 0.  1.
         21   -1    0    0  501  502 -0.00000000000E+00 -0.00000000000E+00 -0.26359534477E+03  0.26359534477E+03  0.00000000000E+00 0.  1.
         25    1    1    2    0    0  0.00000000000E+00  0.00000000000E+00 -0.24877622873E+03  0.27841446080E+03  0.12500000000E+03 0.  0.
<mgrwt>
<rscale>  0 0.12500000E+03</rscale>
<asrwt>0</asrwt>
<pdfrwt beam="1">  1       21 0.22798640E-02 0.12500000E+03</pdfrwt>
<pdfrwt beam="2">  1       21 0.40553130E-01 0.12500000E+03</pdfrwt>
<totfact> 0.57299118E+06</totfact>
</mgrwt>
</event>
<event>
 3    1  0.1603864E-001  0.1250000E+03  0.7546771E-02  0.1235069E+00
         21   -1    0    0  502  501  0.00000000000E+00  0.00000000000E+00  0.45443213694E+02  0.45443213694E+02  0.00000000000E+00 0.  1.
         21   -1    0    0  501  502 -0.00000000000E+00 -0.00000000000E+00 -0.85958929452E+02  0.85958929452E+02  0.00000000000E+00 0.  1.
         25    1    1    2    0    0  0.00000000000E+00  0.00000000000E+00 -0.40515715758E+02  0.13140214315E+03  0.12500000000E+03 0.  0.
<mgrwt>
<rscale>  0 0.12500000E+03</rscale>
<asrwt>0</asrwt>
<pdfrwt beam="1">  1       21 0.69912637E-02 0.12500000E+03</pdfrwt>
<pdfrwt beam="2">  1       21 0.13224451E-01 0.12500000E+03</pdfrwt>
<totfact> 0.73176531E+06</totfact>
</mgrwt>
</event>
<event>
 3    1  0.1603864E-001  0.1250000E+03  0.7546771E-02  0.1235069E+00
         21   -1    0    0  502  501  0.00000000000E+00  0.00000000000E+00  0.66218654320E+01  0.66218654320E+01  0.00000000000E+00 0.  1.
         21   -1    0    0  501  502 -0.00000000000E+00 -0.00000000000E+00 -0.58990174900E+03  0.58990174900E+03  0.00000000000E+00 0.  1.
         25    1    1    2    0    0  0.00000000000E+00  0.00000000000E+00 -0.58327988357E+03  0.59652361443E+03  0.12500000000E+03 0.  0.
<mgrwt>
<rscale>  0 0.12500000E+03</rscale>
<asrwt>0</asrwt>
<pdfrwt beam="1">  1       21 0.10187485E-02 0.12500000E+03</pdfrwt>
<pdfrwt beam="2">  1       21 0.90754117E-01 0.12500000E+03</pdfrwt>
<totfact> 0.37250318E+06</totfact>
</mgrwt>
</event>
<event>
 3    1  0.1603864E-001  0.1250000E+03  0.7546771E-02  0.1235069E+00
         21   -1    0    0  502  501  0.00000000000E+00  0.00000000000E+00  0.47569862035E+03  0.47569862035E+03  0.00000000000E+00 0.  1.
         21   -1    0    0  501  502 -0.00000000000E+00 -0.00000000000E+00 -0.82116067461E+01  0.82116067461E+01  0.00000000000E+00 0.  1.
         25    1    1    2    0    0  0.00000000000E+00  0.00000000000E+00  0.46748701361E+03  0.48391022710E+03  0.12500000000E+03 0.  0.
<mgrwt>
<rscale>  0 0.12500000E+03</rscale>
<asrwt>0</asrwt>
<pdfrwt beam="1">  1       21 0.73184382E-01 0.12500000E+03</pdfrwt>
<pdfrwt beam="2">  1       21 0.12633245E-02 0.12500000E+03</pdfrwt>
<totfact> 0.42930323E+06</totfact>
</mgrwt>
</event>
<event>
 3    1  0.1603864E-001  0.1250000E+03  0.7546771E-02  0.1235069E+00
         21   -1    0    0  502  501  0.00000000000E+00  0.00000000000E+00  0.31965299010E+03  0.31965299010E+03  0.00000000000E+00 0. -1.
         21   -1    0    0  501  502 -0.00000000000E+00 -0.00000000000E+00 -0.12220282997E+02  0.12220282997E+02  0.00000000000E+00 0. -1.
         25    1    1    2    0    0  0.00000000000E+00  0.00000000000E+00  0.30743270711E+03  0.33187327310E+03  0.12500000000E+03 0.  0.
<mgrwt>
<rscale>  0 0.12500000E+03</rscale>
<asrwt>0</asrwt>
<pdfrwt beam="1">  1       21 0.49177377E-01 0.12500000E+03</pdfrwt>
<pdfrwt beam="2">  1       21 0.18800438E-02 0.12500000E+03</pdfrwt>
<totfact> 0.52905661E+06</totfact>
</mgrwt>
</event>
<event>
 3    1  0.1603864E-001  0.1250000E+03  0.7546771E-02  0.1235069E+00
         21   -1    0    0  502  501  0.00000000000E+00  0.00000000000E+00  0.47652552795E+02  0.47652552795E+02  0.00000000000E+00 0. -1.
         21   -1    0    0  501  502 -0.00000000000E+00 -0.00000000000E+00 -0.81973572682E+02  0.81973572682E+02  0.00000000000E+00 0. -1.
         25    1    1    2    0    0  0.00000000000E+00  0.00000000000E+00 -0.34321019887E+02  0.12962612548E+03  0.12500000000E+03 0.  0.
<mgrwt>
<rscale>  0 0.12500000E+03</rscale>
<asrwt>0</asrwt>
<pdfrwt beam="1">  1       21 0.73311620E-02 0.12500000E+03</pdfrwt>
<pdfrwt beam="2">  1       21 0.12611319E-01 0.12500000E+03</pdfrwt>
<totfact> 0.73414926E+06</totfact>
</mgrwt>
</event>
<event>
 3    1  0.1603864E-001  0.1250000E+03  0.7546771E-02  0.1235069E+00
         21   -1    0    0  502  501  0.00000000000E+00  0.00000000000E+00  0.42502118690E+01  0.42502118690E+01  0.00000000000E+00 0. -1.
         21   -1    0    0  501  502 -0.00000000000E+00 -0.00000000000E+00 -0.91907182992E+03  0.91907182992E+03  0.00000000000E+00 0. -1.
         25    1    1    2    0    0  0.00000000000E+00  0.00000000000E+00 -0.91482161805E+03  0.92332204179E+03  0.12500000000E+03 0.  0.
<mgrwt>
<rscale>  0 0.12500000E+03</rscale>
<asrwt>0</asrwt>
<pdfrwt beam="1">  1       21 0.65387789E-03 0.12500000E+03</pdfrwt>
<pdfrwt beam="2">  1       21 0.14139585E+00 0.12500000E+03</pdfrwt>
<totfact> 0.25639485E+06</totfact>
</mgrwt>
</event>
<event>
 3    1  0.1603864E-001  0.1250000E+03  0.7546771E-02  0.1235069E+00
         21   -1    0    0  502  501  0.00000000000E+00  0.00000000000E+00  0.34979415055E+03  0.34979415055E+03  0.00000000000E+00 0. -1.
         21   -1    0    0  501  502 -0.00000000000E+00 -0.00000000000E+00 -0.11167282225E+02  0.11167282225E+02  0.00000000000E+00 0. -1.
         25    1    1    2    0    0  0.00000000000E+00  0.00000000000E+00  0.33862686832E+03  0.36096143277E+03  0.12500000000E+03 0.  0.
<mgrwt>
<rscale>  0 0.12500000E+03</rscale>
<asrwt>0</asrwt>
<pdfrwt beam="1">  1       21 0.53814476E-01 0.12500000E+03</pdfrwt>
<pdfrwt beam="2">  1       21 0.17180437E-02 0.12500000E+03</pdfrwt>
<totfact> 0.50738952E+06</totfact>
</mgrwt>
</event>
<event>
 3    1  0.1603864E-001  0.1250000E+03  0.7546771E-02  0.1235069E+00
         21   -1    0    0  502  501  0.00000000000E+00  0.00000000000E+00  0.37386937648E+03  0.37386937648E+03  0.00000000000E+00 0.  1.
         21   -1    0    0  501  502 -0.00000000000E+00 -0.00000000000E+00 -0.10448167851E+02  0.10448167851E+02  0.00000000000E+00 0.  1.
         25    1    1    2    0    0  0.00000000000E+00  0.00000000000E+00  0.36342120863E+03  0.38431754433E+03  0.12500000000E+03 0.  0.
<mgrwt>
<rscale>  0 0.12500000E+03</rscale>
<asrwt>0</asrwt>
<pdfrwt beam="1">  1       21 0.57518355E-01 0.12500000E+03</pdfrwt>
<pdfrwt beam="2">  1       21 0.16074107E-02 0.12500000E+03</pdfrwt>
<totfact> 0.49099251E+06</totfact>
</mgrwt>
</event>
<event>
 3    1  0.1603864E-001  0.1250000E+03  0.7546771E-02  0.1235069E+00
         21   -1    0    0  502  501  0.00000000000E+00  0.00000000000E+00  0.44924486965E+03  0.44924486965E+03  0.00000000000E+00 0.  1.
         21   -1    0    0  501  502 -0.00000000000E+00 -0.00000000000E+00 -0.86951465980E+01  0.86951465980E+01  0.00000000000E+00 0.  1.
         25    1    1    2    0    0  0.00000000000E+00  0.00000000000E+00  0.44054972305E+03  0.45794001625E+03  0.12500000000E+03 0.  0.
<mgrwt>
<rscale>  0 0.12500000E+03</rscale>
<asrwt>0</asrwt>
<pdfrwt beam="1">  1       21 0.69114577E-01 0.12500000E+03</pdfrwt>
<pdfrwt beam="2">  1       21 0.13377152E-02 0.12500000E+03</pdfrwt>
<totfact> 0.44420943E+06</totfact>
</mgrwt>
</event>
<event>
 3    1  0.1603864E-001  0.1250000E+03  0.7546771E-02  0.1235069E+00
         21   -1    0    0  502  501  0.00000000000E+00  0.00000000000E+00  0.38505207744E+01  0.38505207744E+01  0.00000000000E+00 0. -1.
         21   -1    0    0  501  502 -0.00000000000E+00 -0.00000000000E+00 -0.10144731658E+04  0.10144731658E+04  0.00000000000E+00 0. -1.
         25    1    1    2    0    0  0.00000000000E+00  0.00000000000E+00 -0.10106226450E+04  0.10183236866E+04  0.12500000000E+03 0.  0.
<mgrwt>
<rscale>  0 0.12500000E+03</rscale>
<asrwt>0</asrwt>
<pdfrwt beam="1">  1       21 0.59238723E-03 0.12500000E+03</pdfrwt>
<pdfrwt beam="2">  1       21 0.15607295E+00 0.12500000E+03</pdfrwt>
<totfact> 0.23164722E+06</totfact>
</mgrwt>
</event>
<event>
 3    1  0.1603864E-001  0.1250000E+03  0.7546771E-02  0.1235069E+00
         21   -1    0    0  502  501  0.00000000000E+00  0.00000000000E+00  0.34503760409E+02  0.34503760409E+02  0.00000000000E+00 0. -1.
         21   -1    0    0  501  502 -0.00000000000E+00 -0.00000000000E+00 -0.11321229784E+03  0.11321229784E+03  0.00000000000E+00 0. -1.
         25    1    1    2    0    0  0.00000000000E+00  0.00000000000E+00 -0.78708537432E+02  0.14771605825E+03  0.12500000000E+03 0.  0.
<mgrwt>
<rscale>  0 0.12500000E+03</rscale>
<asrwt>0</asrwt>
<pdfrwt beam="1">  1       21 0.53082707E-02 0.12500000E+03</pdfrwt>
<pdfrwt beam="2">  1       21 0.17417277E-01 0.12500000E+03</pdfrwt>
<totfact> 0.71047298E+06</totfact>
</mgrwt>
</event>
<event>
 3    1  0.1603864E-001  0.1250000E+03  0.7546771E-02  0.1235069E+00
         21   -1    0    0  502  501  0.00000000000E+00  0.00000000000E+00  0.16087058829E+02  0.16087058829E+02  0.00000000000E+00 0.  1.
         21   -1    0    0  501  502 -0.00000000000E+00 -0.00000000000E+00 -0.24281940171E+03  0.24281940171E+03  0.00000000000E+00 0.  1.
         25    1    1    2    0    0  0.00000000000E+00  0.00000000000E+00 -0.22673234288E+03  0.25890646053E+03  0.12500000000E+03 0.  0.
<mgrwt>
<rscale>  0 0.12500000E+03</rscale>
<asrwt>0</asrwt>
<pdfrwt beam="1">  1       21 0.24749321E-02 0.12500000E+03</pdfrwt>
<pdfrwt beam="2">  1       21 0.37356832E-01 0.12500000E+03</pdfrwt>
<totfact> 0.59049645E+06</totfact>
</mgrwt>
</event>
<event>
 3    1  0.1603864E-001  0.1250000E+03  0.7546771E-02  0.1235069E+00
         21   -1    0    0  502  501  0.00000000000E+00  0.00000000000E+00  0.31116905130E+02  0.31116905130E+02  0.00000000000E+00 0.  1.
         21   -1    0    0  501  502 -0.00000000000E+00 -0.00000000000E+00 -0.12553465660E+03  0.12553465660E+03  0.00000000000E+00 0.  1.
         25    1    1    2    0    0  0.00000000000E+00  0.00000000000E+00 -0.94417751473E+02  0.15665156173E+03  0.12500000000E+03 0.  0.
<mgrwt>
<rscale>  0 0.12500000E+03</rscale>
<asrwt>0</asrwt>
<pdfrwt beam="1">  1       21 0.47872162E-02 0.12500000E+03</pdfrwt>
<pdfrwt beam="2">  1       21 0.19313024E-01 0.12500000E+03</pdfrwt>
<totfact> 0.69930970E+06</totfact>
</mgrwt>
</event>
<event>
 3    1  0.1603864E-001  0.1250000E+03  0.7546771E-02  0.1235069E+00
         21   -1    0    0  502  501  0.00000000000E+00  0.00000000000E+00  0.34686660810E+02  0.34686660810E+02  0.00000000000E+00 0. -1.
         21   -1    0    0  501  502 -0.00000000000E+00 -0.00000000000E+00 -0.11261533710E+03  0.11261533710E+03  0.00000000000E+00 0. -1.
         25    1    1    2    0    0  0.00000000000E+00  0.00000000000E+00 -0.77928676292E+02  0.14730199791E+03  0.12500000000E+03 0.  0.
<mgrwt>
<rscale>  0 0.12500000E+03</rscale>
<asrwt>0</asrwt>
<pdfrwt beam="1">  1       21 0.53364094E-02 0.12500000E+03</pdfrwt>
<pdfrwt beam="2">  1       21 0.17325436E-01 0.12500000E+03</pdfrwt>
<totfact> 0.71099787E+06</totfact>
</mgrwt>
</event>
<event>
 3    1  0.1603864E-001  0.1250000E+03  0.7546771E-02  0.1235069E+00
         21   -1    0    0  502  501  0.00000000000E+00  0.00000000000E+00  0.10312446154E+02  0.10312446154E+02  0.00000000000E+00 0.  1.
         21   -1    0    0  501  502 -0.00000000000E+00 -0.00000000000E+00 -0.37878985659E+03  0.37878985659E+03  0.00000000000E+00 0.  1.
         25    1    1    2    0    0  0.00000000000E+00  0.00000000000E+00 -0.36847741044E+03  0.38910230275E+03  0.12500000000E+03 0.  0.
<mgrwt>
<rscale>  0 0.12500000E+03</rscale>
<asrwt>0</asrwt>
<pdfrwt beam="1">  1       21 0.15865303E-02 0.12500000E+03</pdfrwt>
<pdfrwt beam="2">  1       21 0.58275357E-01 0.12500000E+03</pdfrwt>
<totfact> 0.48772685E+06</totfact>
</mgrwt>
</event>
<event>
 3    1  0.1603864E-001  0.1250000E+03  0.7546771E-02  0.1235069E+00
         21   -1    0    0  502  501  0.00000000000E+00  0.00000000000E+00  0.97151461892E+03  0.97151461892E+03  0.00000000000E+00 0.  1.
         21   -1    0    0  501  502 -0.00000000000E+00 -0.00000000000E+00 -0.40207835517E+01  0.40207835517E+01  0.00000000000E+00 0.  1.
         25    1    1    2    0    0  0.00000000000E+00  0.00000000000E+00  0.96749383536E+03  0.97553540247E+03  0.12500000000E+03 0.  0.
<mgrwt>
<rscale>  0 0.12500000E+03</rscale>
<asrwt>0</asrwt>
<pdfrwt beam="1">  1       21 0.14946360E+00 0.12500000E+03</pdfrwt>
<pdfrwt beam="2">  1       21 0.61858286E-03 0.12500000E+03</pdfrwt>
<totfact> 0.24239998E+06</totfact>
</mgrwt>
</event>
<event>
 3    1  0.1603864E-001  0.1250000E+03  0.7546771E-02  0.1235069E+00
         21   -1    0    0  502  501  0.00000000000E+00  0.00000000000E+00  0.32852284093E+02  0.32852284093E+02  0.00000000000E+00 0. -1.
         21   -1    0    0  501  502 -0.00000000000E+00 -0.00000000000E+00 -0.11890345247E+03  0.11890345247E+03  0.00000000000E+00 0. -1.
         25    1    1    2    0    0  0.00000000000E+00  0.00000000000E+00 -0.86051168373E+02  0.15175573656E+03  0.12500000000E+03 0.  0.
<mgrwt>
<rscale>  0 0.12500000E+03</rscale>
<asrwt>0</asrwt>
<pdfrwt beam="1">  1       21 0.50541976E-02 0.12500000E+03</pdfrwt>
<pdfrwt beam="2">  1       21 0.18292839E-01 0.12500000E+03</pdfrwt>
<totfact> 0.70539340E+06</totfact>
</mgrwt>
</event>
<event>
 3    1  0.1603864E-001  0.1250000E+03  0.7546771E-02  0.1235069E+00
         21   -1    0    0  502  501  0.00000000000E+00  0.00000000000E+00  0.84588466178E+02  0.84588466178E+02  0.00000000000E+00 0.  1.
         21   -1    0    0  501  502 -0.00000000000E+00 -0.00000000000E+00 -0.46179463661E+02  0.46179463661E+02  0.00000000000E+00 0.  1.
         25    1    1    2    0    0  0.00000000000E+00  0.00000000000E+00  0.38409002517E+02  0.13076792984E+03  0.12500000000E+03 0.  0.
<mgrwt>
<rscale>  0 0.12500000E+03</rscale>
<asrwt>0</asrwt>
<pdfrwt beam="1">  1       21 0.13013610E-01 0.12500000E+03</pdfrwt>
<pdfrwt beam="2">  1       21 0.71045329E-02 0.12500000E+03</pdfrwt>
<totfact> 0.73261962E+06</totfact>
</mgrwt>
</event>
<event>
 3    1  0.1603864E-001  0.1250000E+03  0.7546771E-02  0.1235069E+00
         21   -1    0    0  502  501  0.00000000000E+00  0.00000000000E+00  0.11421372760E+03  0.11421372760E+03  0.00000000000E+00 0. -1.
         21   -1    0    0  501  502 -0.00000000000E+00 -0.00000000000E+00 -0.34201230291E+02  0.34201230291E+02  0.00000000000E+00 0. -1.
         25    1    1    2    0    0  0.00000000000E+00  0.00000000000E+00  0.80012497309E+02  0.14841495789E+03  0.12500000000E+03 0.  0.
<mgrwt>
<rscale>  0 0.12500000E+03</rscale>
<asrwt>0</asrwt>
<pdfrwt beam="1">  1       21 0.17571343E-01 0.12500000E+03</pdfrwt>
<pdfrwt beam="2">  1       21 0.52617278E-02 0.12500000E+03</pdfrwt>
<totfact> 0.70958883E+06</totfact>
</mgrwt>
</event>
<event>
 3    1  0.1603864E-001  0.1250000E+03  0.7546771E-02  0.1235069E+00
         21   -1    0    0  502  501  0.00000000000E+00  0.00000000000E+00  0.62083378975E+01  0.62083378975E+01  0.00000000000E+00 0.  1.
         21   -1    0    0  501  502 -0.00000000000E+00 -0.00000000000E+00 -0.62919416831E+03  0.62919416831E+03  0.00000000000E+00 0.  1.
         25    1    1    2    0    0  0.00000000000E+00  0.00000000000E+00 -0.62298583042E+03  0.63540250621E+03  0.12500000000E+03 0.  0.
<mgrwt>
<rscale>  0 0.12500000E+03</rscale>
<asrwt>0</asrwt>
<pdfrwt beam="1">  1       21 0.95512857E-03 0.12500000E+03</pdfrwt>
<pdfrwt beam="2">  1       21 0.96799137E-01 0.12500000E+03</pdfrwt>
<totfact> 0.35538998E+06</totfact>
</mgrwt>
</event>
<event>
 3    1  0.1603864E-001  0.1250000E+03  0.7546771E-02  0.1235069E+00
         21   -1    0    0  502  501  0.00000000000E+00  0.00000000000E+00  0.25613738410E+02  0.25613738410E+02  0.00000000000E+00 0. -1.
         21   -1    0    0  501  502 -0.00000000000E+00 -0.00000000000E+00 -0.15250604724E+03  0.15250604724E+03  0.00000000000E+00 0. -1.
         25    1    1    2    0    0  0.00000000000E+00  0.00000000000E+00 -0.12689230883E+03  0.17811978565E+03  0.12500000000E+03 0.  0.
<mgrwt>
<rscale>  0 0.12500000E+03</rscale>
<asrwt>0</asrwt>
<pdfrwt beam="1">  1       21 0.39405751E-02 0.12500000E+03</pdfrwt>
<pdfrwt beam="2">  1       21 0.23462469E-01 0.12500000E+03</pdfrwt>
<totfact> 0.67367886E+06</totfact>
</mgrwt>
</event>
<event>
 3    1  0.1603864E-001  0.1250000E+03  0.7546771E-02  0.1235069E+00
         21   -1    0    0  502  501  0.00000000000E+00  0.00000000000E+00  0.92460415887E+03  0.92460415887E+03  0.00000000000E+00 0. -1.
         21   -1    0    0  501  502 -0.00000000000E+00 -0.00000000000E+00 -0.42247809103E+01  0.42247809103E+01  0.00000000000E+00 0. -1.
         25    1    1    2    0    0  0.00000000000E+00  0.00000000000E+00  0.92037937796E+03  0.92882893978E+03  0.12500000000E+03 0.  0.
<mgrwt>
<rscale>  0 0.12500000E+03</rscale>
<asrwt>0</asrwt>
<pdfrwt beam="1">  1       21 0.14224663E+00 0.12500000E+03</pdfrwt>
<pdfrwt beam="2">  1       21 0.64996703E-03 0.12500000E+03</pdfrwt>
<totfact> 0.25486955E+06</totfact>
</mgrwt>
</event>
<event>
 3    1  0.1603864E-001  0.1250000E+03  0.7546771E-02  0.1235069E+00
         21   -1    0    0  502  501  0.00000000000E+00  0.00000000000E+00  0.42627400251E+03  0.42627400251E+03  0.00000000000E+00 0. -1.
         21   -1    0    0  501  502 -0.00000000000E+00 -0.00000000000E+00 -0.91637068577E+01  0.91637068577E+01  0.00000000000E+00 0. -1.
         25    1    1    2    0    0  0.00000000000E+00  0.00000000000E+00  0.41711029565E+03  0.43543770936E+03  0.12500000000E+03 0.  0.
<mgrwt>
<rscale>  0 0.12500000E+03</rscale>
<asrwt>0</asrwt>
<pdfrwt beam="1">  1       21 0.65580600E-01 0.12500000E+03</pdfrwt>
<pdfrwt beam="2">  1       21 0.14098014E-02 0.12500000E+03</pdfrwt>
<totfact> 0.45776328E+06</totfact>
</mgrwt>
</event>
<event>
 3    1  0.1603864E-001  0.1250000E+03  0.7546771E-02  0.1235069E+00
         21   -1    0    0  502  501  0.00000000000E+00  0.00000000000E+00  0.27082841184E+03  0.27082841184E+03  0.00000000000E+00 0. -1.
         21   -1    0    0  501  502 -0.00000000000E+00 -0.00000000000E+00 -0.14423339019E+02  0.14423339019E+02  0.00000000000E+00 0. -1.
         25    1    1    2    0    0  0.00000000000E+00  0.00000000000E+00  0.25640507282E+03  0.28525175086E+03  0.12500000000E+03 0.  0.
<mgrwt>
<rscale>  0 0.12500000E+03</rscale>
<asrwt>0</asrwt>
<pdfrwt beam="1">  1       21 0.41665906E-01 0.12500000E+03</pdfrwt>
<pdfrwt beam="2">  1       21 0.22189754E-02 0.12500000E+03</pdfrwt>
<totfact> 0.56704525E+06</totfact>
</mgrwt>
</event>
<event>
 3    1  0.1603864E-001  0.1250000E+03  0.7546771E-02  0.1235069E+00
         21   -1    0    0  502  501  0.00000000000E+00  0.00000000000E+00  0.95312578321E+01  0.95312578321E+01  0.00000000000E+00 0.  1.
         21   -1    0    0  501  502 -0.00000000000E+00 -0.00000000000E+00 -0.40983572880E+03  0.40983572880E+03  0.00000000000E+00 0.  1.
         25    1    1    2    0    0  0.00000000000E+00  0.00000000000E+00 -0.40030447097E+03  0.41936698663E+03  0.12500000000E+03 0.  0.
<mgrwt>
<rscale>  0 0.12500000E+03</rscale>
<asrwt>0</asrwt>
<pdfrwt beam="1">  1       21 0.14663468E-02 0.12500000E+03</pdfrwt>
<pdfrwt beam="2">  1       21 0.63051675E-01 0.12500000E+03</pdfrwt>
<totfact> 0.46782731E+06</totfact>
</mgrwt>
</event>
<event>
 3    1  0.1603864E-001  0.1250000E+03  0.7546771E-02  0.1235069E+00
         21   -1    0    0  502  501  0.00000000000E+00  0.00000000000E+00  0.62719850702E+02  0.62719850702E+02  0.00000000000E+00 0.  1.
         21   -1    0    0  501  502 -0.00000000000E+00 -0.00000000000E+00 -0.62280919937E+02  0.62280919937E+02  0.00000000000E+00 0.  1.
         25    1    1    2    0    0  0.00000000000E+00  0.00000000000E+00  0.43893076473E+00  0.12500077064E+03  0.12500000000E+03 0.  0.
<mgrwt>
<rscale>  0 0.12500000E+03</rscale>
<asrwt>0</asrwt>
<pdfrwt beam="1">  1       21 0.96492078E-02 0.12500000E+03</pdfrwt>
<pdfrwt beam="2">  1       21 0.95816800E-02 0.12500000E+03</pdfrwt>
<totfact> 0.74043477E+06</totfact>
</mgrwt>
</event>
<event>
 3    1  0.1603864E-001  0.1250000E+03  0.7546771E-02  0.1235069E+00
         21   -1    0    0  502  501  0.00000000000E+00  0.00000000000E+00  0.10963196108E+02  0.10963196108E+02  0.00000000000E+00 0. -1.
         21   -1    0    0  501  502 -0.00000000000E+00 -0.00000000000E+00 -0.35630576718E+03  0.35630576718E+03  0.00000000000E+00 0. -1.
         25    1    1    2    0    0  0.00000000000E+00  0.00000000000E+00 -0.34534257107E+03  0.36726896329E+03  0.12500000000E+03 0.  0.
<mgrwt>
<rscale>  0 0.12500000E+03</rscale>
<asrwt>0</asrwt>
<pdfrwt beam="1">  1       21 0.16866454E-02 0.12500000E+03</pdfrwt>
<pdfrwt beam="2">  1       21 0.54816278E-01 0.12500000E+03</pdfrwt>
<totfact> 0.50287811E+06</totfact>
</mgrwt>
</event>
<event>
 3    1  0.1603864E-001  0.1250000E+03  0.7546771E-02  0.1235069E+00
         21   -1    0    0  502  501  0.00000000000E+00  0.00000000000E+00  0.75285490932E+02  0.75285490932E+02  0.00000000000E+00 0.  1.
         21   -1    0    0  501  502 -0.00000000000E+00 -0.00000000000E+00 -0.51885827557E+02  0.51885827557E+02  0.00000000000E+00 0.  1.
         25    1    1    2    0    0  0.00000000000E+00  0.00000000000E+00  0.23399663375E+02  0.12717131849E+03  0.12500000000E+03 0.  0.
<mgrwt>
<rscale>  0 0.12500000E+03</rscale>
<asrwt>0</asrwt>
<pdfrwt beam="1">  1       21 0.11582383E-01 0.12500000E+03</pdfrwt>
<pdfrwt beam="2">  1       21 0.79824350E-02 0.12500000E+03</pdfrwt>
<totfact> 0.73745833E+06</totfact>
</mgrwt>
</event>
<event>
 3    1  0.1603864E-001  0.1250000E+03  0.7546771E-02  0.1235069E+00
         21   -1    0    0  502  501  0.00000000000E+00  0.00000000000E+00  0.26046115241E+03  0.26046115241E+03  0.00000000000E+00 0. -1.
         21   -1    0    0  501  502 -0.00000000000E+00 -0.00000000000E+00 -0.14997438059E+02  0.14997438059E+02  0.00000000000E+00 0. -1.
         25    1    1    2    0    0  0.00000000000E+00  0.00000000000E+00  0.24546371435E+03  0.27545859047E+03  0.12500000000E+03 0.  0.
<mgrwt>
<rscale>  0 0.12500000E+03</rscale>
<asrwt>0</asrwt>
<pdfrwt beam="1">  1       21 0.40070943E-01 0.12500000E+03</pdfrwt>
<pdfrwt beam="2">  1       21 0.23072984E-02 0.12500000E+03</pdfrwt>
<totfact> 0.57559386E+06</totfact>
</mgrwt>
</event>
<event>
 3    1  0.1603864E-001  0.1250000E+03  0.7546771E-02  0.1235069E+00
         21   -1    0    0  502  501  0.00000000000E+00  0.00000000000E+00  0.19067822245E+02  0.19067822245E+02  0.00000000000E+00 0.  1.
         21   -1    0    0  501  502 -0.00000000000E+00 -0.00000000000E+00 -0.20486083570E+03  0.20486083570E+03  0.00000000000E+00 0.  1.
         25    1    1    2    0    0  0.00000000000E+00  0.00000000000E+00 -0.18579301345E+03  0.22392865794E+03  0.12500000000E+03 0.  0.
<mgrwt>
<rscale>  0 0.12500000E+03</rscale>
<asrwt>0</asrwt>
<pdfrwt beam="1">  1       21 0.29335115E-02 0.12500000E+03</pdfrwt>
<pdfrwt beam="2">  1       21 0.31517048E-01 0.12500000E+03</pdfrwt>
<totfact> 0.62423219E+06</totfact>
</mgrwt>
</event>
<event>
 3    1  0.1603864E-001  0.1250000E+03  0.7546771E-02  0.1235069E+00
         21   -1    0    0  502  501  0.00000000000E+00  0.00000000000E+00  0.17955067500E+03  0.17955067500E+03  0.00000000000E+00 0.  1.
         21   -1    0    0  501  502 -0.00000000000E+00 -0.00000000000E+00 -0.21755696546E+02  0.21755696546E+02  0.00000000000E+00 0.  1.
         25    1    1    2    0    0  0.00000000000E+00  0.00000000000E+00  0.15779497846E+03  0.20130637155E+03  0.12500000000E+03 0.  0.
<mgrwt>
<rscale>  0 0.12500000E+03</rscale>
<asrwt>0</asrwt>
<pdfrwt beam="1">  1       21 0.27623180E-01 0.12500000E+03</pdfrwt>
<pdfrwt beam="2">  1       21 0.33470304E-02 0.12500000E+03</pdfrwt>
<totfact> 0.64785973E+06</totfact>
</mgrwt>
</event>
<event>
 3    1  0.1603864E-001  0.1250000E+03  0.7546771E-02  0.1235069E+00
         21   -1    0    0  502  501  0.00000000000E+00  0.00000000000E+00  0.59835931316E+02  0.59835931316E+02  0.00000000000E+00 0. -1.
         21   -1    0    0  501  502 -0.00000000000E+00 -0.00000000000E+00 -0.65282680725E+02  0.65282680725E+02  0.00000000000E+00 0. -1.
         25    1    1    2    0    0  0.00000000000E+00  0.00000000000E+00 -0.54467494089E+01  0.12511861204E+03  0.12500000000E+03 0.  0.
<mgrwt>
<rscale>  0 0.12500000E+03</rscale>
<asrwt>0</asrwt>
<pdfrwt beam="1">  1       21 0.92055279E-02 0.12500000E+03</pdfrwt>
<pdfrwt beam="2">  1       21 0.10043489E-01 0.12500000E+03</pdfrwt>
<totfact> 0.74027562E+06</totfact>
</mgrwt>
</event>
<event>
 3    1  0.1603864E-001  0.1250000E+03  0.7546771E-02  0.1235069E+00
         21   -1    0    0  502  501  0.00000000000E+00  0.00000000000E+00  0.70798048429E+03  0.70798048429E+03  0.00000000000E+00 0.  1.
         21   -1    0    0  501  502 -0.00000000000E+00 -0.00000000000E+00 -0.55174543461E+01  0.55174543461E+01  0.00000000000E+00 0.  1.
         25    1    1    2    0    0  0.00000000000E+00  0.00000000000E+00  0.70246302995E+03  0.71349793864E+03  0.12500000000E+03 0.  0.
<mgrwt>
<rscale>  0 0.12500000E+03</rscale>
<asrwt>0</asrwt>
<pdfrwt beam="1">  1       21 0.10892000E+00 0.12500000E+03</pdfrwt>
<pdfrwt beam="2">  1       21 0.84883969E-03 0.12500000E+03</pdfrwt>
<totfact> 0.32396222E+06</totfact>
</mgrwt>
</event>
<event>
 3    1  0.1603864E-001  0.1250000E+03  0.7546771E-02  0.1235069E+00
         21   -1    0    0  502  501  0.00000000000E+00  0.00000000000E+00  0.33945103671E+02  0.33945103671E+02  0.00000000000E+00 0. -1.
         21   -1    0    0  501  502 -0.00000000000E+00 -0.00000000000E+00 -0.11507550656E+03  0.11507550656E+03  0.00000000000E+00 0. -1.
         25    1    1    2    0    0  0.00000000000E+00  0.00000000000E+00 -0.81130402885E+02  0.14902061023E+03  0.12500000000E+03 0.  0.
<mgrwt>
<rscale>  0 0.12500000E+03</rscale>
<asrwt>0</asrwt>
<pdfrwt beam="1">  1       21 0.52223236E-02 0.12500000E+03</pdfrwt>
<pdfrwt beam="2">  1       21 0.17703924E-01 0.12500000E+03</pdfrwt>
<totfact> 0.70882447E+06</totfact>
</mgrwt>
</event>
<event>
 3    1  0.1603864E-001  0.1250000E+03  0.7546771E-02  0.1235069E+00
         21   -1    0    0  502  501  0.00000000000E+00  0.00000000000E+00  0.70531880417E+02  0.70531880417E+02  0.00000000000E+00 0. -1.
         21   -1    0    0  501  502 -0.00000000000E+00 -0.00000000000E+00 -0.55382757087E+02  0.55382757087E+02  0.00000000000E+00 0. -1.
         25    1    1    2    0    0  0.00000000000E+00  0.00000000000E+00  0.15149123330E+02  0.12591463750E+03  0.12500000000E+03 0.  0.
<mgrwt>
<rscale>  0 0.12500000E+03</rscale>
<asrwt>0</asrwt>
<pdfrwt beam="1">  1       21 0.10851059E-01 0.12500000E+03</pdfrwt>
<pdfrwt beam="2">  1       21 0.85204242E-02 0.12500000E+03</pdfrwt>
<totfact> 0.73917818E+06</totfact>
</mgrwt>
</event>
<event>
 3    1  0.1603864E-001  0.1250000E+03  0.7546771E-02  0.1235069E+00
         21   -1    0    0  502  501  0.00000000000E+00  0.00000000000E+00  0.31850899371E+02  0.31850899371E+02  0.00000000000E+00 0. -1.
         21   -1    0    0  501  502 -0.00000000000E+00 -0.00000000000E+00 -0.12264174881E+03  0.12264174881E+03  0.00000000000E+00 0. -1.
         25    1    1    2    0    0  0.00000000000E+00  0.00000000000E+00 -0.90790849437E+02  0.15449264818E+03  0.12500000000E+03 0.  0.
<mgrwt>
<rscale>  0 0.12500000E+03</rscale>
<asrwt>0</asrwt>
<pdfrwt beam="1">  1       21 0.49001383E-02 0.12500000E+03</pdfrwt>
<pdfrwt beam="2">  1       21 0.18867962E-01 0.12500000E+03</pdfrwt>
<totfact> 0.70198771E+06</totfact>
</mgrwt>
</event>
<event>
 3    1  0.1603864E-001  0.1250000E+03  0.7546771E-02  0.1235069E+00
         21   -1    0    0  502  501  0.00000000000E+00  0.00000000000E+00  0.22180126971E+03  0.22180126971E+03  0.00000000000E+00 0.  1.
         21   -1    0    0  501  502 -0.00000000000E+00 -0.00000000000E+00 -0.17611486197E+02  0.17611486197E+02  0.00000000000E+00 0.  1.
         25    1    1    2    0    0  0.00000000000E+00  0.00000000000E+00  0.20418978352E+03  0.23941275591E+03  0.12500000000E+03 0.  0.
<mgrwt>
<rscale>  0 0.12500000E+03</rscale>
<asrwt>0</asrwt>
<pdfrwt beam="1">  1       21 0.34123270E-01 0.12500000E+03</pdfrwt>
<pdfrwt beam="2">  1       21 0.27094596E-02 0.12500000E+03</pdfrwt>
<totfact> 0.60889536E+06</totfact>
</mgrwt>
</event>
<event>
 3    1  0.1603864E-001  0.1250000E+03  0.7546771E-02  0.1235069E+00
         21   -1    0    0  502  501  0.00000000000E+00  0.00000000000E+00  0.23917135545E+02  0.23917135545E+02  0.00000000000E+00 0. -1.
         21   -1    0    0  501  502 -0.00000000000E+00 -0.00000000000E+00 -0.16332432421E+03  0.16332432421E+03  0.00000000000E+00 0. -1.
         25    1    1    2    0    0  0.00000000000E+00  0.00000000000E+00 -0.13940718867E+03  0.18724145976E+03  0.12500000000E+03 0.  0.
<mgrwt>
<rscale>  0 0.12500000E+03</rscale>
<asrwt>0</asrwt>
<pdfrwt beam="1">  1       21 0.36795595E-02 0.12500000E+03</pdfrwt>
<pdfrwt beam="2">  1       21 0.25126818E-01 0.12500000E+03</pdfrwt>
<totfact> 0.66330371E+06</totfact>
</mgrwt>
</event>
<event>
 3    1  0.1603864E-001  0.1250000E+03  0.7546771E-02  0.1235069E+00
         21   -1    0    0  502  501  0.00000000000E+00  0.00000000000E+00  0.19903759695E+03  0.19903759695E+03  0.00000000000E+00 0.  1.
         21   -1    0    0  501  502 -0.00000000000E+00 -0.00000000000E+00 -0.19625689116E+02  0.19625689116E+02  0.00000000000E+00 0.  1.
         25    1    1    2    0    0  0.00000000000E+00  0.00000000000E+00  0.17941190783E+03  0.21866328606E+03  0.12500000000E+03 0.  0.
<mgrwt>
<rscale>  0 0.12500000E+03</rscale>
<asrwt>0</asrwt>
<pdfrwt beam="1">  1       21 0.30621167E-01 0.12500000E+03</pdfrwt>
<pdfrwt beam="2">  1       21 0.30193369E-02 0.12500000E+03</pdfrwt>
<totfact> 0.62959428E+06</totfact>
</mgrwt>
</event>
<event>
 3    1  0.1603864E-001  0.1250000E+03  0.7546771E-02  0.1235069E+00
         21   -1    0    0  502  501  0.00000000000E+00  0.00000000000E+00  0.24334660938E+02  0.24334660938E+02  0.00000000000E+00 0. -1.
         21   -1    0    0  501  502 -0.00000000000E+00 -0.00000000000E+00 -0.16052206398E+03  0.16052206398E+03  0.00000000000E+00 0. -1.
         25    1    1    2    0    0  0.00000000000E+00  0.00000000000E+00 -0.13618740304E+03  0.18485672491E+03  0.12500000000E+03 0.  0.
<mgrwt>
<rscale>  0 0.12500000E+03</rscale>
<asrwt>0</asrwt>
<pdfrwt beam="1">  1       21 0.37437940E-02 0.12500000E+03</pdfrwt>
<pdfrwt beam="2">  1       21 0.24695702E-01 0.12500000E+03</pdfrwt>
<totfact> 0.66598709E+06</totfact>
</mgrwt>
</event>
<event>
 3    1  0.1603864E-001  0.1250000E+03  0.7546771E-02  0.1235069E+00
         21   -1    0    0  502  501  0.00000000000E+00  0.00000000000E+00  0.56543111151E+01  0.56543111151E+01  0.00000000000E+00 0. -1.
         21   -1    0    0  501  502 -0.00000000000E+00 -0.00000000000E+00 -0.69084454684E+03  0.69084454684E+03  0.00000000000E+00 0. -1.
         25    1    1    2    0    0  0.00000000000E+00  0.00000000000E+00 -0.68519023573E+03  0.69649885796E+03  0.12500000000E+03 0.  0.
<mgrwt>
<rscale>  0 0.12500000E+03</rscale>
<asrwt>0</asrwt>
<pdfrwt beam="1">  1       21 0.86989447E-03 0.12500000E+03</pdfrwt>
<pdfrwt beam="2">  1       21 0.10628372E+00 0.12500000E+03</pdfrwt>
<totfact> 0.33045572E+06</totfact>
</mgrwt>
</event>
<event>
 3    1  0.1603864E-001  0.1250000E+03  0.7546771E-02  0.1235069E+00
         21   -1    0    0  502  501  0.00000000000E+00  0.00000000000E+00  0.77076626593E+01  0.77076626593E+01  0.00000000000E+00 0.  1.
         21   -1    0    0  501  502 -0.00000000000E+00 -0.00000000000E+00 -0.50680085165E+03  0.50680085165E+03  0.00000000000E+00 0.  1.
         25    1    1    2    0    0  0.00000000000E+00  0.00000000000E+00 -0.49909318899E+03  0.51450851431E+03  0.12500000000E+03 0.  0.
<mgrwt>
<rscale>  0 0.12500000E+03</rscale>
<asrwt>0</asrwt>
<pdfrwt beam="1">  1       21 0.11857943E-02 0.12500000E+03</pdfrwt>
<pdfrwt beam="2">  1       21 0.77969362E-01 0.12500000E+03</pdfrwt>
<totfact> 0.41268015E+06</totfact>
</mgrwt>
</event>
<event>
 3    1  0.1603864E-001  0.1250000E+03  0.7546771E-02  0.1235069E+00
         21   -1    0    0  502  501  0.00000000000E+00  0.00000000000E+00  0.20537760630E+03  0.20537760630E+03  0.00000000000E+00 0. -1.
         21   -1    0    0  501  502 -0.00000000000E+00 -0.00000000000E+00 -0.19019843840E+02  0.19019843840E+02  0.00000000000E+00 0. -1.
         25    1    1    2    0    0  0.00000000000E+00  0.00000000000E+00  0.18635776246E+03  0.22439745014E+03  0.12500000000E+03 0.  0.
<mgrwt>
<rscale>  0 0.12500000E+03</rscale>
<asrwt>0</asrwt>
<pdfrwt beam="1">  1       21 0.31596553E-01 0.12500000E+03</pdfrwt>
<pdfrwt beam="2">  1       21 0.29261300E-02 0.12500000E+03</pdfrwt>
<totfact> 0.62375865E+06</totfact>
</mgrwt>
</event>
<event>
 3    1  0.1603864E-001  0.1250000E+03  0.7546771E-02  0.1235069E+00
         21   -1    0    0  502  501  0.00000000000E+00  0.00000000000E+00  0.93846929285E+01  0.93846929285E+01  0.00000000000E+00 0. -1.
         21   -1    0    0  501  502 -0.00000000000E+00 -0.00000000000E+00 -0.41623631479E+03  0.41623631479E+03  0.00000000000E+00 0. -1.
         25    1    1    2    0    0  0.00000000000E+00  0.00000000000E+00 -0.40685162186E+03  0.42562100772E+03  0.12500000000E+03 0.  0.
<mgrwt>
<rscale>  0 0.12500000E+03</rscale>
<asrwt>0</asrwt>
<pdfrwt beam="1">  1       21 0.14437991E-02 0.12500000E+03</pdfrwt>
<pdfrwt beam="2">  1       21 0.64036350E-01 0.12500000E+03</pdfrwt>
<totfact> 0.46387108E+06</totfact>
</mgrwt>
</event>
<event>
 3    1  0.1603864E-001  0.1250000E+03  0.7546771E-02  0.1235069E+00
         21   -1    0    0  502  501  0.00000000000E+00  0.00000000000E+00  0.39635827150E+02  0.39635827150E+02  0.00000000000E+00 0. -1.
         21   -1    0    0  501  502 -0.00000000000E+00 -0.00000000000E+00 -0.98553512841E+02  0.98553512841E+02  0.00000000000E+00 0. -1.
         25    1    1    2    0    0  0.00000000000E+00  0.00000000000E+00 -0.58917685691E+02  0.13818933999E+03  0.12500000000E+03 0.  0.
<mgrwt>
<rscale>  0 0.12500000E+03</rscale>
<asrwt>0</asrwt>
<pdfrwt beam="1">  1       21 0.60978196E-02 0.12500000E+03</pdfrwt>
<pdfrwt beam="2">  1       21 0.15162079E-01 0.12500000E+03</pdfrwt>
<totfact> 0.72276576E+06</totfact>
</mgrwt>
</event>
<event>
 3    1  0.1603864E-001  0.1250000E+03  0.7546771E-02  0.1235069E+00
         21   -1    0    0  502  501  0.00000000000E+00  0.00000000000E+00  0.23092422019E+02  0.23092422019E+02  0.00000000000E+00 0.  1.
         21   -1    0    0  501  502 -0.00000000000E+00 -0.00000000000E+00 -0.16915722382E+03  0.16915722382E+03  0.00000000000E+00 0.  1.
         25    1    1    2    0    0  0.00000000000E+00  0.00000000000E+00 -0.14606480180E+03  0.19224964584E+03  0.12500000000E+03 0.  0.
<mgrwt>
<rscale>  0 0.12500000E+03</rscale>
<asrwt>0</asrwt>
<pdfrwt beam="1">  1       21 0.35526802E-02 0.12500000E+03</pdfrwt>
<pdfrwt beam="2">  1       21 0.26024189E-01 0.12500000E+03</pdfrwt>
<totfact> 0.65773305E+06</totfact>
</mgrwt>
</event>
<event>
 3    1  0.1603864E-001  0.1250000E+03  0.7546771E-02  0.1235069E+00
         21   -1    0    0  502  501  0.00000000000E+00  0.00000000000E+00  0.82913800827E+02  0.82913800827E+02  0.00000000000E+00 0.  1.
         21   -1    0    0  501  502 -0.00000000000E+00 -0.00000000000E+00 -0.47112181097E+02  0.47112181097E+02  0.00000000000E+00 0.  1.
         25    1    1    2    0    0  0.00000000000E+00  0.00000000000E+00  0.35801619730E+02  0.13002598192E+03  0.12500000000E+03 0.  0.
<mgrwt>
<rscale>  0 0.12500000E+03</rscale>
<asrwt>0</asrwt>
<pdfrwt beam="1">  1       21 0.12755969E-01 0.12500000E+03</pdfrwt>
<pdfrwt beam="2">  1       21 0.72480279E-02 0.12500000E+03</pdfrwt>
<totfact> 0.73361443E+06</totfact>
</mgrwt>
</event>
<event>
 3    1  0.1603864E-001  0.1250000E+03  0.7546771E-02  0.1235069E+00
         21   -1    0    0  502  501  0.00000000000E+00  0.00000000000E+00  0.13968691905E+03  0.13968691905E+03  0.00000000000E+00 0. -1.
         21   -1    0    0  501  502 -0.00000000000E+00 -0.00000000000E+00 -0.27964322117E+02  0.27964322117E+02  0.00000000000E+00 0. -1.
         25    1    1    2    0    0  0.00000000000E+00  0.00000000000E+00  0.11172259694E+03  0.16765124117E+03  0.12500000000E+03 0.  0.
<mgrwt>
<rscale>  0 0.12500000E+03</rscale>
<asrwt>0</asrwt>
<pdfrwt beam="1">  1       21 0.21490295E-01 0.12500000E+03</pdfrwt>
<pdfrwt beam="2">  1       21 0.43022035E-02 0.12500000E+03</pdfrwt>
<totfact> 0.68596472E+06</totfact>
</mgrwt>
</event>
<event>
 3    1  0.1603864E-001  0.1250000E+03  0.7546771E-02  0.1235069E+00
         21   -1    0    0  502  501  0.00000000000E+00  0.00000000000E+00  0.11108234332E+02  0.11108234332E+02  0.00000000000E+00 0.  1.
         21   -1    0    0  501  502 -0.00000000000E+00 -0.00000000000E+00 -0.35165354667E+03  0.35165354667E+03  0.00000000000E+00 0.  1.
         25    1    1    2    0    0  0.00000000000E+00  0.00000000000E+00 -0.34054531233E+03  0.36276178100E+03  0.12500000000E+03 0.  0.
<mgrwt>
<rscale>  0 0.12500000E+03</rscale>
<asrwt>0</asrwt>
<pdfrwt beam="1">  1       21 0.17089592E-02 0.12500000E+03</pdfrwt>
<pdfrwt beam="2">  1       21 0.54100545E-01 0.12500000E+03</pdfrwt>
<totfact> 0.50609529E+06</totfact>
</mgrwt>
</event>
<event>
 3    1  0.1603864E-001  0.1250000E+03  0.7546771E-02  0.1235069E+00
         21   -1    0    0  502  501  0.00000000000E+00  0.00000000000E+00  0.37433357697E+03  0.37433357697E+03  0.00000000000E+00 0.  1.
         21   -1    0    0  501  502 -0.00000000000E+00 -0.00000000000E+00 -0.10435211374E+02  0.10435211374E+02  0.00000000000E+00 0.  1.
         25    1    1    2    0    0  0.00000000000E+00  0.00000000000E+00  0.36389836560E+03  0.38476878834E+03  0.12500000000E+03 0.  0.
<mgrwt>
<rscale>  0 0.12500000E+03</rscale>
<asrwt>0</asrwt>
<pdfrwt beam="1">  1       21 0.57589771E-01 0.12500000E+03</pdfrwt>
<pdfrwt beam="2">  1       21 0.16054174E-02 0.12500000E+03</pdfrwt>
<totfact> 0.49068308E+06</totfact>
</mgrwt>
</event>
<event>
 3    1  0.1603864E-001  0.1250000E+03  0.7546771E-02  0.1235069E+00
         21   -1    0    0  502  501  0.00000000000E+00  0.00000000000E+00  0.36389233486E+03  0.36389233486E+03  0.00000000000E+00 0.  1.
         21   -1    0    0  501  502 -0.00000000000E+00 -0.00000000000E+00 -0.10734631169E+02  0.10734631169E+02  0.00000000000E+00 0.  1.
         25    1    1    2    0    0  0.00000000000E+00  0.00000000000E+00  0.35315770369E+03  0.37462696603E+03  0.12500000000E+03 0.  0.
<mgrwt>
<rscale>  0 0.12500000E+03</rscale>
<asrwt>0</asrwt>
<pdfrwt beam="1">  1       21 0.55983427E-01 0.12500000E+03</pdfrwt>
<pdfrwt beam="2">  1       21 0.16514820E-02 0.12500000E+03</pdfrwt>
<totfact> 0.49769521E+06</totfact>
</mgrwt>
</event>
<event>
 3    1  0.1603864E-001  0.1250000E+03  0.7546771E-02  0.1235069E+00
         21   -1    0    0  502  501  0.00000000000E+00  0.00000000000E+00  0.28567580696E+02  0.28567580696E+02  0.00000000000E+00 0. -1.
         21   -1    0    0  501  502 -0.00000000000E+00 -0.00000000000E+00 -0.13673716516E+03  0.13673716516E+03  0.00000000000E+00 0. -1.
         25    1    1    2    0    0  0.00000000000E+00  0.00000000000E+00 -0.10816958447E+03  0.16530474586E+03  0.12500000000E+03 0.  0.
<mgrwt>
<rscale>  0 0.12500000E+03</rscale>
<asrwt>0</asrwt>
<pdfrwt beam="1">  1       21 0.43950123E-02 0.12500000E+03</pdfrwt>
<pdfrwt beam="2">  1       21 0.21036487E-01 0.12500000E+03</pdfrwt>
<totfact> 0.68877053E+06</totfact>
</mgrwt>
</event>
<event>
 3    1  0.1603864E-001  0.1250000E+03  0.7546771E-02  0.1235069E+00
         21   -1    0    0  502  501  0.00000000000E+00  0.00000000000E+00  0.45417814124E+02  0.45417814124E+02  0.00000000000E+00 0.  1.
         21   -1    0    0  501  502 -0.00000000000E+00 -0.00000000000E+00 -0.86007001336E+02  0.86007001336E+02  0.00000000000E+00 0.  1.
         25    1    1    2    0    0  0.00000000000E+00  0.00000000000E+00 -0.40589187212E+02  0.13142481546E+03  0.12500000000E+03 0.  0.
<mgrwt>
<rscale>  0 0.12500000E+03</rscale>
<asrwt>0</asrwt>
<pdfrwt beam="1">  1       21 0.69873561E-02 0.12500000E+03</pdfrwt>
<pdfrwt beam="2">  1       21 0.13231846E-01 0.12500000E+03</pdfrwt>
<totfact> 0.73173481E+06</totfact>
</mgrwt>
</event>
<event>
 3    1  0.1603864E-001  0.1250000E+03  0.7546771E-02  0.1235069E+00
         21   -1    0    0  502  501  0.00000000000E+00  0.00000000000E+00  0.33482134304E+02  0.33482134304E+02  0.00000000000E+00 0. -1.
         21   -1    0    0  501  502 -0.00000000000E+00 -0.00000000000E+00 -0.11666669647E+03  0.11666669647E+03  0.00000000000E+00 0. -1.
         25    1    1    2    0    0  0.00000000000E+00  0.00000000000E+00 -0.83184562166E+02  0.15014883077E+03  0.12500000000E+03 0.  0.
<mgrwt>
<rscale>  0 0.12500000E+03</rscale>
<asrwt>0</asrwt>
<pdfrwt beam="1">  1       21 0.51510976E-02 0.12500000E+03</pdfrwt>
<pdfrwt beam="2">  1       21 0.17948722E-01 0.12500000E+03</pdfrwt>
<totfact> 0.70740510E+06</totfact>
</mgrwt>
</event>
<event>
 3    1  0.1603864E-001  0.1250000E+03  0.7546771E-02  0.1235069E+00
         21   -1    0    0  502  501  0.00000000000E+00  0.00000000000E+00  0.54307606067E+03  0.54307606067E+03  0.00000000000E+00 0. -1.
         21   -1    0    0  501  502 -0.00000000000E+00 -0.00000000000E+00 -0.71928230369E+01  0.71928230369E+01  0.00000000000E+00 0. -1.
         25    1    1    2    0    0  0.00000000000E+00  0.00000000000E+00  0.53588323763E+03  0.55026888371E+03  0.12500000000E+03 0.  0.
<mgrwt>
<rscale>  0 0.12500000E+03</rscale>
<asrwt>0</asrwt>
<pdfrwt beam="1">  1       21 0.83550131E-01 0.12500000E+03</pdfrwt>
<pdfrwt beam="2">  1       21 0.11065886E-02 0.12500000E+03</pdfrwt>
<totfact> 0.39442803E+06</totfact>
</mgrwt>
</event>
<event>
 3    1  0.1603864E-001  0.1250000E+03  0.7546771E-02  0.1235069E+00
         21   -1    0    0  502  501  0.00000000000E+00  0.00000000000E+00  0.10277127713E+03  0.10277127713E+03  0.00000000000E+00 0. -1.
         21   -1    0    0  501  502 -0.00000000000E+00 -0.00000000000E+00 -0.38009160820E+02  0.38009160820E+02  0.00000000000E+00 0. -1.
         25    1    1    2    0    0  0.00000000000E+00  0.00000000000E+00  0.64762116308E+02  0.14078043795E+03  0.12500000000E+03 0.  0.
<mgrwt>
<rscale>  0 0.12500000E+03</rscale>
<asrwt>0</asrwt>
<pdfrwt beam="1">  1       21 0.15810966E-01 0.12500000E+03</pdfrwt>
<pdfrwt beam="2">  1       21 0.58475632E-02 0.12500000E+03</pdfrwt>
<totfact> 0.71937587E+06</totfact>
</mgrwt>
</event>
<event>
 3    1  0.1603864E-001  0.1250000E+03  0.7546771E-02  0.1235069E+00
         21   -1    0    0  502  501  0.00000000000E+00  0.00000000000E+00  0.59407165934E+01  0.59407165934E+01  0.00000000000E+00 0. -1.
         21   -1    0    0  501  502 -0.00000000000E+00 -0.00000000000E+00 -0.65753852058E+03  0.65753852058E+03  0.00000000000E+00 0. -1.
         25    1    1    2    0    0  0.00000000000E+00  0.00000000000E+00 -0.65159780399E+03  0.66347923717E+03  0.12500000000E+03 0.  0.
<mgrwt>
<rscale>  0 0.12500000E+03</rscale>
<asrwt>0</asrwt>
<pdfrwt beam="1">  1       21 0.91395662E-03 0.12500000E+03</pdfrwt>
<pdfrwt beam="2">  1       21 0.10115975E+00 0.12500000E+03</pdfrwt>
<totfact> 0.34366166E+06</totfact>
</mgrwt>
</event>
<event>
 3    1  0.1603864E-001  0.1250000E+03  0.7546771E-02  0.1235069E+00
         21   -1    0    0  502  501  0.00000000000E+00  0.00000000000E+00  0.19356968967E+04  0.19356968967E+04  0.00000000000E+00 0.  1.
         21   -1    0    0  501  502 -0.00000000000E+00 -0.00000000000E+00 -0.20180070582E+01  0.20180070582E+01  0.00000000000E+00 0.  1.
         25    1    1    2    0    0  0.00000000000E+00  0.00000000000E+00  0.19336788896E+04  0.19377149037E+04  0.12500000000E+03 0.  0.
<mgrwt>
<rscale>  0 0.12500000E+03</rscale>
<asrwt>0</asrwt>
<pdfrwt beam="1">  1       21 0.29779804E+00 0.12500000E+03</pdfrwt>
<pdfrwt beam="2">  1       21 0.31046417E-03 0.12500000E+03</pdfrwt>
<totfact> 0.85715423E+05</totfact>
</mgrwt>
</event>
<event>
 3    1  0.1603864E-001  0.1250000E+03  0.7546771E-02  0.1235069E+00
         21   -1    0    0  502  501  0.00000000000E+00  0.00000000000E+00  0.53106940243E+03  0.53106940243E+03  0.00000000000E+00 0. -1.
         21   -1    0    0  501  502 -0.00000000000E+00 -0.00000000000E+00 -0.73554416469E+01  0.73554416469E+01  0.00000000000E+00 0. -1.
         25    1    1    2    0    0  0.00000000000E+00  0.00000000000E+00  0.52371396078E+03  0.53842484407E+03  0.12500000000E+03 0.  0.
<mgrwt>
<rscale>  0 0.12500000E+03</rscale>
<asrwt>0</asrwt>
<pdfrwt beam="1">  1       21 0.81702955E-01 0.12500000E+03</pdfrwt>
<pdfrwt beam="2">  1       21 0.11316068E-02 0.12500000E+03</pdfrwt>
<totfact> 0.40034049E+06</totfact>
</mgrwt>
</event>
<event>
 3    1  0.1603864E-001  0.1250000E+03  0.7546771E-02  0.1235069E+00
         21   -1    0    0  502  501  0.00000000000E+00  0.00000000000E+00  0.21590810666E+04  0.21590810666E+04  0.00000000000E+00 0. -1.
         21   -1    0    0  501  502 -0.00000000000E+00 -0.00000000000E+00 -0.18092187738E+01  0.18092187738E+01  0.00000000000E+00 0. -1.
         25    1    1    2    0    0  0.00000000000E+00  0.00000000000E+00  0.21572718479E+04  0.21608902854E+04  0.12500000000E+03 0.  0.
<mgrwt>
<rscale>  0 0.12500000E+03</rscale>
<asrwt>0</asrwt>
<pdfrwt beam="1">  1       21 0.33216426E+00 0.12500000E+03</pdfrwt>
<pdfrwt beam="2">  1       21 0.27834308E-03 0.12500000E+03</pdfrwt>
<totfact> 0.64831108E+05</totfact>
</mgrwt>
</event>
<event>
 3    1  0.1603864E-001  0.1250000E+03  0.7546771E-02  0.1235069E+00
         21   -1    0    0  502  501  0.00000000000E+00  0.00000000000E+00  0.55457254104E+02  0.55457254104E+02  0.00000000000E+00 0. -1.
         21   -1    0    0  501  502 -0.00000000000E+00 -0.00000000000E+00 -0.70437133304E+02  0.70437133304E+02  0.00000000000E+00 0. -1.
         25    1    1    2    0    0  0.00000000000E+00  0.00000000000E+00 -0.14979879199E+02  0.12589438741E+03  0.12500000000E+03 0.  0.
<mgrwt>
<rscale>  0 0.12500000E+03</rscale>
<asrwt>0</asrwt>
<pdfrwt beam="1">  1       21 0.85318853E-02 0.12500000E+03</pdfrwt>
<pdfrwt beam="2">  1       21 0.10836482E-01 0.12500000E+03</pdfrwt>
<totfact> 0.73920616E+06</totfact>
</mgrwt>
</event>
<event>
 3    1  0.1603864E-001  0.1250000E+03  0.7546771E-02  0.1235069E+00
         21   -1    0    0  502  501  0.00000000000E+00  0.00000000000E+00  0.12169523463E+02  0.12169523463E+02  0.00000000000E+00 0.  1.
         21   -1    0    0  501  502 -0.00000000000E+00 -0.00000000000E+00 -0.32098627461E+03  0.32098627461E+03  0.00000000000E+00 0.  1.
         25    1    1    2    0    0  0.00000000000E+00  0.00000000000E+00 -0.30881675114E+03  0.33315579807E+03  0.12500000000E+03 0.  0.
<mgrwt>
<rscale>  0 0.12500000E+03</rscale>
<asrwt>0</asrwt>
<pdfrwt beam="1">  1       21 0.18722345E-02 0.12500000E+03</pdfrwt>
<pdfrwt beam="2">  1       21 0.49382500E-01 0.12500000E+03</pdfrwt>
<totfact> 0.52807008E+06</totfact>
</mgrwt>
</event>
<event>
 3    1  0.1603864E-001  0.1250000E+03  0.7546771E-02  0.1235069E+00
         21   -1    0    0  502  501  0.00000000000E+00  0.00000000000E+00  0.56096389992E+01  0.56096389992E+01  0.00000000000E+00 0. -1.
         21   -1    0    0  501  502 -0.00000000000E+00 -0.00000000000E+00 -0.69634605731E+03  0.69634605731E+03  0.00000000000E+00 0. -1.
         25    1    1    2    0    0  0.00000000000E+00  0.00000000000E+00 -0.69073641831E+03  0.70195569631E+03  0.12500000000E+03 0.  0.
<mgrwt>
<rscale>  0 0.12500000E+03</rscale>
<asrwt>0</asrwt>
<pdfrwt beam="1">  1       21 0.86302137E-03 0.12500000E+03</pdfrwt>
<pdfrwt beam="2">  1       21 0.10713016E+00 0.12500000E+03</pdfrwt>
<totfact> 0.32834877E+06</totfact>
</mgrwt>
</event>
<event>
 3    1  0.1603864E-001  0.1250000E+03  0.7546771E-02  0.1235069E+00
         21   -1    0    0  502  501  0.00000000000E+00  0.00000000000E+00  0.35496064967E+03  0.35496064967E+03  0.00000000000E+00 0. -1.
         21   -1    0    0  501  502 -0.00000000000E+00 -0.00000000000E+00 -0.11004740958E+02  0.11004740958E+02  0.00000000000E+00 0. -1.
         25    1    1    2    0    0  0.00000000000E+00  0.00000000000E+00  0.34395590871E+03  0.36596539063E+03  0.12500000000E+03 0.  0.
<mgrwt>
<rscale>  0 0.12500000E+03</rscale>
<asrwt>0</asrwt>
<pdfrwt beam="1">  1       21 0.54609322E-01 0.12500000E+03</pdfrwt>
<pdfrwt beam="2">  1       21 0.16930373E-02 0.12500000E+03</pdfrwt>
<totfact> 0.50380530E+06</totfact>
</mgrwt>
</event>
<event>
 3    1  0.1603864E-001  0.1250000E+03  0.7546771E-02  0.1235069E+00
         21   -1    0    0  502  501  0.00000000000E+00  0.00000000000E+00  0.15234387230E+04  0.15234387230E+04  0.00000000000E+00 0. -1.
         21   -1    0    0  501  502 -0.00000000000E+00 -0.00000000000E+00 -0.25641005057E+01  0.25641005057E+01  0.00000000000E+00 0. -1.
         25    1    1    2    0    0  0.00000000000E+00  0.00000000000E+00  0.15208746225E+04  0.15260028235E+04  0.12500000000E+03 0.  0.
<mgrwt>
<rscale>  0 0.12500000E+03</rscale>
<asrwt>0</asrwt>
<pdfrwt beam="1">  1       21 0.23437446E+00 0.12500000E+03</pdfrwt>
<pdfrwt beam="2">  1       21 0.39447822E-03 0.12500000E+03</pdfrwt>
<totfact> 0.13611664E+06</totfact>
</mgrwt>
</event>
<event>
 3    1  0.1603864E-001  0.1250000E+03  0.7546771E-02  0.1235069E+00
         21   -1    0    0  502  501  0.00000000000E+00  0.00000000000E+00  0.81338265179E+02  0.81338265179E+02  0.00000000000E+00 0.  1.
         21   -1    0    0  501  502 -0.00000000000E+00 -0.00000000000E+00 -0.48024751836E+02  0.48024751836E+02  0.00000000000E+00 0.  1.
         25    1    1    2    0    0  0.00000000000E+00  0.00000000000E+00  0.33313513342E+02  0.12936301701E+03  0.12500000000E+03 0.  0.
<mgrwt>
<rscale>  0 0.12500000E+03</rscale>
<asrwt>0</asrwt>
<pdfrwt beam="1">  1       21 0.12513579E-01 0.12500000E+03</pdfrwt>
<pdfrwt beam="2">  1       21 0.73884234E-02 0.12500000E+03</pdfrwt>
<totfact> 0.73450173E+06</totfact>
</mgrwt>
</event>
<event>
 3    1  0.1603864E-001  0.1250000E+03  0.7546771E-02  0.1235069E+00
         21   -1    0    0  502  501  0.00000000000E+00  0.00000000000E+00  0.14282446536E+02  0.14282446536E+02  0.00000000000E+00 0.  1.
         21   -1    0    0  501  502 -0.00000000000E+00 -0.00000000000E+00 -0.27350006109E+03  0.27350006109E+03  0.00000000000E+00 0.  1.
         25    1    1    2    0    0  0.00000000000E+00  0.00000000000E+00 -0.25921761455E+03  0.28778250762E+03  0.12500000000E+03 0.  0.
<mgrwt>
<rscale>  0 0.12500000E+03</rscale>
<asrwt>0</asrwt>
<pdfrwt beam="1">  1       21 0.21972996E-02 0.12500000E+03</pdfrwt>
<pdfrwt beam="2">  1       21 0.42076931E-01 0.12500000E+03</pdfrwt>
<totfact> 0.56487029E+06</totfact>
</mgrwt>
</event>
<event>
 3    1  0.1603864E-001  0.1250000E+03  0.7546771E-02  0.1235069E+00
         21   -1    0    0  502  501  0.00000000000E+00  0.00000000000E+00  0.31623366501E+02  0.31623366501E+02  0.00000000000E+00 0. -1.
         21   -1    0    0  501  502 -0.00000000000E+00 -0.00000000000E+00 -0.12352416685E+03  0.12352416685E+03  0.00000000000E+00 0. -1.
         25    1    1    2    0    0  0.00000000000E+00  0.00000000000E+00 -0.91900800346E+02  0.15514753335E+03  0.12500000000E+03 0.  0.
<mgrwt>
<rscale>  0 0.12500000E+03</rscale>
<asrwt>0</asrwt>
<pdfrwt beam="1">  1       21 0.48651334E-02 0.12500000E+03</pdfrwt>
<pdfrwt beam="2">  1       21 0.19003717E-01 0.12500000E+03</pdfrwt>
<totfact> 0.70117327E+06</totfact>
</mgrwt>
</event>
<event>
 3    1  0.1603864E-001  0.1250000E+03  0.7546771E-02  0.1235069E+00
         21   -1    0    0  502  501  0.00000000000E+00  0.00000000000E+00  0.32846138365E+01  0.32846138365E+01  0.00000000000E+00 0. -1.
         21   -1    0    0  501  502 -0.00000000000E+00 -0.00000000000E+00 -0.11892570008E+04  0.11892570008E+04  0.00000000000E+00 0. -1.
         25    1    1    2    0    0  0.00000000000E+00  0.00000000000E+00 -0.11859723870E+04  0.11925416146E+04  0.12500000000E+03 0.  0.
<mgrwt>
<rscale>  0 0.12500000E+03</rscale>
<asrwt>0</asrwt>
<pdfrwt beam="1">  1       21 0.50532550E-03 0.12500000E+03</pdfrwt>
<pdfrwt beam="2">  1       21 0.18296251E+00 0.12500000E+03</pdfrwt>
<totfact> 0.19292649E+06</totfact>
</mgrwt>
</event>
<event>
 3    1  0.1603864E-001  0.1250000E+03  0.7546771E-02  0.1235069E+00
         21   -1    0    0  502  501  0.00000000000E+00  0.00000000000E+00  0.37287171298E+02  0.37287171298E+02  0.00000000000E+00 0. -1.
         21   -1    0    0  501  502 -0.00000000000E+00 -0.00000000000E+00 -0.10476123192E+03  0.10476123192E+03  0.00000000000E+00 0. -1.
         25    1    1    2    0    0  0.00000000000E+00  0.00000000000E+00 -0.67474060623E+02  0.14204840322E+03  0.12500000000E+03 0.  0.
<mgrwt>
<rscale>  0 0.12500000E+03</rscale>
<asrwt>0</asrwt>
<pdfrwt beam="1">  1       21 0.57364880E-02 0.12500000E+03</pdfrwt>
<pdfrwt beam="2">  1       21 0.16117112E-01 0.12500000E+03</pdfrwt>
<totfact> 0.71773009E+06</totfact>
</mgrwt>
</event>
<event>
 3    1  0.1603864E-001  0.1250000E+03  0.7546771E-02  0.1235069E+00
         21   -1    0    0  502  501  0.00000000000E+00  0.00000000000E+00  0.19073987583E+02  0.19073987583E+02  0.00000000000E+00 0. -1.
         21   -1    0    0  501  502 -0.00000000000E+00 -0.00000000000E+00 -0.20479461796E+03  0.20479461796E+03  0.00000000000E+00 0. -1.
         25    1    1    2    0    0  0.00000000000E+00  0.00000000000E+00 -0.18572063037E+03  0.22386860554E+03  0.12500000000E+03 0.  0.
<mgrwt>
<rscale>  0 0.12500000E+03</rscale>
<asrwt>0</asrwt>
<pdfrwt beam="1">  1       21 0.29344598E-02 0.12500000E+03</pdfrwt>
<pdfrwt beam="2">  1       21 0.31506863E-01 0.12500000E+03</pdfrwt>
<totfact> 0.62429288E+06</totfact>
</mgrwt>
</event>
<event>
 3    1  0.1603864E-001  0.1250000E+03  0.7546771E-02  0.1235069E+00
         21   -1    0    0  502  501  0.00000000000E+00  0.00000000000E+00  0.49001636306E+02  0.49001636306E+02  0.00000000000E+00 0. -1.
         21   -1    0    0  501  502 -0.00000000000E+00 -0.00000000000E+00 -0.79716725695E+02  0.79716725695E+02  0.00000000000E+00 0. -1.
         25    1    1    2    0    0  0.00000000000E+00  0.00000000000E+00 -0.30715089389E+02  0.12871836200E+03  0.12500000000E+03 0.  0.
<mgrwt>
<rscale>  0 0.12500000E+03</rscale>
<asrwt>0</asrwt>
<pdfrwt beam="1">  1       21 0.75387134E-02 0.12500000E+03</pdfrwt>
<pdfrwt beam="2">  1       21 0.12264112E-01 0.12500000E+03</pdfrwt>
<totfact> 0.73536733E+06</totfact>
</mgrwt>
</event>
<event>
 3    1  0.1603864E-001  0.1250000E+03  0.7546771E-02  0.1235069E+00
         21   -1    0    0  502  501  0.00000000000E+00  0.00000000000E+00  0.28390756354E+02  0.28390756354E+02  0.00000000000E+00 0.  1.
         21   -1    0    0  501  502 -0.00000000000E+00 -0.00000000000E+00 -0.13758879655E+03  0.13758879655E+03  0.00000000000E+00 0.  1.
         25    1    1    2    0    0  0.00000000000E+00  0.00000000000E+00 -0.10919804020E+03  0.16597955291E+03  0.12500000000E+03 0.  0.
<mgrwt>
<rscale>  0 0.12500000E+03</rscale>
<asrwt>0</asrwt>
<pdfrwt beam="1">  1       21 0.43678087E-02 0.12500000E+03</pdfrwt>
<pdfrwt beam="2">  1       21 0.21167507E-01 0.12500000E+03</pdfrwt>
<totfact> 0.68796140E+06</totfact>
</mgrwt>
</event>
<event>
 3    1  0.1603864E-001  0.1250000E+03  0.7546771E-02  0.1235069E+00
         21   -1    0    0  502  501  0.00000000000E+00  0.00000000000E+00  0.28907731483E+02  0.28907731483E+02  0.00000000000E+00 0.  1.
         21   -1    0    0  501  502 -0.00000000000E+00 -0.00000000000E+00 -0.13512820964E+03  0.13512820964E+03  0.00000000000E+00 0.  1.
         25    1    1    2    0    0  0.00000000000E+00  0.00000000000E+00 -0.10622047816E+03  0.16403594112E+03  0.12500000000E+03 0.  0.
<mgrwt>
<rscale>  0 0.12500000E+03</rscale>
<asrwt>0</asrwt>
<pdfrwt beam="1">  1       21 0.44473434E-02 0.12500000E+03</pdfrwt>
<pdfrwt beam="2">  1       21 0.20788955E-01 0.12500000E+03</pdfrwt>
<totfact> 0.69029680E+06</totfact>
</mgrwt>
</event>
<event>
 3    1  0.1603864E-001  0.1250000E+03  0.7546771E-02  0.1235069E+00
         21   -1    0    0  502  501  0.00000000000E+00  0.00000000000E+00  0.13139930207E+02  0.13139930207E+02  0.00000000000E+00 0. -1.
         21   -1    0    0  501  502 -0.00000000000E+00 -0.00000000000E+00 -0.29728087886E+03  0.29728087886E+03  0.00000000000E+00 0. -1.
         25    1    1    2    0    0  0.00000000000E+00  0.00000000000E+00 -0.28414094865E+03  0.31042080906E+03  0.12500000000E+03 0.  0.
<mgrwt>
<rscale>  0 0.12500000E+03</rscale>
<asrwt>0</asrwt>
<pdfrwt beam="1">  1       21 0.20215278E-02 0.12500000E+03</pdfrwt>
<pdfrwt beam="2">  1       21 0.45735517E-01 0.12500000E+03</pdfrwt>
<totfact> 0.54601132E+06</totfact>
</mgrwt>
</event>
<event>
 3    1  0.1603864E-001  0.1250000E+03  0.7546771E-02  0.1235069E+00
         21   -1    0    0  502  501  0.00000000000E+00  0.00000000000E+00  0.62855011824E+02  0.62855011824E+02  0.00000000000E+00 0. -1.
         21   -1    0    0  501  502 -0.00000000000E+00 -0.00000000000E+00 -0.62146993321E+02  0.62146993321E+02  0.00000000000E+00 0. -1.
         25    1    1    2    0    0  0.00000000000E+00  0.00000000000E+00  0.70801850365E+00  0.12500200514E+03  0.12500000000E+03 0.  0.
<mgrwt>
<rscale>  0 0.12500000E+03</rscale>
<asrwt>0</asrwt>
<pdfrwt beam="1">  1       21 0.96700018E-02 0.12500000E+03</pdfrwt>
<pdfrwt beam="2">  1       21 0.95610759E-02 0.12500000E+03</pdfrwt>
<totfact> 0.74043311E+06</totfact>
</mgrwt>
</event>
<event>
 3    1  0.1603864E-001  0.1250000E+03  0.7546771E-02  0.1235069E+00
         21   -1    0    0  502  501  0.00000000000E+00  0.00000000000E+00  0.34741973808E+02  0.34741973808E+02  0.00000000000E+00 0.  1.
         21   -1    0    0  501  502 -0.00000000000E+00 -0.00000000000E+00 -0.11243604125E+03  0.11243604125E+03  0.00000000000E+00 0.  1.
         25    1    1    2    0    0  0.00000000000E+00  0.00000000000E+00 -0.77694067438E+02  0.14717801505E+03  0.12500000000E+03 0.  0.
<mgrwt>
<rscale>  0 0.12500000E+03</rscale>
<asrwt>0</asrwt>
<pdfrwt beam="1">  1       21 0.53449190E-02 0.12500000E+03</pdfrwt>
<pdfrwt beam="2">  1       21 0.17297853E-01 0.12500000E+03</pdfrwt>
<totfact> 0.71115520E+06</totfact>
</mgrwt>
</event>
<event>
 3    1  0.1603864E-001  0.1250000E+03  0.7546771E-02  0.1235069E+00
         21   -1    0    0  502  501  0.00000000000E+00  0.00000000000E+00  0.27631150757E+01  0.27631150757E+01  0.00000000000E+00 0.  1.
         21   -1    0    0  501  502 -0.00000000000E+00 -0.00000000000E+00 -0.14137123837E+04  0.14137123837E+04  0.00000000000E+00 0.  1.
         25    1    1    2    0    0  0.00000000000E+00  0.00000000000E+00 -0.14109492686E+04  0.14164754987E+04  0.12500000000E+03 0.  0.
<mgrwt>
<rscale>  0 0.12500000E+03</rscale>
<asrwt>0</asrwt>
<pdfrwt beam="1">  1       21 0.42509475E-03 0.12500000E+03</pdfrwt>
<pdfrwt beam="2">  1       21 0.21749415E+00 0.12500000E+03</pdfrwt>
<totfact> 0.15278806E+06</totfact>
</mgrwt>
</event>
<event>
 3    1  0.1603864E-001  0.1250000E+03  0.7546771E-02  0.1235069E+00
         21   -1    0    0  502  501  0.00000000000E+00  0.00000000000E+00  0.12549634909E+03  0.12549634909E+03  0.00000000000E+00 0.  1.
         21   -1    0    0  501  502 -0.00000000000E+00 -0.00000000000E+00 -0.31126403503E+02  0.31126403503E+02  0.00000000000E+00 0.  1.
         25    1    1    2    0    0  0.00000000000E+00  0.00000000000E+00  0.94369945590E+02  0.15662275260E+03  0.12500000000E+03 0.  0.
<mgrwt>
<rscale>  0 0.12500000E+03</rscale>
<asrwt>0</asrwt>
<pdfrwt beam="1">  1       21 0.19307130E-01 0.12500000E+03</pdfrwt>
<pdfrwt beam="2">  1       21 0.47886775E-02 0.12500000E+03</pdfrwt>
<totfact> 0.69934531E+06</totfact>
</mgrwt>
</event>
<event>
 3    1  0.1603864E-001  0.1250000E+03  0.7546771E-02  0.1235069E+00
         21   -1    0    0  502  501  0.00000000000E+00  0.00000000000E+00  0.13719335722E+02  0.13719335722E+02  0.00000000000E+00 0. -1.
         21   -1    0    0  501  502 -0.00000000000E+00 -0.00000000000E+00 -0.28472588463E+03  0.28472588463E+03  0.00000000000E+00 0. -1.
         25    1    1    2    0    0  0.00000000000E+00  0.00000000000E+00 -0.27100654891E+03  0.29844522036E+03  0.12500000000E+03 0.  0.
<mgrwt>
<rscale>  0 0.12500000E+03</rscale>
<asrwt>0</asrwt>
<pdfrwt beam="1">  1       21 0.21106670E-02 0.12500000E+03</pdfrwt>
<pdfrwt beam="2">  1       21 0.43803983E-01 0.12500000E+03</pdfrwt>
<totfact> 0.55585629E+06</totfact>
</mgrwt>
</event>
<event>
 3    1  0.1603864E-001  0.1250000E+03  0.7546771E-02  0.1235069E+00
         21   -1    0    0  502  501  0.00000000000E+00  0.00000000000E+00  0.35101860245E+02  0.35101860245E+02  0.00000000000E+00 0.  1.
         21   -1    0    0  501  502 -0.00000000000E+00 -0.00000000000E+00 -0.11128327595E+03  0.11128327595E+03  0.00000000000E+00 0.  1.
         25    1    1    2    0    0  0.00000000000E+00  0.00000000000E+00 -0.76181415706E+02  0.14638513620E+03  0.12500000000E+03 0.  0.
<mgrwt>
<rscale>  0 0.12500000E+03</rscale>
<asrwt>0</asrwt>
<pdfrwt beam="1">  1       21 0.54002862E-02 0.12500000E+03</pdfrwt>
<pdfrwt beam="2">  1       21 0.17120504E-01 0.12500000E+03</pdfrwt>
<totfact> 0.71216304E+06</totfact>
</mgrwt>
</event>
<event>
 3    1  0.1603864E-001  0.1250000E+03  0.7546771E-02  0.1235069E+00
         21   -1    0    0  502  501  0.00000000000E+00  0.00000000000E+00  0.28908757719E+03  0.28908757719E+03  0.00000000000E+00 0.  1.
         21   -1    0    0  501  502 -0.00000000000E+00 -0.00000000000E+00 -0.13512341270E+02  0.13512341270E+02  0.00000000000E+00 0.  1.
         25    1    1    2    0    0  0.00000000000E+00  0.00000000000E+00  0.27557523592E+03  0.30259991846E+03  0.12500000000E+03 0.  0.
<mgrwt>
<rscale>  0 0.12500000E+03</rscale>
<asrwt>0</asrwt>
<pdfrwt beam="1">  1       21 0.44475007E-01 0.12500000E+03</pdfrwt>
<pdfrwt beam="2">  1       21 0.20788219E-02 0.12500000E+03</pdfrwt>
<totfact> 0.55240802E+06</totfact>
</mgrwt>
</event>
<event>
 3    1  0.1603864E-001  0.1250000E+03  0.7546771E-02  0.1235069E+00
         21   -1    0    0  502  501  0.00000000000E+00  0.00000000000E+00  0.10165032461E+03  0.10165032461E+03  0.00000000000E+00 0. -1.
         21   -1    0    0  501  502 -0.00000000000E+00 -0.00000000000E+00 -0.38428308173E+02  0.38428308173E+02  0.00000000000E+00 0. -1.
         25    1    1    2    0    0  0.00000000000E+00  0.00000000000E+00  0.63222016438E+02  0.14007863278E+03  0.12500000000E+03 0.  0.
<mgrwt>
<rscale>  0 0.12500000E+03</rscale>
<asrwt>0</asrwt>
<pdfrwt beam="1">  1       21 0.15638511E-01 0.12500000E+03</pdfrwt>
<pdfrwt beam="2">  1       21 0.59120474E-02 0.12500000E+03</pdfrwt>
<totfact> 0.72029045E+06</totfact>
</mgrwt>
</event>
<event>
 3    1  0.1603864E-001  0.1250000E+03  0.7546771E-02  0.1235069E+00
         21   -1    0    0  502  501  0.00000000000E+00  0.00000000000E+00  0.12350116391E+03  0.12350116391E+03  0.00000000000E+00 0. -1.
         21   -1    0    0  501  502 -0.00000000000E+00 -0.00000000000E+00 -0.31629256571E+02  0.31629256571E+02  0.00000000000E+00 0. -1.
         25    1    1    2    0    0  0.00000000000E+00  0.00000000000E+00  0.91871907334E+02  0.15513042048E+03  0.12500000000E+03 0.  0.
<mgrwt>
<rscale>  0 0.12500000E+03</rscale>
<asrwt>0</asrwt>
<pdfrwt beam="1">  1       21 0.19000179E-01 0.12500000E+03</pdfrwt>
<pdfrwt beam="2">  1       21 0.48660395E-02 0.12500000E+03</pdfrwt>
<totfact> 0.70119453E+06</totfact>
</mgrwt>
</event>
<event>
 3    1  0.1603864E-001  0.1250000E+03  0.7546771E-02  0.1235069E+00
         21   -1    0    0  502  501  0.00000000000E+00  0.00000000000E+00  0.17145080260E+02  0.17145080260E+02  0.00000000000E+00 0.  1.
         21   -1    0    0  501  502 -0.00000000000E+00 -0.00000000000E+00 -0.22783503727E+03  0.22783503727E+03  0.00000000000E+00 0.  1.
         25    1    1    2    0    0  0.00000000000E+00  0.00000000000E+00 -0.21068995701E+03  0.24498011753E+03  0.12500000000E+03 0.  0.
<mgrwt>
<rscale>  0 0.12500000E+03</rscale>
<asrwt>0</asrwt>
<pdfrwt beam="1">  1       21 0.26377046E-02 0.12500000E+03</pdfrwt>
<pdfrwt beam="2">  1       21 0.35051546E-01 0.12500000E+03</pdfrwt>
<totfact> 0.60354048E+06</totfact>
</mgrwt>
</event>
<event>
 3    1  0.1603864E-001  0.1250000E+03  0.7546771E-02  0.1235069E+00
         21   -1    0    0  502  501  0.00000000000E+00  0.00000000000E+00  0.32498581261E+01  0.32498581261E+01  0.00000000000E+00 0. -1.
         21   -1    0    0  501  502 -0.00000000000E+00 -0.00000000000E+00 -0.12019755474E+04  0.12019755474E+04  0.00000000000E+00 0. -1.
         25    1    1    2    0    0  0.00000000000E+00  0.00000000000E+00 -0.11987256892E+04  0.12052254055E+04  0.12500000000E+03 0.  0.
<mgrwt>
<rscale>  0 0.12500000E+03</rscale>
<asrwt>0</asrwt>
<pdfrwt beam="1">  1       21 0.49997804E-03 0.12500000E+03</pdfrwt>
<pdfrwt beam="2">  1       21 0.18491936E+00 0.12500000E+03</pdfrwt>
<totfact> 0.19039536E+06</totfact>
</mgrwt>
</event>
<event>
 3    1  0.1603864E-001  0.1250000E+03  0.7546771E-02  0.1235069E+00
         21   -1    0    0  502  501  0.00000000000E+00  0.00000000000E+00  0.23383738930E+02  0.23383738930E+02  0.00000000000E+00 0.  1.
         21   -1    0    0  501  502 -0.00000000000E+00 -0.00000000000E+00 -0.16704984655E+03  0.16704984655E+03  0.00000000000E+00 0.  1.
         25    1    1    2    0    0  0.00000000000E+00  0.00000000000E+00 -0.14366610762E+03  0.19043358548E+03  0.12500000000E+03 0.  0.
<mgrwt>
<rscale>  0 0.12500000E+03</rscale>
<asrwt>0</asrwt>
<pdfrwt beam="1">  1       21 0.35974983E-02 0.12500000E+03</pdfrwt>
<pdfrwt beam="2">  1       21 0.25699976E-01 0.12500000E+03</pdfrwt>
<totfact> 0.65974307E+06</totfact>
</mgrwt>
</event>
<event>
 3    1  0.1603864E-001  0.1250000E+03  0.7546771E-02  0.1235069E+00
         21   -1    0    0  502  501  0.00000000000E+00  0.00000000000E+00  0.21519344138E+04  0.21519344138E+04  0.00000000000E+00 0.  1.
         21   -1    0    0  501  502 -0.00000000000E+00 -0.00000000000E+00 -0.18152272555E+01  0.18152272555E+01  0.00000000000E+00 0.  1.
         25    1    1    2    0    0  0.00000000000E+00  0.00000000000E+00  0.21501191866E+04  0.21537496411E+04  0.12500000000E+03 0.  0.
<mgrwt>
<rscale>  0 0.12500000E+03</rscale>
<asrwt>0</asrwt>
<pdfrwt beam="1">  1       21 0.33106479E+00 0.12500000E+03</pdfrwt>
<pdfrwt beam="2">  1       21 0.27926745E-03 0.12500000E+03</pdfrwt>
<totfact> 0.65438401E+05</totfact>
</mgrwt>
</event>
<event>
 3    1  0.1603864E-001  0.1250000E+03  0.7546771E-02  0.1235069E+00
         21   -1    0    0  502  501  0.00000000000E+00  0.00000000000E+00  0.28409906970E+02  0.28409906970E+02  0.00000000000E+00 0. -1.
         21   -1    0    0  501  502 -0.00000000000E+00 -0.00000000000E+00 -0.13749605038E+03  0.13749605038E+03  0.00000000000E+00 0. -1.
         25    1    1    2    0    0  0.00000000000E+00  0.00000000000E+00 -0.10908614341E+03  0.16590595735E+03  0.12500000000E+03 0.  0.
<mgrwt>
<rscale>  0 0.12500000E+03</rscale>
<asrwt>0</asrwt>
<pdfrwt beam="1">  1       21 0.43707550E-02 0.12500000E+03</pdfrwt>
<pdfrwt beam="2">  1       21 0.21153238E-01 0.12500000E+03</pdfrwt>
<totfact> 0.68804956E+06</totfact>
</mgrwt>
</event>
<event>
 3    1  0.1603864E-001  0.1250000E+03  0.7546771E-02  0.1235069E+00
         21   -1    0    0  502  501  0.00000000000E+00  0.00000000000E+00  0.39149732203E+02  0.39149732203E+02  0.00000000000E+00 0. -1.
         21   -1    0    0  501  502 -0.00000000000E+00 -0.00000000000E+00 -0.99777183141E+02  0.99777183141E+02  0.00000000000E+00 0. -1.
         25    1    1    2    0    0  0.00000000000E+00  0.00000000000E+00 -0.60627450938E+02  0.13892691534E+03  0.12500000000E+03 0.  0.
<mgrwt>
<rscale>  0 0.12500000E+03</rscale>
<asrwt>0</asrwt>
<pdfrwt beam="1">  1       21 0.60230359E-02 0.12500000E+03</pdfrwt>
<pdfrwt beam="2">  1       21 0.15350335E-01 0.12500000E+03</pdfrwt>
<totfact> 0.72179708E+06</totfact>
</mgrwt>
</event>
<event>
 3    1  0.1603864E-001  0.1250000E+03  0.7546771E-02  0.1235069E+00
         21   -1    0    0  502  501  0.00000000000E+00  0.00000000000E+00  0.71589038709E+02  0.71589038709E+02  0.00000000000E+00 0. -1.
         21   -1    0    0  501  502 -0.00000000000E+00 -0.00000000000E+00 -0.54564917625E+02  0.54564917625E+02  0.00000000000E+00 0. -1.
         25    1    1    2    0    0  0.00000000000E+00  0.00000000000E+00  0.17024121084E+02  0.12615395633E+03  0.12500000000E+03 0.  0.
<mgrwt>
<rscale>  0 0.12500000E+03</rscale>
<asrwt>0</asrwt>
<pdfrwt beam="1">  1       21 0.11013698E-01 0.12500000E+03</pdfrwt>
<pdfrwt beam="2">  1       21 0.83946027E-02 0.12500000E+03</pdfrwt>
<totfact> 0.73884839E+06</totfact>
</mgrwt>
</event>
<event>
 3    1  0.1603864E-001  0.1250000E+03  0.7546771E-02  0.1235069E+00
         21   -1    0    0  502  501  0.00000000000E+00  0.00000000000E+00  0.71569182675E+01  0.71569182675E+01  0.00000000000E+00 0. -1.
         21   -1    0    0  501  502 -0.00000000000E+00 -0.00000000000E+00 -0.54580056024E+03  0.54580056024E+03  0.00000000000E+00 0. -1.
         25    1    1    2    0    0  0.00000000000E+00  0.00000000000E+00 -0.53864364198E+03  0.55295747851E+03  0.12500000000E+03 0.  0.
<mgrwt>
<rscale>  0 0.12500000E+03</rscale>
<asrwt>0</asrwt>
<pdfrwt beam="1">  1       21 0.11010646E-02 0.12500000E+03</pdfrwt>
<pdfrwt beam="2">  1       21 0.83969294E-01 0.12500000E+03</pdfrwt>
<totfact> 0.39310341E+06</totfact>
</mgrwt>
</event>
<event>
 3    1  0.1603864E-001  0.1250000E+03  0.7546771E-02  0.1235069E+00
         21   -1    0    0  502  501  0.00000000000E+00  0.00000000000E+00  0.92025817690E+01  0.92025817690E+01  0.00000000000E+00 0.  1.
         21   -1    0    0  501  502 -0.00000000000E+00 -0.00000000000E+00 -0.42447327261E+03  0.42447327261E+03  0.00000000000E+00 0.  1.
         25    1    1    2    0    0  0.00000000000E+00  0.00000000000E+00 -0.41527069085E+03  0.43367585438E+03  0.12500000000E+03 0.  0.
<mgrwt>
<rscale>  0 0.12500000E+03</rscale>
<asrwt>0</asrwt>
<pdfrwt beam="1">  1       21 0.14157818E-02 0.12500000E+03</pdfrwt>
<pdfrwt beam="2">  1       21 0.65303582E-01 0.12500000E+03</pdfrwt>
<totfact> 0.45885036E+06</totfact>
</mgrwt>
</event>
<event>
 3    1  0.1603864E-001  0.1250000E+03  0.7546771E-02  0.1235069E+00
         21   -1    0    0  502  501  0.00000000000E+00  0.00000000000E+00  0.59164887003E+01  0.59164887003E+01  0.00000000000E+00 0.  1.
         21   -1    0    0  501  502 -0.00000000000E+00 -0.00000000000E+00 -0.66023112658E+03  0.66023112658E+03  0.00000000000E+00 0.  1.
         25    1    1    2    0    0  0.00000000000E+00  0.00000000000E+00 -0.65431463788E+03  0.66614761528E+03  0.12500000000E+03 0.  0.
<mgrwt>
<rscale>  0 0.12500000E+03</rscale>
<asrwt>0</asrwt>
<pdfrwt beam="1">  1       21 0.91022979E-03 0.12500000E+03</pdfrwt>
<pdfrwt beam="2">  1       21 0.10157394E+00 0.12500000E+03</pdfrwt>
<totfact> 0.34256533E+06</totfact>
</mgrwt>
</event>
<event>
 3    1  0.1603864E-001  0.1250000E+03  0.7546771E-02  0.1235069E+00
         21   -1    0    0  502  501  0.00000000000E+00  0.00000000000E+00  0.85789151774E+02  0.85789151774E+02  0.00000000000E+00 0.  1.
         21   -1    0    0  501  502 -0.00000000000E+00 -0.00000000000E+00 -0.45533146315E+02  0.45533146315E+02  0.00000000000E+00 0.  1.
         25    1    1    2    0    0  0.00000000000E+00  0.00000000000E+00  0.40256005459E+02  0.13132229809E+03  0.12500000000E+03 0.  0.
<mgrwt>
<rscale>  0 0.12500000E+03</rscale>
<asrwt>0</asrwt>
<pdfrwt beam="1">  1       21 0.13198331E-01 0.12500000E+03</pdfrwt>
<pdfrwt beam="2">  1       21 0.70050994E-02 0.12500000E+03</pdfrwt>
<totfact> 0.73187272E+06</totfact>
</mgrwt>
</event>
<event>
 3    1  0.1603864E-001  0.1250000E+03  0.7546771E-02  0.1235069E+00
         21   -1    0    0  502  501  0.00000000000E+00  0.00000000000E+00  0.10912012530E+04  0.10912012530E+04  0.00000000000E+00 0. -1.
         21   -1    0    0  501  502 -0.00000000000E+00 -0.00000000000E+00 -0.35797704495E+01  0.35797704495E+01  0.00000000000E+00 0. -1.
         25    1    1    2    0    0  0.00000000000E+00  0.00000000000E+00  0.10876214826E+04  0.10947810235E+04  0.12500000000E+03 0.  0.
<mgrwt>
<rscale>  0 0.12500000E+03</rscale>
<asrwt>0</asrwt>
<pdfrwt beam="1">  1       21 0.16787685E+00 0.12500000E+03</pdfrwt>
<pdfrwt beam="2">  1       21 0.55073479E-03 0.12500000E+03</pdfrwt>
<totfact> 0.21367885E+06</totfact>
</mgrwt>
</event>
<event>
 3    1  0.1603864E-001  0.1250000E+03  0.7546771E-02  0.1235069E+00
         21   -1    0    0  502  501  0.00000000000E+00  0.00000000000E+00  0.12063934368E+02  0.12063934368E+02  0.00000000000E+00 0.  1.
         21   -1    0    0  501  502 -0.00000000000E+00 -0.00000000000E+00 -0.32379569392E+03  0.32379569392E+03  0.00000000000E+00 0.  1.
         25    1    1    2    0    0  0.00000000000E+00  0.00000000000E+00 -0.31173175955E+03  0.33585962829E+03  0.12500000000E+03 0.  0.
<mgrwt>
<rscale>  0 0.12500000E+03</rscale>
<asrwt>0</asrwt>
<pdfrwt beam="1">  1       21 0.18559903E-02 0.12500000E+03</pdfrwt>
<pdfrwt beam="2">  1       21 0.49814713E-01 0.12500000E+03</pdfrwt>
<totfact> 0.52600006E+06</totfact>
</mgrwt>
</event>
<event>
 3    1  0.1603864E-001  0.1250000E+03  0.7546771E-02  0.1235069E+00
         21   -1    0    0  502  501  0.00000000000E+00  0.00000000000E+00  0.72415797578E+03  0.72415797578E+03  0.00000000000E+00 0. -1.
         21   -1    0    0  501  502 -0.00000000000E+00 -0.00000000000E+00 -0.53941959222E+01  0.53941959222E+01  0.00000000000E+00 0. -1.
         25    1    1    2    0    0  0.00000000000E+00  0.00000000000E+00  0.71876377986E+03  0.72955217170E+03  0.12500000000E+03 0.  0.
<mgrwt>
<rscale>  0 0.12500000E+03</rscale>
<asrwt>0</asrwt>
<pdfrwt beam="1">  1       21 0.11140884E+00 0.12500000E+03</pdfrwt>
<pdfrwt beam="2">  1       21 0.82987687E-03 0.12500000E+03</pdfrwt>
<totfact> 0.31801472E+06</totfact>
</mgrwt>
</event>
<event>
 3    1  0.1603864E-001  0.1250000E+03  0.7546771E-02  0.1235069E+00
         21   -1    0    0  502  501  0.00000000000E+00  0.00000000000E+00  0.28117820732E+01  0.28117820732E+01  0.00000000000E+00 0. -1.
         21   -1    0    0  501  502 -0.00000000000E+00 -0.00000000000E+00 -0.13892435112E+04  0.13892435112E+04  0.00000000000E+00 0. -1.
         25    1    1    2    0    0  0.00000000000E+00  0.00000000000E+00 -0.13864317291E+04  0.13920552932E+04  0.12500000000E+03 0.  0.
<mgrwt>
<rscale>  0 0.12500000E+03</rscale>
<asrwt>0</asrwt>
<pdfrwt beam="1">  1       21 0.43258083E-03 0.12500000E+03</pdfrwt>
<pdfrwt beam="2">  1       21 0.21373028E+00 0.12500000E+03</pdfrwt>
<totfact> 0.15674535E+06</totfact>
</mgrwt>
</event>
<event>
 3    1  0.1603864E-001  0.1250000E+03  0.7546771E-02  0.1235069E+00
         21   -1    0    0  502  501  0.00000000000E+00  0.00000000000E+00  0.12354217337E+03  0.12354217337E+03  0.00000000000E+00 0. -1.
         21   -1    0    0  501  502 -0.00000000000E+00 -0.00000000000E+00 -0.31618757332E+02  0.31618757332E+02  0.00000000000E+00 0. -1.
         25    1    1    2    0    0  0.00000000000E+00  0.00000000000E+00  0.91923416036E+02  0.15516093070E+03  0.12500000000E+03 0.  0.
<mgrwt>
<rscale>  0 0.12500000E+03</rscale>
<asrwt>0</asrwt>
<pdfrwt beam="1">  1       21 0.19006488E-01 0.12500000E+03</pdfrwt>
<pdfrwt beam="2">  1       21 0.48644243E-02 0.12500000E+03</pdfrwt>
<totfact> 0.70115663E+06</totfact>
</mgrwt>
</event>
<event>
 3    1  0.1603864E-001  0.1250000E+03  0.7546771E-02  0.1235069E+00
         21   -1    0    0  502  501  0.00000000000E+00  0.00000000000E+00  0.10631037205E+03  0.10631037205E+03  0.00000000000E+00 0.  1.
         21   -1    0    0  501  502 -0.00000000000E+00 -0.00000000000E+00 -0.36743827764E+02  0.36743827764E+02  0.00000000000E+00 0.  1.
         25    1    1    2    0    0  0.00000000000E+00  0.00000000000E+00  0.69566544284E+02  0.14305419981E+03  0.12500000000E+03 0.  0.
<mgrwt>
<rscale>  0 0.12500000E+03</rscale>
<asrwt>0</asrwt>
<pdfrwt beam="1">  1       21 0.16355442E-01 0.12500000E+03</pdfrwt>
<pdfrwt beam="2">  1       21 0.56528966E-02 0.12500000E+03</pdfrwt>
<totfact> 0.71643054E+06</totfact>
</mgrwt>
</event>
<event>
 3    1  0.1603864E-001  0.1250000E+03  0.7546771E-02  0.1235069E+00
         21   -1    0    0  502  501  0.00000000000E+00  0.00000000000E+00  0.90647249881E+02  0.90647249881E+02  0.00000000000E+00 0. -1.
         21   -1    0    0  501  502 -0.00000000000E+00 -0.00000000000E+00 -0.43092868290E+02  0.43092868290E+02  0.00000000000E+00 0. -1.
         25    1    1    2    0    0  0.00000000000E+00  0.00000000000E+00  0.47554381591E+02  0.13374011817E+03  0.12500000000E+03 0.  0.
<mgrwt>
<rscale>  0 0.12500000E+03</rscale>
<asrwt>0</asrwt>
<pdfrwt beam="1">  1       21 0.13945731E-01 0.12500000E+03</pdfrwt>
<pdfrwt beam="2">  1       21 0.66296721E-02 0.12500000E+03</pdfrwt>
<totfact> 0.72863726E+06</totfact>
</mgrwt>
</event>
<event>
 3    1  0.1603864E-001  0.1250000E+03  0.7546771E-02  0.1235069E+00
         21   -1    0    0  502  501  0.00000000000E+00  0.00000000000E+00  0.67617425364E+02  0.67617425364E+02  0.00000000000E+00 0.  1.
         21   -1    0    0  501  502 -0.00000000000E+00 -0.00000000000E+00 -0.57769871878E+02  0.57769871878E+02  0.00000000000E+00 0.  1.
         25    1    1    2    0    0  0.00000000000E+00  0.00000000000E+00  0.98475534864E+01  0.12538729724E+03  0.12500000000E+03 0.  0.
<mgrwt>
<rscale>  0 0.12500000E+03</rscale>
<asrwt>0</asrwt>
<pdfrwt beam="1">  1       21 0.10402681E-01 0.12500000E+03</pdfrwt>
<pdfrwt beam="2">  1       21 0.88876726E-02 0.12500000E+03</pdfrwt>
<totfact> 0.73991197E+06</totfact>
</mgrwt>
</event>
<event>
 3    1  0.1603864E-001  0.1250000E+03  0.7546771E-02  0.1235069E+00
         21   -1    0    0  502  501  0.00000000000E+00  0.00000000000E+00  0.13103977751E+02  0.13103977751E+02  0.00000000000E+00 0. -1.
         21   -1    0    0  501  502 -0.00000000000E+00 -0.00000000000E+00 -0.29809650736E+03  0.29809650736E+03  0.00000000000E+00 0. -1.
         25    1    1    2    0    0  0.00000000000E+00  0.00000000000E+00 -0.28499252961E+03  0.31120048511E+03  0.12500000000E+03 0.  0.
<mgrwt>
<rscale>  0 0.12500000E+03</rscale>
<asrwt>0</asrwt>
<pdfrwt beam="1">  1       21 0.20159965E-02 0.12500000E+03</pdfrwt>
<pdfrwt beam="2">  1       21 0.45861003E-01 0.12500000E+03</pdfrwt>
<totfact> 0.54538025E+06</totfact>
</mgrwt>
</event>
<event>
 3    1  0.1603864E-001  0.1250000E+03  0.7546771E-02  0.1235069E+00
         21   -1    0    0  502  501  0.00000000000E+00  0.00000000000E+00  0.64927662100E+03  0.64927662100E+03  0.00000000000E+00 0. -1.
         21   -1    0    0  501  502 -0.00000000000E+00 -0.00000000000E+00 -0.60163108815E+01  0.60163108815E+01  0.00000000000E+00 0. -1.
         25    1    1    2    0    0  0.00000000000E+00  0.00000000000E+00  0.64326031012E+03  0.65529293188E+03  0.12500000000E+03 0.  0.
<mgrwt>
<rscale>  0 0.12500000E+03</rscale>
<asrwt>0</asrwt>
<pdfrwt beam="1">  1       21 0.99888656E-01 0.12500000E+03</pdfrwt>
<pdfrwt beam="2">  1       21 0.92558680E-03 0.12500000E+03</pdfrwt>
<totfact> 0.34705373E+06</totfact>
</mgrwt>
</event>
<event>
 3    1  0.1603864E-001  0.1250000E+03  0.7546771E-02  0.1235069E+00
         21   -1    0    0  502  501  0.00000000000E+00  0.00000000000E+00  0.21682784332E+03  0.21682784332E+03  0.00000000000E+00 0. -1.
         21   -1    0    0  501  502 -0.00000000000E+00 -0.00000000000E+00 -0.18015444605E+02  0.18015444605E+02  0.00000000000E+00 0. -1.
         25    1    1    2    0    0  0.00000000000E+00  0.00000000000E+00  0.19881239871E+03  0.23484328792E+03  0.12500000000E+03 0.  0.
<mgrwt>
<rscale>  0 0.12500000E+03</rscale>
<asrwt>0</asrwt>
<pdfrwt beam="1">  1       21 0.33358128E-01 0.12500000E+03</pdfrwt>
<pdfrwt beam="2">  1       21 0.27716070E-02 0.12500000E+03</pdfrwt>
<totfact> 0.61335266E+06</totfact>
</mgrwt>
</event>
<event>
 3    1  0.1603864E-001  0.1250000E+03  0.7546771E-02  0.1235069E+00
         21   -1    0    0  502  501  0.00000000000E+00  0.00000000000E+00  0.15089033558E+02  0.15089033558E+02  0.00000000000E+00 0.  1.
         21   -1    0    0  501  502 -0.00000000000E+00 -0.00000000000E+00 -0.25888006577E+03  0.25888006577E+03  0.00000000000E+00 0.  1.
         25    1    1    2    0    0  0.00000000000E+00  0.00000000000E+00 -0.24379103221E+03  0.27396909933E+03  0.12500000000E+03 0.  0.
<mgrwt>
<rscale>  0 0.12500000E+03</rscale>
<asrwt>0</asrwt>
<pdfrwt beam="1">  1       21 0.23213898E-02 0.12500000E+03</pdfrwt>
<pdfrwt beam="2">  1       21 0.39827703E-01 0.12500000E+03</pdfrwt>
<totfact> 0.57691280E+06</totfact>
</mgrwt>
</event>
<event>
 3    1  0.1603864E-001  0.1250000E+03  0.7546771E-02  0.1235069E+00
         21   -1    0    0  502  501  0.00000000000E+00  0.00000000000E+00  0.16526001231E+03  0.16526001231E+03  0.00000000000E+00 0.  1.
         21   -1    0    0  501  502 -0.00000000000E+00 -0.00000000000E+00 -0.23636994487E+02  0.23636994487E+02  0.00000000000E+00 0.  1.
         25    1    1    2    0    0  0.00000000000E+00  0.00000000000E+00  0.14162301782E+03  0.18889700680E+03  0.12500000000E+03 0.  0.
<mgrwt>
<rscale>  0 0.12500000E+03</rscale>
<asrwt>0</asrwt>
<pdfrwt beam="1">  1       21 0.25424617E-01 0.12500000E+03</pdfrwt>
<pdfrwt beam="2">  1       21 0.36364608E-02 0.12500000E+03</pdfrwt>
<totfact> 0.66145262E+06</totfact>
</mgrwt>
</event>
<event>
 3    1  0.1603864E-001  0.1250000E+03  0.7546771E-02  0.1235069E+00
         21   -1    0    0  502  501  0.00000000000E+00  0.00000000000E+00  0.32067932437E+03  0.32067932437E+03  0.00000000000E+00 0. -1.
         21   -1    0    0  501  502 -0.00000000000E+00 -0.00000000000E+00 -0.12181171978E+02  0.12181171978E+02  0.00000000000E+00 0. -1.
         25    1    1    2    0    0  0.00000000000E+00  0.00000000000E+00  0.30849815239E+03  0.33286049635E+03  0.12500000000E+03 0.  0.
<mgrwt>
<rscale>  0 0.12500000E+03</rscale>
<asrwt>0</asrwt>
<pdfrwt beam="1">  1       21 0.49335274E-01 0.12500000E+03</pdfrwt>
<pdfrwt beam="2">  1       21 0.18740267E-02 0.12500000E+03</pdfrwt>
<totfact> 0.52829697E+06</totfact>
</mgrwt>
</event>
<event>
 3    1  0.1603864E-001  0.1250000E+03  0.7546771E-02  0.1235069E+00
         21   -1    0    0  502  501  0.00000000000E+00  0.00000000000E+00  0.36104612313E+03  0.36104612313E+03  0.00000000000E+00 0. -1.
         21   -1    0    0  501  502 -0.00000000000E+00 -0.00000000000E+00 -0.10819254798E+02  0.10819254798E+02  0.00000000000E+00 0. -1.
         25    1    1    2    0    0  0.00000000000E+00  0.00000000000E+00  0.35022686834E+03  0.37186537793E+03  0.12500000000E+03 0.  0.
<mgrwt>
<rscale>  0 0.12500000E+03</rscale>
<asrwt>0</asrwt>
<pdfrwt beam="1">  1       21 0.55545548E-01 0.12500000E+03</pdfrwt>
<pdfrwt beam="2">  1       21 0.16645010E-02 0.12500000E+03</pdfrwt>
<totfact> 0.49963054E+06</totfact>
</mgrwt>
</event>
<event>
 3    1  0.1603864E-001  0.1250000E+03  0.7546771E-02  0.1235069E+00
         21   -1    0    0  502  501  0.00000000000E+00  0.00000000000E+00  0.18701652259E+03  0.18701652259E+03  0.00000000000E+00 0. -1.
         21   -1    0    0  501  502 -0.00000000000E+00 -0.00000000000E+00 -0.20887191923E+02  0.20887191923E+02  0.00000000000E+00 0. -1.
         25    1    1    2    0    0  0.00000000000E+00  0.00000000000E+00  0.16612933066E+03  0.20790371451E+03  0.12500000000E+03 0.  0.
<mgrwt>
<rscale>  0 0.12500000E+03</rscale>
<asrwt>0</asrwt>
<pdfrwt beam="1">  1       21 0.28771772E-01 0.12500000E+03</pdfrwt>
<pdfrwt beam="2">  1       21 0.32134143E-02 0.12500000E+03</pdfrwt>
<totfact> 0.64080766E+06</totfact>
</mgrwt>
</event>
<event>
 3    1  0.1603864E-001  0.1250000E+03  0.7546771E-02  0.1235069E+00
         21   -1    0    0  502  501  0.00000000000E+00  0.00000000000E+00  0.46135009258E+01  0.46135009258E+01  0.00000000000E+00 0. -1.
         21   -1    0    0  501  502 -0.00000000000E+00 -0.00000000000E+00 -0.84669973255E+03  0.84669973255E+03  0.00000000000E+00 0. -1.
         25    1    1    2    0    0  0.00000000000E+00  0.00000000000E+00 -0.84208623162E+03  0.85131323348E+03  0.12500000000E+03 0.  0.
<mgrwt>
<rscale>  0 0.12500000E+03</rscale>
<asrwt>0</asrwt>
<pdfrwt beam="1">  1       21 0.70976858E-03 0.12500000E+03</pdfrwt>
<pdfrwt beam="2">  1       21 0.13026164E+00 0.12500000E+03</pdfrwt>
<totfact> 0.27731614E+06</totfact>
</mgrwt>
</event>
<event>
 3    1  0.1603864E-001  0.1250000E+03  0.7546771E-02  0.1235069E+00
         21   -1    0    0  502  501  0.00000000000E+00  0.00000000000E+00  0.23952353756E+02  0.23952353756E+02  0.00000000000E+00 0.  1.
         21   -1    0    0  501  502 -0.00000000000E+00 -0.00000000000E+00 -0.16308418119E+03  0.16308418119E+03  0.00000000000E+00 0.  1.
         25    1    1    2    0    0  0.00000000000E+00  0.00000000000E+00 -0.13913182744E+03  0.18703653495E+03  0.12500000000E+03 0.  0.
<mgrwt>
<rscale>  0 0.12500000E+03</rscale>
<asrwt>0</asrwt>
<pdfrwt beam="1">  1       21 0.36849776E-02 0.12500000E+03</pdfrwt>
<pdfrwt beam="2">  1       21 0.25089873E-01 0.12500000E+03</pdfrwt>
<totfact> 0.66353350E+06</totfact>
</mgrwt>
</event>
<event>
 3    1  0.1603864E-001  0.1250000E+03  0.7546771E-02  0.1235069E+00
         21   -1    0    0  502  501  0.00000000000E+00  0.00000000000E+00  0.27877301100E+03  0.27877301100E+03  0.00000000000E+00 0. -1.
         21   -1    0    0  501  502 -0.00000000000E+00 -0.00000000000E+00 -0.14012296190E+02  0.14012296190E+02  0.00000000000E+00 0. -1.
         25    1    1    2    0    0  0.00000000000E+00  0.00000000000E+00  0.26476071481E+03  0.29278530719E+03  0.12500000000E+03 0.  0.
<mgrwt>
<rscale>  0 0.12500000E+03</rscale>
<asrwt>0</asrwt>
<pdfrwt beam="1">  1       21 0.42888151E-01 0.12500000E+03</pdfrwt>
<pdfrwt beam="2">  1       21 0.21557381E-02 0.12500000E+03</pdfrwt>
<totfact> 0.56061125E+06</totfact>
</mgrwt>
</event>
<event>
 3    1  0.1603864E-001  0.1250000E+03  0.7546771E-02  0.1235069E+00
         21   -1    0    0  502  501  0.00000000000E+00  0.00000000000E+00  0.27188719248E+02  0.27188719248E+02  0.00000000000E+00 0.  1.
         21   -1    0    0  501  502 -0.00000000000E+00 -0.00000000000E+00 -0.14367171783E+03  0.14367171783E+03  0.00000000000E+00 0.  1.
         25    1    1    2    0    0  0.00000000000E+00  0.00000000000E+00 -0.11648299858E+03  0.17086043708E+03  0.12500000000E+03 0.  0.
<mgrwt>
<rscale>  0 0.12500000E+03</rscale>
<asrwt>0</asrwt>
<pdfrwt beam="1">  1       21 0.41828799E-02 0.12500000E+03</pdfrwt>
<pdfrwt beam="2">  1       21 0.22103341E-01 0.12500000E+03</pdfrwt>
<totfact> 0.68215782E+06</totfact>
</mgrwt>
</event>
<event>
 3    1  0.1603864E-001  0.1250000E+03  0.7546771E-02  0.1235069E+00
         21   -1    0    0  502  501  0.00000000000E+00  0.00000000000E+00  0.10317649324E+03  0.10317649324E+03  0.00000000000E+00 0.  1.
         21   -1    0    0  501  502 -0.00000000000E+00 -0.00000000000E+00 -0.37859883364E+02  0.37859883364E+02  0.00000000000E+00 0.  1.
         25    1    1    2    0    0  0.00000000000E+00  0.00000000000E+00  0.65316609876E+02  0.14103637660E+03  0.12500000000E+03 0.  0.
<mgrwt>
<rscale>  0 0.12500000E+03</rscale>
<asrwt>0</asrwt>
<pdfrwt beam="1">  1       21 0.15873307E-01 0.12500000E+03</pdfrwt>
<pdfrwt beam="2">  1       21 0.58245975E-02 0.12500000E+03</pdfrwt>
<totfact> 0.71904299E+06</totfact>
</mgrwt>
</event>
<event>
 3    1  0.1603864E-001  0.1250000E+03  0.7546771E-02  0.1235069E+00
         21   -1    0    0  502  501  0.00000000000E+00  0.00000000000E+00  0.30709652861E+03  0.30709652861E+03  0.00000000000E+00 0.  1.
         21   -1    0    0  501  502 -0.00000000000E+00 -0.00000000000E+00 -0.12719941895E+02  0.12719941895E+02  0.00000000000E+00 0.  1.
         25    1    1    2    0    0  0.00000000000E+00  0.00000000000E+00  0.29437658672E+03  0.31981647051E+03  0.12500000000E+03 0.  0.
<mgrwt>
<rscale>  0 0.12500000E+03</rscale>
<asrwt>0</asrwt>
<pdfrwt beam="1">  1       21 0.47245614E-01 0.12500000E+03</pdfrwt>
<pdfrwt beam="2">  1       21 0.19569144E-02 0.12500000E+03</pdfrwt>
<totfact> 0.53847892E+06</totfact>
</mgrwt>
</event>
<event>
 3    1  0.1603864E-001  0.1250000E+03  0.7546771E-02  0.1235069E+00
         21   -1    0    0  502  501  0.00000000000E+00  0.00000000000E+00  0.47330164781E+03  0.47330164781E+03  0.00000000000E+00 0.  1.
         21   -1    0    0  501  502 -0.00000000000E+00 -0.00000000000E+00 -0.82531933241E+01  0.82531933241E+01  0.00000000000E+00 0.  1.
         25    1    1    2    0    0  0.00000000000E+00  0.00000000000E+00  0.46504845449E+03  0.48155484114E+03  0.12500000000E+03 0.  0.
<mgrwt>
<rscale>  0 0.12500000E+03</rscale>
<asrwt>0</asrwt>
<pdfrwt beam="1">  1       21 0.72815617E-01 0.12500000E+03</pdfrwt>
<pdfrwt beam="2">  1       21 0.12697224E-02 0.12500000E+03</pdfrwt>
<totfact> 0.43062396E+06</totfact>
</mgrwt>
</event>
<event>
 3    1  0.1603864E-001  0.1250000E+03  0.7546771E-02  0.1235069E+00
         21   -1    0    0  502  501  0.00000000000E+00  0.00000000000E+00  0.25132783353E+02  0.25132783353E+02  0.00000000000E+00 0.  1.
         21   -1    0    0  501  502 -0.00000000000E+00 -0.00000000000E+00 -0.15542448861E+03  0.15542448861E+03  0.00000000000E+00 0.  1.
         25    1    1    2    0    0  0.00000000000E+00  0.00000000000E+00 -0.13029170526E+03  0.18055727196E+03  0.12500000000E+03 0.  0.
<mgrwt>
<rscale>  0 0.12500000E+03</rscale>
<asrwt>0</asrwt>
<pdfrwt beam="1">  1       21 0.38665820E-02 0.12500000E+03</pdfrwt>
<pdfrwt beam="2">  1       21 0.23911460E-01 0.12500000E+03</pdfrwt>
<totfact> 0.67087665E+06</totfact>
</mgrwt>
</event>
<event>
 3    1  0.1603864E-001  0.1250000E+03  0.7546771E-02  0.1235069E+00
         21   -1    0    0  502  501  0.00000000000E+00  0.00000000000E+00  0.14157852865E+03  0.14157852865E+03  0.00000000000E+00 0.  1.
         21   -1    0    0  501  502 -0.00000000000E+00 -0.00000000000E+00 -0.27590694982E+02  0.27590694982E+02  0.00000000000E+00 0.  1.
         25    1    1    2    0    0  0.00000000000E+00  0.00000000000E+00  0.11398783367E+03  0.16916922363E+03  0.12500000000E+03 0.  0.
<mgrwt>
<rscale>  0 0.12500000E+03</rscale>
<asrwt>0</asrwt>
<pdfrwt beam="1">  1       21 0.21781312E-01 0.12500000E+03</pdfrwt>
<pdfrwt beam="2">  1       21 0.42447224E-02 0.12500000E+03</pdfrwt>
<totfact> 0.68416110E+06</totfact>
</mgrwt>
</event>
<event>
 3    1  0.1603864E-001  0.1250000E+03  0.7546771E-02  0.1235069E+00
         21   -1    0    0  502  501  0.00000000000E+00  0.00000000000E+00  0.82477753729E+02  0.82477753729E+02  0.00000000000E+00 0.  1.
         21   -1    0    0  501  502 -0.00000000000E+00 -0.00000000000E+00 -0.47361255895E+02  0.47361255895E+02  0.00000000000E+00 0.  1.
         25    1    1    2    0    0  0.00000000000E+00  0.00000000000E+00  0.35116497834E+02  0.12983900962E+03  0.12500000000E+03 0.  0.
<mgrwt>
<rscale>  0 0.12500000E+03</rscale>
<asrwt>0</asrwt>
<pdfrwt beam="1">  1       21 0.12688885E-01 0.12500000E+03</pdfrwt>
<pdfrwt beam="2">  1       21 0.72863471E-02 0.12500000E+03</pdfrwt>
<totfact> 0.73386439E+06</totfact>
</mgrwt>
</event>
<event>
 3    1  0.1603864E-001  0.1250000E+03  0.7546771E-02  0.1235069E+00
         21   -1    0    0  502  501  0.00000000000E+00  0.00000000000E+00  0.13866870697E+03  0.13866870697E+03  0.00000000000E+00 0. -1.
         21   -1    0    0  501  502 -0.00000000000E+00 -0.00000000000E+00 -0.28169657634E+02  0.28169657634E+02  0.00000000000E+00 0. -1.
         25    1    1    2    0    0  0.00000000000E+00  0.00000000000E+00  0.11049904934E+03  0.16683836461E+03  0.12500000000E+03 0.  0.
<mgrwt>
<rscale>  0 0.12500000E+03</rscale>
<asrwt>0</asrwt>
<pdfrwt beam="1">  1       21 0.21333647E-01 0.12500000E+03</pdfrwt>
<pdfrwt beam="2">  1       21 0.43337936E-02 0.12500000E+03</pdfrwt>
<totfact> 0.68693426E+06</totfact>
</mgrwt>
</event>
<event>
 3    1  0.1603864E-001  0.1250000E+03  0.7546771E-02  0.1235069E+00
         21   -1    0    0  502  501  0.00000000000E+00  0.00000000000E+00  0.11324590515E+03  0.11324590515E+03  0.00000000000E+00 0.  1.
         21   -1    0    0  501  502 -0.00000000000E+00 -0.00000000000E+00 -0.34493520935E+02  0.34493520935E+02  0.00000000000E+00 0.  1.
         25    1    1    2    0    0  0.00000000000E+00  0.00000000000E+00  0.78752384213E+02  0.14773942608E+03  0.12500000000E+03 0.  0.
<mgrwt>
<rscale>  0 0.12500000E+03</rscale>
<asrwt>0</asrwt>
<pdfrwt beam="1">  1       21 0.17422447E-01 0.12500000E+03</pdfrwt>
<pdfrwt beam="2">  1       21 0.53066956E-02 0.12500000E+03</pdfrwt>
<totfact> 0.71044338E+06</totfact>
</mgrwt>
</event>
<event>
 3    1  0.1603864E-001  0.1250000E+03  0.7546771E-02  0.1235069E+00
         21   -1    0    0  502  501  0.00000000000E+00  0.00000000000E+00  0.57784456705E+02  0.57784456705E+02  0.00000000000E+00 0.  1.
         21   -1    0    0  501  502 -0.00000000000E+00 -0.00000000000E+00 -0.67600358691E+02  0.67600358691E+02  0.00000000000E+00 0.  1.
         25    1    1    2    0    0  0.00000000000E+00  0.00000000000E+00 -0.98159019858E+01  0.12538481540E+03  0.12500000000E+03 0.  0.
<mgrwt>
<rscale>  0 0.12500000E+03</rscale>
<asrwt>0</asrwt>
<pdfrwt beam="1">  1       21 0.88899164E-02 0.12500000E+03</pdfrwt>
<pdfrwt beam="2">  1       21 0.10400055E-01 0.12500000E+03</pdfrwt>
<totfact> 0.73991547E+06</totfact>
</mgrwt>
</event>
<event>
 3    1  0.1603864E-001  0.1250000E+03  0.7546771E-02  0.1235069E+00
         21   -1    0    0  502  501  0.00000000000E+00  0.00000000000E+00  0.73513710670E+01  0.73513710670E+01  0.00000000000E+00 0. -1.
         21   -1    0    0  501  502 -0.00000000000E+00 -0.00000000000E+00 -0.53136346464E+03  0.53136346464E+03  0.00000000000E+00 0. -1.
         25    1    1    2    0    0  0.00000000000E+00  0.00000000000E+00 -0.52401209357E+03  0.53871483571E+03  0.12500000000E+03 0.  0.
<mgrwt>
<rscale>  0 0.12500000E+03</rscale>
<asrwt>0</asrwt>
<pdfrwt beam="1">  1       21 0.11309799E-02 0.12500000E+03</pdfrwt>
<pdfrwt beam="2">  1       21 0.81748245E-01 0.12500000E+03</pdfrwt>
<totfact> 0.40019403E+06</totfact>
</mgrwt>
</event>
<event>
 3    1  0.1603864E-001  0.1250000E+03  0.7546771E-02  0.1235069E+00
         21   -1    0    0  502  501  0.00000000000E+00  0.00000000000E+00  0.91789379997E+03  0.91789379997E+03  0.00000000000E+00 0. -1.
         21   -1    0    0  501  502 -0.00000000000E+00 -0.00000000000E+00 -0.42556666143E+01  0.42556666143E+01  0.00000000000E+00 0. -1.
         25    1    1    2    0    0  0.00000000000E+00  0.00000000000E+00  0.91363813336E+03  0.92214946659E+03  0.12500000000E+03 0.  0.
<mgrwt>
<rscale>  0 0.12500000E+03</rscale>
<asrwt>0</asrwt>
<pdfrwt beam="1">  1       21 0.14121427E+00 0.12500000E+03</pdfrwt>
<pdfrwt beam="2">  1       21 0.65471867E-03 0.12500000E+03</pdfrwt>
<totfact> 0.25672194E+06</totfact>
</mgrwt>
</event>
<event>
 3    1  0.1603864E-001  0.1250000E+03  0.7546771E-02  0.1235069E+00
         21   -1    0    0  502  501  0.00000000000E+00  0.00000000000E+00  0.62950443636E+02  0.62950443636E+02  0.00000000000E+00 0. -1.
         21   -1    0    0  501  502 -0.00000000000E+00 -0.00000000000E+00 -0.62052779526E+02  0.62052779526E+02  0.00000000000E+00 0. -1.
         25    1    1    2    0    0  0.00000000000E+00  0.00000000000E+00  0.89766411086E+00  0.12500322316E+03  0.12500000000E+03 0.  0.
<mgrwt>
<rscale>  0 0.12500000E+03</rscale>
<asrwt>0</asrwt>
<pdfrwt beam="1">  1       21 0.96846837E-02 0.12500000E+03</pdfrwt>
<pdfrwt beam="2">  1       21 0.95465814E-02 0.12500000E+03</pdfrwt>
<totfact> 0.74043146E+06</totfact>
</mgrwt>
</event>
<event>
 3    1  0.1603864E-001  0.1250000E+03  0.7546771E-02  0.1235069E+00
         21   -1    0    0  502  501  0.00000000000E+00  0.00000000000E+00  0.41216336650E+03  0.41216336650E+03  0.00000000000E+00 0.  1.
         21   -1    0    0  501  502 -0.00000000000E+00 -0.00000000000E+00 -0.94774313234E+01  0.94774313234E+01  0.00000000000E+00 0.  1.
         25    1    1    2    0    0  0.00000000000E+00  0.00000000000E+00  0.40268593518E+03  0.42164079782E+03  0.12500000000E+03 0.  0.
<mgrwt>
<rscale>  0 0.12500000E+03</rscale>
<asrwt>0</asrwt>
<pdfrwt beam="1">  1       21 0.63409735E-01 0.12500000E+03</pdfrwt>
<pdfrwt beam="2">  1       21 0.14580667E-02 0.12500000E+03</pdfrwt>
<totfact> 0.46638307E+06</totfact>
</mgrwt>
</event>
<event>
 3    1  0.1603864E-001  0.1250000E+03  0.7546771E-02  0.1235069E+00
         21   -1    0    0  502  501  0.00000000000E+00  0.00000000000E+00  0.12458200243E+04  0.12458200243E+04  0.00000000000E+00 0. -1.
         21   -1    0    0  501  502 -0.00000000000E+00 -0.00000000000E+00 -0.31354850008E+01  0.31354850008E+01  0.00000000000E+00 0. -1.
         25    1    1    2    0    0  0.00000000000E+00  0.00000000000E+00  0.12426845393E+04  0.12489555093E+04  0.12500000000E+03 0.  0.
<mgrwt>
<rscale>  0 0.12500000E+03</rscale>
<asrwt>0</asrwt>
<pdfrwt beam="1">  1       21 0.19166422E+00 0.12500000E+03</pdfrwt>
<pdfrwt beam="2">  1       21 0.48238331E-03 0.12500000E+03</pdfrwt>
<totfact> 0.18194330E+06</totfact>
</mgrwt>
</event>
<event>
 3    1  0.1603864E-001  0.1250000E+03  0.7546771E-02  0.1235069E+00
         21   -1    0    0  502  501  0.00000000000E+00  0.00000000000E+00  0.13629014211E+03  0.13629014211E+03  0.00000000000E+00 0.  1.
         21   -1    0    0  501  502 -0.00000000000E+00 -0.00000000000E+00 -0.28661280556E+02  0.28661280556E+02  0.00000000000E+00 0.  1.
         25    1    1    2    0    0  0.00000000000E+00  0.00000000000E+00  0.10762886155E+03  0.16495142266E+03  0.12500000000E+03 0.  0.
<mgrwt>
<rscale>  0 0.12500000E+03</rscale>
<asrwt>0</asrwt>
<pdfrwt beam="1">  1       21 0.20967714E-01 0.12500000E+03</pdfrwt>
<pdfrwt beam="2">  1       21 0.44094279E-02 0.12500000E+03</pdfrwt>
<totfact> 0.68919490E+06</totfact>
</mgrwt>
</event>
<event>
 3    1  0.1603864E-001  0.1250000E+03  0.7546771E-02  0.1235069E+00
         21   -1    0    0  502  501  0.00000000000E+00  0.00000000000E+00  0.37530175121E+03  0.37530175121E+03  0.00000000000E+00 0.  1.
         21   -1    0    0  501  502 -0.00000000000E+00 -0.00000000000E+00 -0.10408291428E+02  0.10408291428E+02  0.00000000000E+00 0.  1.
         25    1    1    2    0    0  0.00000000000E+00  0.00000000000E+00  0.36489345979E+03  0.38571004264E+03  0.12500000000E+03 0.  0.
<mgrwt>
<rscale>  0 0.12500000E+03</rscale>
<asrwt>0</asrwt>
<pdfrwt beam="1">  1       21 0.57738721E-01 0.12500000E+03</pdfrwt>
<pdfrwt beam="2">  1       21 0.16012759E-02 0.12500000E+03</pdfrwt>
<totfact> 0.49003863E+06</totfact>
</mgrwt>
</event>
<event>
 3    1  0.1603864E-001  0.1250000E+03  0.7546771E-02  0.1235069E+00
         21   -1    0    0  502  501  0.00000000000E+00  0.00000000000E+00  0.78268108538E+01  0.78268108538E+01  0.00000000000E+00 0.  1.
         21   -1    0    0  501  502 -0.00000000000E+00 -0.00000000000E+00 -0.49908578002E+03  0.49908578002E+03  0.00000000000E+00 0.  1.
         25    1    1    2    0    0  0.00000000000E+00  0.00000000000E+00 -0.49125896916E+03  0.50691259087E+03  0.12500000000E+03 0.  0.
<mgrwt>
<rscale>  0 0.12500000E+03</rscale>
<asrwt>0</asrwt>
<pdfrwt beam="1">  1       21 0.12041245E-02 0.12500000E+03</pdfrwt>
<pdfrwt beam="2">  1       21 0.76782445E-01 0.12500000E+03</pdfrwt>
<totfact> 0.41671643E+06</totfact>
</mgrwt>
</event>
<event>
 3    1  0.1603864E-001  0.1250000E+03  0.7546771E-02  0.1235069E+00
         21   -1    0    0  502  501  0.00000000000E+00  0.00000000000E+00  0.14973014275E+03  0.14973014275E+03  0.00000000000E+00 0.  1.
         21   -1    0    0  501  502 -0.00000000000E+00 -0.00000000000E+00 -0.26088601322E+02  0.26088601322E+02  0.00000000000E+00 0.  1.
         25    1    1    2    0    0  0.00000000000E+00  0.00000000000E+00  0.12364154142E+03  0.17581874407E+03  0.12500000000E+03 0.  0.
<mgrwt>
<rscale>  0 0.12500000E+03</rscale>
<asrwt>0</asrwt>
<pdfrwt beam="1">  1       21 0.23035406E-01 0.12500000E+03</pdfrwt>
<pdfrwt beam="2">  1       21 0.40136311E-02 0.12500000E+03</pdfrwt>
<totfact> 0.67634464E+06</totfact>
</mgrwt>
</event>
<event>
 3    1  0.1603864E-001  0.1250000E+03  0.7546771E-02  0.1235069E+00
         21   -1    0    0  502  501  0.00000000000E+00  0.00000000000E+00  0.12260644839E+02  0.12260644839E+02  0.00000000000E+00 0. -1.
         21   -1    0    0  501  502 -0.00000000000E+00 -0.00000000000E+00 -0.31860069769E+03  0.31860069769E+03  0.00000000000E+00 0. -1.
         25    1    1    2    0    0  0.00000000000E+00  0.00000000000E+00 -0.30634005285E+03  0.33086134253E+03  0.12500000000E+03 0.  0.
<mgrwt>
<rscale>  0 0.12500000E+03</rscale>
<asrwt>0</asrwt>
<pdfrwt beam="1">  1       21 0.18862533E-02 0.12500000E+03</pdfrwt>
<pdfrwt beam="2">  1       21 0.49015486E-01 0.12500000E+03</pdfrwt>
<totfact> 0.52983709E+06</totfact>
</mgrwt>
</event>
<event>
 3    1  0.1603864E-001  0.1250000E+03  0.7546771E-02  0.1235069E+00
         21   -1    0    0  502  501  0.00000000000E+00  0.00000000000E+00  0.35499358525E+02  0.35499358525E+02  0.00000000000E+00 0.  1.
         21   -1    0    0  501  502 -0.00000000000E+00 -0.00000000000E+00 -0.11003719961E+03  0.11003719961E+03  0.00000000000E+00 0.  1.
         25    1    1    2    0    0  0.00000000000E+00  0.00000000000E+00 -0.74537841083E+02  0.14553655813E+03  0.12500000000E+03 0.  0.
<mgrwt>
<rscale>  0 0.12500000E+03</rscale>
<asrwt>0</asrwt>
<pdfrwt beam="1">  1       21 0.54614398E-02 0.12500000E+03</pdfrwt>
<pdfrwt beam="2">  1       21 0.16928800E-01 0.12500000E+03</pdfrwt>
<totfact> 0.71324503E+06</totfact>
</mgrwt>
</event>
<event>
 3    1  0.1603864E-001  0.1250000E+03  0.7546771E-02  0.1235069E+00
         21   -1    0    0  502  501  0.00000000000E+00  0.00000000000E+00  0.28807778582E+02  0.28807778582E+02  0.00000000000E+00 0. -1.
         21   -1    0    0  501  502 -0.00000000000E+00 -0.00000000000E+00 -0.13559705719E+03  0.13559705719E+03  0.00000000000E+00 0. -1.
         25    1    1    2    0    0  0.00000000000E+00  0.00000000000E+00 -0.10678927861E+03  0.16440483577E+03  0.12500000000E+03 0.  0.
<mgrwt>
<rscale>  0 0.12500000E+03</rscale>
<asrwt>0</asrwt>
<pdfrwt beam="1">  1       21 0.44319658E-02 0.12500000E+03</pdfrwt>
<pdfrwt beam="2">  1       21 0.20861086E-01 0.12500000E+03</pdfrwt>
<totfact> 0.68985238E+06</totfact>
</mgrwt>
</event>
<event>
 3    1  0.1603864E-001  0.1250000E+03  0.7546771E-02  0.1235069E+00
         21   -1    0    0  502  501  0.00000000000E+00  0.00000000000E+00  0.32129474714E+02  0.32129474714E+02  0.00000000000E+00 0.  1.
         21   -1    0    0  501  502 -0.00000000000E+00 -0.00000000000E+00 -0.12157839600E+03  0.12157839600E+03  0.00000000000E+00 0.  1.
         25    1    1    2    0    0  0.00000000000E+00  0.00000000000E+00 -0.89448921283E+02  0.15370787071E+03  0.12500000000E+03 0.  0.
<mgrwt>
<rscale>  0 0.12500000E+03</rscale>
<asrwt>0</asrwt>
<pdfrwt beam="1">  1       21 0.49429961E-02 0.12500000E+03</pdfrwt>
<pdfrwt beam="2">  1       21 0.18704369E-01 0.12500000E+03</pdfrwt>
<totfact> 0.70296473E+06</totfact>
</mgrwt>
</event>
<event>
 3    1  0.1603864E-001  0.1250000E+03  0.7546771E-02  0.1235069E+00
         21   -1    0    0  502  501  0.00000000000E+00  0.00000000000E+00  0.97046156514E+03  0.97046156514E+03  0.00000000000E+00 0.  1.
         21   -1    0    0  501  502 -0.00000000000E+00 -0.00000000000E+00 -0.40251465285E+01  0.40251465285E+01  0.00000000000E+00 0.  1.
         25    1    1    2    0    0  0.00000000000E+00  0.00000000000E+00  0.96643641861E+03  0.97448671167E+03  0.12500000000E+03 0.  0.
<mgrwt>
<rscale>  0 0.12500000E+03</rscale>
<asrwt>0</asrwt>
<pdfrwt beam="1">  1       21 0.14930159E+00 0.12500000E+03</pdfrwt>
<pdfrwt beam="2">  1       21 0.61925408E-03 0.12500000E+03</pdfrwt>
<totfact> 0.24267100E+06</totfact>
</mgrwt>
</event>
<event>
 3    1  0.1603864E-001  0.1250000E+03  0.7546771E-02  0.1235069E+00
         21   -1    0    0  502  501  0.00000000000E+00  0.00000000000E+00  0.11251717227E+03  0.11251717227E+03  0.00000000000E+00 0. -1.
         21   -1    0    0  501  502 -0.00000000000E+00 -0.00000000000E+00 -0.34716922948E+02  0.34716922948E+02  0.00000000000E+00 0. -1.
         25    1    1    2    0    0  0.00000000000E+00  0.00000000000E+00  0.77800249322E+02  0.14723409522E+03  0.12500000000E+03 0.  0.
<mgrwt>
<rscale>  0 0.12500000E+03</rscale>
<asrwt>0</asrwt>
<pdfrwt beam="1">  1       21 0.17310334E-01 0.12500000E+03</pdfrwt>
<pdfrwt beam="2">  1       21 0.53410651E-02 0.12500000E+03</pdfrwt>
<totfact> 0.71108403E+06</totfact>
</mgrwt>
</event>
<event>
 3    1  0.1603864E-001  0.1250000E+03  0.7546771E-02  0.1235069E+00
         21   -1    0    0  502  501  0.00000000000E+00  0.00000000000E+00  0.44292427684E+03  0.44292427684E+03  0.00000000000E+00 0. -1.
         21   -1    0    0  501  502 -0.00000000000E+00 -0.00000000000E+00 -0.88192275841E+01  0.88192275841E+01  0.00000000000E+00 0. -1.
         25    1    1    2    0    0  0.00000000000E+00  0.00000000000E+00  0.43410504926E+03  0.45174350443E+03  0.12500000000E+03 0.  0.
<mgrwt>
<rscale>  0 0.12500000E+03</rscale>
<asrwt>0</asrwt>
<pdfrwt beam="1">  1       21 0.68142179E-01 0.12500000E+03</pdfrwt>
<pdfrwt beam="2">  1       21 0.13568046E-02 0.12500000E+03</pdfrwt>
<totfact> 0.44788132E+06</totfact>
</mgrwt>
</event>
<event>
 3    1  0.1603864E-001  0.1250000E+03  0.7546771E-02  0.1235069E+00
         21   -1    0    0  502  501  0.00000000000E+00  0.00000000000E+00  0.30650136846E+01  0.30650136846E+01  0.00000000000E+00 0. -1.
         21   -1    0    0  501  502 -0.00000000000E+00 -0.00000000000E+00 -0.12744641303E+04  0.12744641303E+04  0.00000000000E+00 0. -1.
         25    1    1    2    0    0  0.00000000000E+00  0.00000000000E+00 -0.12713991167E+04  0.12775291440E+04  0.12500000000E+03 0.  0.
<mgrwt>
<rscale>  0 0.12500000E+03</rscale>
<asrwt>0</asrwt>
<pdfrwt beam="1">  1       21 0.47154122E-03 0.12500000E+03</pdfrwt>
<pdfrwt beam="2">  1       21 0.19607113E+00 0.12500000E+03</pdfrwt>
<totfact> 0.17660736E+06</totfact>
</mgrwt>
</event>
<event>
 3    1  0.1603864E-001  0.1250000E+03  0.7546771E-02  0.1235069E+00
         21   -1    0    0  502  501  0.00000000000E+00  0.00000000000E+00  0.62855962437E+02  0.62855962437E+02  0.00000000000E+00 0. -1.
         21   -1    0    0  501  502 -0.00000000000E+00 -0.00000000000E+00 -0.62146053430E+02  0.62146053430E+02  0.00000000000E+00 0. -1.
         25    1    1    2    0    0  0.00000000000E+00  0.00000000000E+00  0.70990900705E+00  0.12500201587E+03  0.12500000000E+03 0.  0.
<mgrwt>
<rscale>  0 0.12500000E+03</rscale>
<asrwt>0</asrwt>
<pdfrwt beam="1">  1       21 0.96701482E-02 0.12500000E+03</pdfrwt>
<pdfrwt beam="2">  1       21 0.95609312E-02 0.12500000E+03</pdfrwt>
<totfact> 0.74043309E+06</totfact>
</mgrwt>
</event>
<event>
 3    1  0.1603864E-001  0.1250000E+03  0.7546771E-02  0.1235069E+00
         21   -1    0    0  502  501  0.00000000000E+00  0.00000000000E+00  0.65503935408E+02  0.65503935408E+02  0.00000000000E+00 0.  1.
         21   -1    0    0  501  502 -0.00000000000E+00 -0.00000000000E+00 -0.59633821627E+02  0.59633821627E+02  0.00000000000E+00 0.  1.
         25    1    1    2    0    0  0.00000000000E+00  0.00000000000E+00  0.58701137808E+01  0.12513775704E+03  0.12500000000E+03 0.  0.
<mgrwt>
<rscale>  0 0.12500000E+03</rscale>
<asrwt>0</asrwt>
<pdfrwt beam="1">  1       21 0.10077529E-01 0.12500000E+03</pdfrwt>
<pdfrwt beam="2">  1       21 0.91744341E-02 0.12500000E+03</pdfrwt>
<totfact> 0.74024977E+06</totfact>
</mgrwt>
</event>
<event>
 3    1  0.1603864E-001  0.1250000E+03  0.7546771E-02  0.1235069E+00
         21   -1    0    0  502  501  0.00000000000E+00  0.00000000000E+00  0.23137942998E+02  0.23137942998E+02  0.00000000000E+00 0. -1.
         21   -1    0    0  501  502 -0.00000000000E+00 -0.00000000000E+00 -0.16882442836E+03  0.16882442836E+03  0.00000000000E+00 0. -1.
         25    1    1    2    0    0  0.00000000000E+00  0.00000000000E+00 -0.14568648536E+03  0.19196237135E+03  0.12500000000E+03 0.  0.
<mgrwt>
<rscale>  0 0.12500000E+03</rscale>
<asrwt>0</asrwt>
<pdfrwt beam="1">  1       21 0.35596834E-02 0.12500000E+03</pdfrwt>
<pdfrwt beam="2">  1       21 0.25972990E-01 0.12500000E+03</pdfrwt>
<totfact> 0.65805026E+06</totfact>
</mgrwt>
</event>
<event>
 3    1  0.1603864E-001  0.1250000E+03  0.7546771E-02  0.1235069E+00
         21   -1    0    0  502  501  0.00000000000E+00  0.00000000000E+00  0.35358294204E+01  0.35358294204E+01  0.00000000000E+00 0.  1.
         21   -1    0    0  501  502 -0.00000000000E+00 -0.00000000000E+00 -0.11047620051E+04  0.11047620051E+04  0.00000000000E+00 0.  1.
         25    1    1    2    0    0  0.00000000000E+00  0.00000000000E+00 -0.11012261756E+04  0.11082978345E+04  0.12500000000E+03 0.  0.
<mgrwt>
<rscale>  0 0.12500000E+03</rscale>
<asrwt>0</asrwt>
<pdfrwt beam="1">  1       21 0.54397433E-03 0.12500000E+03</pdfrwt>
<pdfrwt beam="2">  1       21 0.16996321E+00 0.12500000E+03</pdfrwt>
<totfact> 0.21067831E+06</totfact>
</mgrwt>
</event>
<event>
 3    1  0.1603864E-001  0.1250000E+03  0.7546771E-02  0.1235069E+00
         21   -1    0    0  502  501  0.00000000000E+00  0.00000000000E+00  0.14883410510E+03  0.14883410510E+03  0.00000000000E+00 0.  1.
         21   -1    0    0  501  502 -0.00000000000E+00 -0.00000000000E+00 -0.26245664576E+02  0.26245664576E+02  0.00000000000E+00 0.  1.
         25    1    1    2    0    0  0.00000000000E+00  0.00000000000E+00  0.12258844053E+03  0.17507976968E+03  0.12500000000E+03 0.  0.
<mgrwt>
<rscale>  0 0.12500000E+03</rscale>
<asrwt>0</asrwt>
<pdfrwt beam="1">  1       21 0.22897554E-01 0.12500000E+03</pdfrwt>
<pdfrwt beam="2">  1       21 0.40377946E-02 0.12500000E+03</pdfrwt>
<totfact> 0.67720502E+06</totfact>
</mgrwt>
</event>
<event>
 3    1  0.1603864E-001  0.1250000E+03  0.7546771E-02  0.1235069E+00
         21   -1    0    0  502  501  0.00000000000E+00  0.00000000000E+00  0.60916698141E+02  0.60916698141E+02  0.00000000000E+00 0.  1.
         21   -1    0    0  501  502 -0.00000000000E+00 -0.00000000000E+00 -0.64124453873E+02  0.64124453873E+02  0.00000000000E+00 0.  1.
         25    1    1    2    0    0  0.00000000000E+00  0.00000000000E+00 -0.32077557319E+01  0.12504115201E+03  0.12500000000E+03 0.  0.
<mgrwt>
<rscale>  0 0.12500000E+03</rscale>
<asrwt>0</asrwt>
<pdfrwt beam="1">  1       21 0.93717997E-02 0.12500000E+03</pdfrwt>
<pdfrwt beam="2">  1       21 0.98653006E-02 0.12500000E+03</pdfrwt>
<totfact> 0.74038023E+06</totfact>
</mgrwt>
</event>
<event>
 3    1  0.1603864E-001  0.1250000E+03  0.7546771E-02  0.1235069E+00
         21   -1    0    0  502  501  0.00000000000E+00  0.00000000000E+00  0.11244621631E+03  0.11244621631E+03  0.00000000000E+00 0. -1.
         21   -1    0    0  501  502 -0.00000000000E+00 -0.00000000000E+00 -0.34738830065E+02  0.34738830065E+02  0.00000000000E+00 0. -1.
         25    1    1    2    0    0  0.00000000000E+00  0.00000000000E+00  0.77707386250E+02  0.14718504638E+03  0.12500000000E+03 0.  0.
<mgrwt>
<rscale>  0 0.12500000E+03</rscale>
<asrwt>0</asrwt>
<pdfrwt beam="1">  1       21 0.17299418E-01 0.12500000E+03</pdfrwt>
<pdfrwt beam="2">  1       21 0.53444355E-02 0.12500000E+03</pdfrwt>
<totfact> 0.71114628E+06</totfact>
</mgrwt>
</event>
<event>
 3    1  0.1603864E-001  0.1250000E+03  0.7546771E-02  0.1235069E+00
         21   -1    0    0  502  501  0.00000000000E+00  0.00000000000E+00  0.45477051390E+02  0.45477051390E+02  0.00000000000E+00 0. -1.
         21   -1    0    0  501  502 -0.00000000000E+00 -0.00000000000E+00 -0.85894970774E+02  0.85894970774E+02  0.00000000000E+00 0. -1.
         25    1    1    2    0    0  0.00000000000E+00  0.00000000000E+00 -0.40417919384E+02  0.13137202216E+03  0.12500000000E+03 0.  0.
<mgrwt>
<rscale>  0 0.12500000E+03</rscale>
<asrwt>0</asrwt>
<pdfrwt beam="1">  1       21 0.69964695E-02 0.12500000E+03</pdfrwt>
<pdfrwt beam="2">  1       21 0.13214611E-01 0.12500000E+03</pdfrwt>
<totfact> 0.73180582E+06</totfact>
</mgrwt>
</event>
<event>
 3    1  0.1603864E-001  0.1250000E+03  0.7546771E-02  0.1235069E+00
         21   -1    0    0  502  501  0.00000000000E+00  0.00000000000E+00  0.56619159312E+02  0.56619159312E+02  0.00000000000E+00 0.  1.
         21   -1    0    0  501  502 -0.00000000000E+00 -0.00000000000E+00 -0.68991663731E+02  0.68991663731E+02  0.00000000000E+00 0.  1.
         25    1    1    2    0    0  0.00000000000E+00  0.00000000000E+00 -0.12372504419E+02  0.12561082304E+03  0.12500000000E+03 0.  0.
<mgrwt>
<rscale>  0 0.12500000E+03</rscale>
<asrwt>0</asrwt>
<pdfrwt beam="1">  1       21 0.87106399E-02 0.12500000E+03</pdfrwt>
<pdfrwt beam="2">  1       21 0.10614102E-01 0.12500000E+03</pdfrwt>
<totfact> 0.73959935E+06</totfact>
</mgrwt>
</event>
<event>
 3    1  0.1603864E-001  0.1250000E+03  0.7546771E-02  0.1235069E+00
         21   -1    0    0  502  501  0.00000000000E+00  0.00000000000E+00  0.23931525308E+03  0.23931525308E+03  0.00000000000E+00 0. -1.
         21   -1    0    0  501  502 -0.00000000000E+00 -0.00000000000E+00 -0.16322611909E+02  0.16322611909E+02  0.00000000000E+00 0. -1.
         25    1    1    2    0    0  0.00000000000E+00  0.00000000000E+00  0.22299264117E+03  0.25563786499E+03  0.12500000000E+03 0.  0.
<mgrwt>
<rscale>  0 0.12500000E+03</rscale>
<asrwt>0</asrwt>
<pdfrwt beam="1">  1       21 0.36817729E-01 0.12500000E+03</pdfrwt>
<pdfrwt beam="2">  1       21 0.25111712E-02 0.12500000E+03</pdfrwt>
<totfact> 0.59351417E+06</totfact>
</mgrwt>
</event>
<event>
 3    1  0.1603864E-001  0.1250000E+03  0.7546771E-02  0.1235069E+00
         21   -1    0    0  502  501  0.00000000000E+00  0.00000000000E+00  0.10363692249E+04  0.10363692249E+04  0.00000000000E+00 0.  1.
         21   -1    0    0  501  502 -0.00000000000E+00 -0.00000000000E+00 -0.37691682713E+01  0.37691682713E+01  0.00000000000E+00 0.  1.
         25    1    1    2    0    0  0.00000000000E+00  0.00000000000E+00  0.10326000567E+04  0.10401383932E+04  0.12500000000E+03 0.  0.
<mgrwt>
<rscale>  0 0.12500000E+03</rscale>
<asrwt>0</asrwt>
<pdfrwt beam="1">  1       21 0.15944119E+00 0.12500000E+03</pdfrwt>
<pdfrwt beam="2">  1       21 0.57987286E-03 0.12500000E+03</pdfrwt>
<totfact> 0.22634135E+06</totfact>
</mgrwt>
</event>
<event>
 3    1  0.1603864E-001  0.1250000E+03  0.7546771E-02  0.1235069E+00
         21   -1    0    0  502  501  0.00000000000E+00  0.00000000000E+00  0.20098451390E+03  0.20098451390E+03  0.00000000000E+00 0.  1.
         21   -1    0    0  501  502 -0.00000000000E+00 -0.00000000000E+00 -0.19435577022E+02  0.19435577022E+02  0.00000000000E+00 0.  1.
         25    1    1    2    0    0  0.00000000000E+00  0.00000000000E+00  0.18154893687E+03  0.22042009092E+03  0.12500000000E+03 0.  0.
<mgrwt>
<rscale>  0 0.12500000E+03</rscale>
<asrwt>0</asrwt>
<pdfrwt beam="1">  1       21 0.30920693E-01 0.12500000E+03</pdfrwt>
<pdfrwt beam="2">  1       21 0.29900889E-02 0.12500000E+03</pdfrwt>
<totfact> 0.62779623E+06</totfact>
</mgrwt>
</event>
<event>
 3    1  0.1603864E-001  0.1250000E+03  0.7546771E-02  0.1235069E+00
         21   -1    0    0  502  501  0.00000000000E+00  0.00000000000E+00  0.11121295648E+03  0.11121295648E+03  0.00000000000E+00 0. -1.
         21   -1    0    0  501  502 -0.00000000000E+00 -0.00000000000E+00 -0.35124055000E+02  0.35124055000E+02  0.00000000000E+00 0. -1.
         25    1    1    2    0    0  0.00000000000E+00  0.00000000000E+00  0.76088901479E+02  0.14633701148E+03  0.12500000000E+03 0.  0.
<mgrwt>
<rscale>  0 0.12500000E+03</rscale>
<asrwt>0</asrwt>
<pdfrwt beam="1">  1       21 0.17109685E-01 0.12500000E+03</pdfrwt>
<pdfrwt beam="2">  1       21 0.54037008E-02 0.12500000E+03</pdfrwt>
<totfact> 0.71222431E+06</totfact>
</mgrwt>
</event>
<event>
 3    1  0.1603864E-001  0.1250000E+03  0.7546771E-02  0.1235069E+00
         21   -1    0    0  502  501  0.00000000000E+00  0.00000000000E+00  0.10857191867E+03  0.10857191867E+03  0.00000000000E+00 0. -1.
         21   -1    0    0  501  502 -0.00000000000E+00 -0.00000000000E+00 -0.35978456010E+02  0.35978456010E+02  0.00000000000E+00 0. -1.
         25    1    1    2    0    0  0.00000000000E+00  0.00000000000E+00  0.72593462665E+02  0.14455037469E+03  0.12500000000E+03 0.  0.
<mgrwt>
<rscale>  0 0.12500000E+03</rscale>
<asrwt>0</asrwt>
<pdfrwt beam="1">  1       21 0.16703372E-01 0.12500000E+03</pdfrwt>
<pdfrwt beam="2">  1       21 0.55351471E-02 0.12500000E+03</pdfrwt>
<totfact> 0.71450689E+06</totfact>
</mgrwt>
</event>
<event>
 3    1  0.1603864E-001  0.1250000E+03  0.7546771E-02  0.1235069E+00
         21   -1    0    0  502  501  0.00000000000E+00  0.00000000000E+00  0.14184525358E+03  0.14184525358E+03  0.00000000000E+00 0. -1.
         21   -1    0    0  501  502 -0.00000000000E+00 -0.00000000000E+00 -0.27538813611E+02  0.27538813611E+02  0.00000000000E+00 0. -1.
         25    1    1    2    0    0  0.00000000000E+00  0.00000000000E+00  0.11430643997E+03  0.16938406719E+03  0.12500000000E+03 0.  0.
<mgrwt>
<rscale>  0 0.12500000E+03</rscale>
<asrwt>0</asrwt>
<pdfrwt beam="1">  1       21 0.21822346E-01 0.12500000E+03</pdfrwt>
<pdfrwt beam="2">  1       21 0.42367406E-02 0.12500000E+03</pdfrwt>
<totfact> 0.68390655E+06</totfact>
</mgrwt>
</event>
<event>
 3    1  0.1603864E-001  0.1250000E+03  0.7546771E-02  0.1235069E+00
         21   -1    0    0  502  501  0.00000000000E+00  0.00000000000E+00  0.33414445279E+02  0.33414445279E+02  0.00000000000E+00 0. -1.
         21   -1    0    0  501  502 -0.00000000000E+00 -0.00000000000E+00 -0.11690303302E+03  0.11690303302E+03  0.00000000000E+00 0. -1.
         25    1    1    2    0    0  0.00000000000E+00  0.00000000000E+00 -0.83488587745E+02  0.15031747830E+03  0.12500000000E+03 0.  0.
<mgrwt>
<rscale>  0 0.12500000E+03</rscale>
<asrwt>0</asrwt>
<pdfrwt beam="1">  1       21 0.51406837E-02 0.12500000E+03</pdfrwt>
<pdfrwt beam="2">  1       21 0.17985083E-01 0.12500000E+03</pdfrwt>
<totfact> 0.70719342E+06</totfact>
</mgrwt>
</event>
<event>
 3    1  0.1603864E-001  0.1250000E+03  0.7546771E-02  0.1235069E+00
         21   -1    0    0  502  501  0.00000000000E+00  0.00000000000E+00  0.22815145709E+03  0.22815145709E+03  0.00000000000E+00 0. -1.
         21   -1    0    0  501  502 -0.00000000000E+00 -0.00000000000E+00 -0.17121302006E+02  0.17121302006E+02  0.00000000000E+00 0. -1.
         25    1    1    2    0    0  0.00000000000E+00  0.00000000000E+00  0.21103015508E+03  0.24527275909E+03  0.12500000000E+03 0.  0.
<mgrwt>
<rscale>  0 0.12500000E+03</rscale>
<asrwt>0</asrwt>
<pdfrwt beam="1">  1       21 0.35100222E-01 0.12500000E+03</pdfrwt>
<pdfrwt beam="2">  1       21 0.26340466E-02 0.12500000E+03</pdfrwt>
<totfact> 0.60326130E+06</totfact>
</mgrwt>
</event>
<event>
 3    1  0.1603864E-001  0.1250000E+03  0.7546771E-02  0.1235069E+00
         21   -1    0    0  502  501  0.00000000000E+00  0.00000000000E+00  0.24070565214E+02  0.24070565214E+02  0.00000000000E+00 0.  1.
         21   -1    0    0  501  502 -0.00000000000E+00 -0.00000000000E+00 -0.16228326860E+03  0.16228326860E+03  0.00000000000E+00 0.  1.
         25    1    1    2    0    0  0.00000000000E+00  0.00000000000E+00 -0.13821270339E+03  0.18635383382E+03  0.12500000000E+03 0.  0.
<mgrwt>
<rscale>  0 0.12500000E+03</rscale>
<asrwt>0</asrwt>
<pdfrwt beam="1">  1       21 0.37031639E-02 0.12500000E+03</pdfrwt>
<pdfrwt beam="2">  1       21 0.24966656E-01 0.12500000E+03</pdfrwt>
<totfact> 0.66430013E+06</totfact>
</mgrwt>
</event>
<event>
 3    1  0.1603864E-001  0.1250000E+03  0.7546771E-02  0.1235069E+00
         21   -1    0    0  502  501  0.00000000000E+00  0.00000000000E+00  0.84215734665E+02  0.84215734665E+02  0.00000000000E+00 0.  1.
         21   -1    0    0  501  502 -0.00000000000E+00 -0.00000000000E+00 -0.46383849948E+02  0.46383849948E+02  0.00000000000E+00 0.  1.
         25    1    1    2    0    0  0.00000000000E+00  0.00000000000E+00  0.37831884717E+02  0.13059958461E+03  0.12500000000E+03 0.  0.
<mgrwt>
<rscale>  0 0.12500000E+03</rscale>
<asrwt>0</asrwt>
<pdfrwt beam="1">  1       21 0.12956267E-01 0.12500000E+03</pdfrwt>
<pdfrwt beam="2">  1       21 0.71359769E-02 0.12500000E+03</pdfrwt>
<totfact> 0.73284682E+06</totfact>
</mgrwt>
</event>
<event>
 3    1  0.1603864E-001  0.1250000E+03  0.7546771E-02  0.1235069E+00
         21   -1    0    0  502  501  0.00000000000E+00  0.00000000000E+00  0.33253124528E+02  0.33253124528E+02  0.00000000000E+00 0.  1.
         21   -1    0    0  501  502 -0.00000000000E+00 -0.00000000000E+00 -0.11747016425E+03  0.11747016425E+03  0.00000000000E+00 0.  1.
         25    1    1    2    0    0  0.00000000000E+00  0.00000000000E+00 -0.84217039720E+02  0.15072328878E+03  0.12500000000E+03 0.  0.
<mgrwt>
<rscale>  0 0.12500000E+03</rscale>
<asrwt>0</asrwt>
<pdfrwt beam="1">  1       21 0.51158654E-02 0.12500000E+03</pdfrwt>
<pdfrwt beam="2">  1       21 0.18072333E-01 0.12500000E+03</pdfrwt>
<totfact> 0.70668461E+06</totfact>
</mgrwt>
</event>
<event>
 3    1  0.1603864E-001  0.1250000E+03  0.7546771E-02  0.1235069E+00
         21   -1    0    0  502  501  0.00000000000E+00  0.00000000000E+00  0.69041033723E+01  0.69041033723E+01  0.00000000000E+00 0. -1.
         21   -1    0    0  501  502 -0.00000000000E+00 -0.00000000000E+00 -0.56578671977E+03  0.56578671977E+03  0.00000000000E+00 0. -1.
         25    1    1    2    0    0  0.00000000000E+00  0.00000000000E+00 -0.55888261640E+03  0.57269082315E+03  0.12500000000E+03 0.  0.
<mgrwt>
<rscale>  0 0.12500000E+03</rscale>
<asrwt>0</asrwt>
<pdfrwt beam="1">  1       21 0.10621699E-02 0.12500000E+03</pdfrwt>
<pdfrwt beam="2">  1       21 0.87044095E-01 0.12500000E+03</pdfrwt>
<totfact> 0.38357518E+06</totfact>
</mgrwt>
</event>
<event>
 3    1  0.1603864E-001  0.1250000E+03  0.7546771E-02  0.1235069E+00
         21   -1    0    0  502  501  0.00000000000E+00  0.00000000000E+00  0.19911356188E+03  0.19911356188E+03  0.00000000000E+00 0.  1.
         21   -1    0    0  501  502 -0.00000000000E+00 -0.00000000000E+00 -0.19618201608E+02  0.19618201608E+02  0.00000000000E+00 0.  1.
         25    1    1    2    0    0  0.00000000000E+00  0.00000000000E+00  0.17949536028E+03  0.21873176349E+03  0.12500000000E+03 0.  0.
<mgrwt>
<rscale>  0 0.12500000E+03</rscale>
<asrwt>0</asrwt>
<pdfrwt beam="1">  1       21 0.30632854E-01 0.12500000E+03</pdfrwt>
<pdfrwt beam="2">  1       21 0.30181850E-02 0.12500000E+03</pdfrwt>
<totfact> 0.62952402E+06</totfact>
</mgrwt>
</event>
<event>
 3    1  0.1603864E-001  0.1250000E+03  0.7546771E-02  0.1235069E+00
         21   -1    0    0  502  501  0.00000000000E+00  0.00000000000E+00  0.17179912191E+02  0.17179912191E+02  0.00000000000E+00 0.  1.
         21   -1    0    0  501  502 -0.00000000000E+00 -0.00000000000E+00 -0.22737310625E+03  0.22737310625E+03  0.00000000000E+00 0.  1.
         25    1    1    2    0    0  0.00000000000E+00  0.00000000000E+00 -0.21019319406E+03  0.24455301844E+03  0.12500000000E+03 0.  0.
<mgrwt>
<rscale>  0 0.12500000E+03</rscale>
<asrwt>0</asrwt>
<pdfrwt beam="1">  1       21 0.26430634E-02 0.12500000E+03</pdfrwt>
<pdfrwt beam="2">  1       21 0.34980478E-01 0.12500000E+03</pdfrwt>
<totfact> 0.60394839E+06</totfact>
</mgrwt>
</event>
<event>
 3    1  0.1603864E-001  0.1250000E+03  0.7546771E-02  0.1235069E+00
         21   -1    0    0  502  501  0.00000000000E+00  0.00000000000E+00  0.27823513306E+01  0.27823513306E+01  0.00000000000E+00 0.  1.
         21   -1    0    0  501  502 -0.00000000000E+00 -0.00000000000E+00 -0.14039384448E+04  0.14039384448E+04  0.00000000000E+00 0.  1.
         25    1    1    2    0    0  0.00000000000E+00  0.00000000000E+00 -0.14011560935E+04  0.14067207962E+04  0.12500000000E+03 0.  0.
<mgrwt>
<rscale>  0 0.12500000E+03</rscale>
<asrwt>0</asrwt>
<pdfrwt beam="1">  1       21 0.42805238E-03 0.12500000E+03</pdfrwt>
<pdfrwt beam="2">  1       21 0.21599137E+00 0.12500000E+03</pdfrwt>
<totfact> 0.15435666E+06</totfact>
</mgrwt>
</event>
<event>
 3    1  0.1603864E-001  0.1250000E+03  0.7546771E-02  0.1235069E+00
         21   -1    0    0  502  501  0.00000000000E+00  0.00000000000E+00  0.17963467805E+02  0.17963467805E+02  0.00000000000E+00 0.  1.
         21   -1    0    0  501  502 -0.00000000000E+00 -0.00000000000E+00 -0.21745522872E+03  0.21745522872E+03  0.00000000000E+00 0.  1.
         25    1    1    2    0    0  0.00000000000E+00  0.00000000000E+00 -0.19949176091E+03  0.23541869652E+03  0.12500000000E+03 0.  0.
<mgrwt>
<rscale>  0 0.12500000E+03</rscale>
<asrwt>0</asrwt>
<pdfrwt beam="1">  1       21 0.27636106E-02 0.12500000E+03</pdfrwt>
<pdfrwt beam="2">  1       21 0.33454649E-01 0.12500000E+03</pdfrwt>
<totfact> 0.61278824E+06</totfact>
</mgrwt>
</event>
<event>
 3    1  0.1603864E-001  0.1250000E+03  0.7546771E-02  0.1235069E+00
         21   -1    0    0  502  501  0.00000000000E+00  0.00000000000E+00  0.65299413993E+02  0.65299413993E+02  0.00000000000E+00 0.  1.
         21   -1    0    0  501  502 -0.00000000000E+00 -0.00000000000E+00 -0.59820598090E+02  0.59820598090E+02  0.00000000000E+00 0.  1.
         25    1    1    2    0    0  0.00000000000E+00  0.00000000000E+00  0.54788159033E+01  0.12512001208E+03  0.12500000000E+03 0.  0.
<mgrwt>
<rscale>  0 0.12500000E+03</rscale>
<asrwt>0</asrwt>
<pdfrwt beam="1">  1       21 0.10046064E-01 0.12500000E+03</pdfrwt>
<pdfrwt beam="2">  1       21 0.92031688E-02 0.12500000E+03</pdfrwt>
<totfact> 0.74027373E+06</totfact>
</mgrwt>
</event>
<event>
 3    1  0.1603864E-001  0.1250000E+03  0.7546771E-02  0.1235069E+00
         21   -1    0    0  502  501  0.00000000000E+00  0.00000000000E+00  0.39164246898E+01  0.39164246898E+01  0.00000000000E+00 0.  1.
         21   -1    0    0  501  502 -0.00000000000E+00 -0.00000000000E+00 -0.99740204635E+03  0.99740204635E+03  0.00000000000E+00 0.  1.
         25    1    1    2    0    0  0.00000000000E+00  0.00000000000E+00 -0.99348562166E+03  0.10013184710E+04  0.12500000000E+03 0.  0.
<mgrwt>
<rscale>  0 0.12500000E+03</rscale>
<asrwt>0</asrwt>
<pdfrwt beam="1">  1       21 0.60252712E-03 0.12500000E+03</pdfrwt>
<pdfrwt beam="2">  1       21 0.15344641E+00 0.12500000E+03</pdfrwt>
<totfact> 0.23585800E+06</totfact>
</mgrwt>
</event>
<event>
 3    1  0.1603864E-001  0.1250000E+03  0.7546771E-02  0.1235069E+00
         21   -1    0    0  502  501  0.00000000000E+00  0.00000000000E+00  0.41782425854E+02  0.41782425854E+02  0.00000000000E+00 0.  1.
         21   -1    0    0  501  502 -0.00000000000E+00 -0.00000000000E+00 -0.93490263434E+02  0.93490263434E+02  0.00000000000E+00 0.  1.
         25    1    1    2    0    0  0.00000000000E+00  0.00000000000E+00 -0.51707837581E+02  0.13527268929E+03  0.12500000000E+03 0.  0.
<mgrwt>
<rscale>  0 0.12500000E+03</rscale>
<asrwt>0</asrwt>
<pdfrwt beam="1">  1       21 0.64280656E-02 0.12500000E+03</pdfrwt>
<pdfrwt beam="2">  1       21 0.14383117E-01 0.12500000E+03</pdfrwt>
<totfact> 0.72660386E+06</totfact>
</mgrwt>
</event>
<event>
 3    1  0.1603864E-001  0.1250000E+03  0.7546771E-02  0.1235069E+00
         21   -1    0    0  502  501  0.00000000000E+00  0.00000000000E+00  0.11635130321E+04  0.11635130321E+04  0.00000000000E+00 0.  1.
         21   -1    0    0  501  502 -0.00000000000E+00 -0.00000000000E+00 -0.33572894262E+01  0.33572894262E+01  0.00000000000E+00 0.  1.
         25    1    1    2    0    0  0.00000000000E+00  0.00000000000E+00  0.11601557427E+04  0.11668703216E+04  0.12500000000E+03 0.  0.
<mgrwt>
<rscale>  0 0.12500000E+03</rscale>
<asrwt>0</asrwt>
<pdfrwt beam="1">  1       21 0.17900168E+00 0.12500000E+03</pdfrwt>
<pdfrwt beam="2">  1       21 0.51650699E-03 0.12500000E+03</pdfrwt>
<totfact> 0.19816413E+06</totfact>
</mgrwt>
</event>
<event>
 3    1  0.1603864E-001  0.1250000E+03  0.7546771E-02  0.1235069E+00
         21   -1    0    0  502  501  0.00000000000E+00  0.00000000000E+00  0.31978383208E+02  0.31978383208E+02  0.00000000000E+00 0.  1.
         21   -1    0    0  501  502 -0.00000000000E+00 -0.00000000000E+00 -0.12215282976E+03  0.12215282976E+03  0.00000000000E+00 0.  1.
         25    1    1    2    0    0  0.00000000000E+00  0.00000000000E+00 -0.90174446550E+02  0.15413121297E+03  0.12500000000E+03 0.  0.
<mgrwt>
<rscale>  0 0.12500000E+03</rscale>
<asrwt>0</asrwt>
<pdfrwt beam="1">  1       21 0.49197513E-02 0.12500000E+03</pdfrwt>
<pdfrwt beam="2">  1       21 0.18792743E-01 0.12500000E+03</pdfrwt>
<totfact> 0.70243799E+06</totfact>
</mgrwt>
</event>
<event>
 3    1  0.1603864E-001  0.1250000E+03  0.7546771E-02  0.1235069E+00
         21   -1    0    0  502  501  0.00000000000E+00  0.00000000000E+00  0.14629348133E+02  0.14629348133E+02  0.00000000000E+00 0. -1.
         21   -1    0    0  501  502 -0.00000000000E+00 -0.00000000000E+00 -0.26701463144E+03  0.26701463144E+03  0.00000000000E+00 0. -1.
         25    1    1    2    0    0  0.00000000000E+00  0.00000000000E+00 -0.25238528331E+03  0.28164397958E+03  0.12500000000E+03 0.  0.
<mgrwt>
<rscale>  0 0.12500000E+03</rscale>
<asrwt>0</asrwt>
<pdfrwt beam="1">  1       21 0.22506692E-02 0.12500000E+03</pdfrwt>
<pdfrwt beam="2">  1       21 0.41079170E-01 0.12500000E+03</pdfrwt>
<totfact> 0.57016987E+06</totfact>
</mgrwt>
</event>
<event>
 3    1  0.1603864E-001  0.1250000E+03  0.7546771E-02  0.1235069E+00
         21   -1    0    0  502  501  0.00000000000E+00  0.00000000000E+00  0.56658824510E+02  0.56658824510E+02  0.00000000000E+00 0.  1.
         21   -1    0    0  501  502 -0.00000000000E+00 -0.00000000000E+00 -0.68943364670E+02  0.68943364670E+02  0.00000000000E+00 0.  1.
         25    1    1    2    0    0  0.00000000000E+00  0.00000000000E+00 -0.12284540160E+02  0.12560218918E+03  0.12500000000E+03 0.  0.
<mgrwt>
<rscale>  0 0.12500000E+03</rscale>
<asrwt>0</asrwt>
<pdfrwt beam="1">  1       21 0.87167422E-02 0.12500000E+03</pdfrwt>
<pdfrwt beam="2">  1       21 0.10606671E-01 0.12500000E+03</pdfrwt>
<totfact> 0.73961138E+06</totfact>
</mgrwt>
</event>
<event>
 3    1  0.1603864E-001  0.1250000E+03  0.7546771E-02  0.1235069E+00
         21   -1    0    0  502  501  0.00000000000E+00  0.00000000000E+00  0.47224046422E+01  0.47224046422E+01  0.00000000000E+00 0.  1.
         21   -1    0    0  501  502 -0.00000000000E+00 -0.00000000000E+00 -0.82717392852E+03  0.82717392852E+03  0.00000000000E+00 0.  1.
         25    1    1    2    0    0  0.00000000000E+00  0.00000000000E+00 -0.82245152388E+03  0.83189633317E+03  0.12500000000E+03 0.  0.
<mgrwt>
<rscale>  0 0.12500000E+03</rscale>
<asrwt>0</asrwt>
<pdfrwt beam="1">  1       21 0.72652367E-03 0.12500000E+03</pdfrwt>
<pdfrwt beam="2">  1       21 0.12725755E+00 0.12500000E+03</pdfrwt>
<totfact> 0.28332927E+06</totfact>
</mgrwt>
</event>
<event>
 3    1  0.1603864E-001  0.1250000E+03  0.7546771E-02  0.1235069E+00
         21   -1    0    0  502  501  0.00000000000E+00  0.00000000000E+00  0.10979523962E+02  0.10979523962E+02  0.00000000000E+00 0. -1.
         21   -1    0    0  501  502 -0.00000000000E+00 -0.00000000000E+00 -0.35577589827E+03  0.35577589827E+03  0.00000000000E+00 0. -1.
         25    1    1    2    0    0  0.00000000000E+00  0.00000000000E+00 -0.34479637430E+03  0.36675542223E+03  0.12500000000E+03 0.  0.
<mgrwt>
<rscale>  0 0.12500000E+03</rscale>
<asrwt>0</asrwt>
<pdfrwt beam="1">  1       21 0.16891576E-02 0.12500000E+03</pdfrwt>
<pdfrwt beam="2">  1       21 0.54734753E-01 0.12500000E+03</pdfrwt>
<totfact> 0.50324306E+06</totfact>
</mgrwt>
</event>
<event>
 3    1  0.1603864E-001  0.1250000E+03  0.7546771E-02  0.1235069E+00
         21   -1    0    0  502  501  0.00000000000E+00  0.00000000000E+00  0.13021812828E+03  0.13021812828E+03  0.00000000000E+00 0. -1.
         21   -1    0    0  501  502 -0.00000000000E+00 -0.00000000000E+00 -0.29997743415E+02  0.29997743415E+02  0.00000000000E+00 0. -1.
         25    1    1    2    0    0  0.00000000000E+00  0.00000000000E+00  0.10022038486E+03  0.16021587169E+03  0.12500000000E+03 0.  0.
<mgrwt>
<rscale>  0 0.12500000E+03</rscale>
<asrwt>0</asrwt>
<pdfrwt beam="1">  1       21 0.20033558E-01 0.12500000E+03</pdfrwt>
<pdfrwt beam="2">  1       21 0.46150375E-02 0.12500000E+03</pdfrwt>
<totfact> 0.69493128E+06</totfact>
</mgrwt>
</event>
<event>
 3    1  0.1603864E-001  0.1250000E+03  0.7546771E-02  0.1235069E+00
         21   -1    0    0  502  501  0.00000000000E+00  0.00000000000E+00  0.82444501782E+02  0.82444501782E+02  0.00000000000E+00 0. -1.
         21   -1    0    0  501  502 -0.00000000000E+00 -0.00000000000E+00 -0.47380357884E+02  0.47380357884E+02  0.00000000000E+00 0. -1.
         25    1    1    2    0    0  0.00000000000E+00  0.00000000000E+00  0.35064143899E+02  0.12982485967E+03  0.12500000000E+03 0.  0.
<mgrwt>
<rscale>  0 0.12500000E+03</rscale>
<asrwt>0</asrwt>
<pdfrwt beam="1">  1       21 0.12683770E-01 0.12500000E+03</pdfrwt>
<pdfrwt beam="2">  1       21 0.72892858E-02 0.12500000E+03</pdfrwt>
<totfact> 0.73388331E+06</totfact>
</mgrwt>
</event>
<event>
 3    1  0.1603864E-001  0.1250000E+03  0.7546771E-02  0.1235069E+00
         21   -1    0    0  502  501  0.00000000000E+00  0.00000000000E+00  0.27557993668E+03  0.27557993668E+03  0.00000000000E+00 0.  1.
         21   -1    0    0  501  502 -0.00000000000E+00 -0.00000000000E+00 -0.14174653086E+02  0.14174653086E+02  0.00000000000E+00 0.  1.
         25    1    1    2    0    0  0.00000000000E+00  0.00000000000E+00  0.26140528359E+03  0.28975458976E+03  0.12500000000E+03 0.  0.
<mgrwt>
<rscale>  0 0.12500000E+03</rscale>
<asrwt>0</asrwt>
<pdfrwt beam="1">  1       21 0.42396910E-01 0.12500000E+03</pdfrwt>
<pdfrwt beam="2">  1       21 0.21807161E-02 0.12500000E+03</pdfrwt>
<totfact> 0.56318503E+06</totfact>
</mgrwt>
</event>
<event>
 3    1  0.1603864E-001  0.1250000E+03  0.7546771E-02  0.1235069E+00
         21   -1    0    0  502  501  0.00000000000E+00  0.00000000000E+00  0.19594535276E+02  0.19594535276E+02  0.00000000000E+00 0. -1.
         21   -1    0    0  501  502 -0.00000000000E+00 -0.00000000000E+00 -0.19935405178E+03  0.19935405178E+03  0.00000000000E+00 0. -1.
         25    1    1    2    0    0  0.00000000000E+00  0.00000000000E+00 -0.17975951651E+03  0.21894858706E+03  0.12500000000E+03 0.  0.
<mgrwt>
<rscale>  0 0.12500000E+03</rscale>
<asrwt>0</asrwt>
<pdfrwt beam="1">  1       21 0.30145441E-02 0.12500000E+03</pdfrwt>
<pdfrwt beam="2">  1       21 0.30669852E-01 0.12500000E+03</pdfrwt>
<totfact> 0.62930167E+06</totfact>
</mgrwt>
</event>
<event>
 3    1  0.1603864E-001  0.1250000E+03  0.7546771E-02  0.1235069E+00
         21   -1    0    0  502  501  0.00000000000E+00  0.00000000000E+00  0.80021380332E+02  0.80021380332E+02  0.00000000000E+00 0.  1.
         21   -1    0    0  501  502 -0.00000000000E+00 -0.00000000000E+00 -0.48815078968E+02  0.48815078968E+02  0.00000000000E+00 0.  1.
         25    1    1    2    0    0  0.00000000000E+00  0.00000000000E+00  0.31206301364E+02  0.12883645930E+03  0.12500000000E+03 0.  0.
<mgrwt>
<rscale>  0 0.12500000E+03</rscale>
<asrwt>0</asrwt>
<pdfrwt beam="1">  1       21 0.12310982E-01 0.12500000E+03</pdfrwt>
<pdfrwt beam="2">  1       21 0.75100122E-02 0.12500000E+03</pdfrwt>
<totfact> 0.73520854E+06</totfact>
</mgrwt>
</event>
<event>
 3    1  0.1603864E-001  0.1250000E+03  0.7546771E-02  0.1235069E+00
         21   -1    0    0  502  501  0.00000000000E+00  0.00000000000E+00  0.19433559821E+02  0.19433559821E+02  0.00000000000E+00 0.  1.
         21   -1    0    0  501  502 -0.00000000000E+00 -0.00000000000E+00 -0.20100537606E+03  0.20100537606E+03  0.00000000000E+00 0.  1.
         25    1    1    2    0    0  0.00000000000E+00  0.00000000000E+00 -0.18157181624E+03  0.22043893588E+03  0.12500000000E+03 0.  0.
<mgrwt>
<rscale>  0 0.12500000E+03</rscale>
<asrwt>0</asrwt>
<pdfrwt beam="1">  1       21 0.29897784E-02 0.12500000E+03</pdfrwt>
<pdfrwt beam="2">  1       21 0.30923904E-01 0.12500000E+03</pdfrwt>
<totfact> 0.62777698E+06</totfact>
</mgrwt>
</event>
<event>
 3    1  0.1603864E-001  0.1250000E+03  0.7546771E-02  0.1235069E+00
         21   -1    0    0  502  501  0.00000000000E+00  0.00000000000E+00  0.11743283839E+04  0.11743283839E+04  0.00000000000E+00 0.  1.
         21   -1    0    0  501  502 -0.00000000000E+00 -0.00000000000E+00 -0.33263693984E+01  0.33263693984E+01  0.00000000000E+00 0.  1.
         25    1    1    2    0    0  0.00000000000E+00  0.00000000000E+00  0.11710020145E+04  0.11776547533E+04  0.12500000000E+03 0.  0.
<mgrwt>
<rscale>  0 0.12500000E+03</rscale>
<asrwt>0</asrwt>
<pdfrwt beam="1">  1       21 0.18066557E+00 0.12500000E+03</pdfrwt>
<pdfrwt beam="2">  1       21 0.51175007E-03 0.12500000E+03</pdfrwt>
<totfact> 0.19594494E+06</totfact>
</mgrwt>
</event>
<event>
 3    1  0.1603864E-001  0.1250000E+03  0.7546771E-02  0.1235069E+00
         21   -1    0    0  502  501  0.00000000000E+00  0.00000000000E+00  0.20398182949E+03  0.20398182949E+03  0.00000000000E+00 0. -1.
         21   -1    0    0  501  502 -0.00000000000E+00 -0.00000000000E+00 -0.19149990025E+02  0.19149990025E+02  0.00000000000E+00 0. -1.
         25    1    1    2    0    0  0.00000000000E+00  0.00000000000E+00  0.18483183946E+03  0.22313181951E+03  0.12500000000E+03 0.  0.
<mgrwt>
<rscale>  0 0.12500000E+03</rscale>
<asrwt>0</asrwt>
<pdfrwt beam="1">  1       21 0.31381818E-01 0.12500000E+03</pdfrwt>
<pdfrwt beam="2">  1       21 0.29461525E-02 0.12500000E+03</pdfrwt>
<totfact> 0.62503849E+06</totfact>
</mgrwt>
</event>
<event>
 3    1  0.1603864E-001  0.1250000E+03  0.7546771E-02  0.1235069E+00
         21   -1    0    0  502  501  0.00000000000E+00  0.00000000000E+00  0.67260561648E+01  0.67260561648E+01  0.00000000000E+00 0.  1.
         21   -1    0    0  501  502 -0.00000000000E+00 -0.00000000000E+00 -0.58076380933E+03  0.58076380933E+03  0.00000000000E+00 0.  1.
         25    1    1    2    0    0  0.00000000000E+00  0.00000000000E+00 -0.57403775316E+03  0.58748986549E+03  0.12500000000E+03 0.  0.
<mgrwt>
<rscale>  0 0.12500000E+03</rscale>
<asrwt>0</asrwt>
<pdfrwt beam="1">  1       21 0.10347784E-02 0.12500000E+03</pdfrwt>
<pdfrwt beam="2">  1       21 0.89348229E-01 0.12500000E+03</pdfrwt>
<totfact> 0.37664580E+06</totfact>
</mgrwt>
</event>
<event>
 3    1  0.1603864E-001  0.1250000E+03  0.7546771E-02  0.1235069E+00
         21   -1    0    0  502  501  0.00000000000E+00  0.00000000000E+00  0.21338930721E+04  0.21338930721E+04  0.00000000000E+00 0.  1.
         21   -1    0    0  501  502 -0.00000000000E+00 -0.00000000000E+00 -0.18305743859E+01  0.18305743859E+01  0.00000000000E+00 0.  1.
         25    1    1    2    0    0  0.00000000000E+00  0.00000000000E+00  0.21320624977E+04  0.21357236465E+04  0.12500000000E+03 0.  0.
<mgrwt>
<rscale>  0 0.12500000E+03</rscale>
<asrwt>0</asrwt>
<pdfrwt beam="1">  1       21 0.32828925E+00 0.12500000E+03</pdfrwt>
<pdfrwt beam="2">  1       21 0.28162854E-03 0.12500000E+03</pdfrwt>
<totfact> 0.66988913E+05</totfact>
</mgrwt>
</event>
<event>
 3    1  0.1603864E-001  0.1250000E+03  0.7546771E-02  0.1235069E+00
         21   -1    0    0  502  501  0.00000000000E+00  0.00000000000E+00  0.27142833281E+01  0.27142833281E+01  0.00000000000E+00 0.  1.
         21   -1    0    0  501  502 -0.00000000000E+00 -0.00000000000E+00 -0.14391460020E+04  0.14391460020E+04  0.00000000000E+00 0.  1.
         25    1    1    2    0    0  0.00000000000E+00  0.00000000000E+00 -0.14364317187E+04  0.14418602854E+04  0.12500000000E+03 0.  0.
<mgrwt>
<rscale>  0 0.12500000E+03</rscale>
<asrwt>0</asrwt>
<pdfrwt beam="1">  1       21 0.41758273E-03 0.12500000E+03</pdfrwt>
<pdfrwt beam="2">  1       21 0.22140672E+00 0.12500000E+03</pdfrwt>
<totfact> 0.14877354E+06</totfact>
</mgrwt>
</event>
<event>
 3    1  0.1603864E-001  0.1250000E+03  0.7546771E-02  0.1235069E+00
         21   -1    0    0  502  501  0.00000000000E+00  0.00000000000E+00  0.38074091658E+02  0.38074091658E+02  0.00000000000E+00 0. -1.
         21   -1    0    0  501  502 -0.00000000000E+00 -0.00000000000E+00 -0.10259601293E+03  0.10259601293E+03  0.00000000000E+00 0. -1.
         25    1    1    2    0    0  0.00000000000E+00  0.00000000000E+00 -0.64521921272E+02  0.14067010459E+03  0.12500000000E+03 0.  0.
<mgrwt>
<rscale>  0 0.12500000E+03</rscale>
<asrwt>0</asrwt>
<pdfrwt beam="1">  1       21 0.58575526E-02 0.12500000E+03</pdfrwt>
<pdfrwt beam="2">  1       21 0.15784002E-01 0.12500000E+03</pdfrwt>
<totfact> 0.71951948E+06</totfact>
</mgrwt>
</event>
<event>
 3    1  0.1603864E-001  0.1250000E+03  0.7546771E-02  0.1235069E+00
         21   -1    0    0  502  501  0.00000000000E+00  0.00000000000E+00  0.43530000051E+02  0.43530000051E+02  0.00000000000E+00 0. -1.
         21   -1    0    0  501  502 -0.00000000000E+00 -0.00000000000E+00 -0.89736962909E+02  0.89736962909E+02  0.00000000000E+00 0. -1.
         25    1    1    2    0    0  0.00000000000E+00  0.00000000000E+00 -0.46206962858E+02  0.13326696296E+03  0.12500000000E+03 0.  0.
<mgrwt>
<rscale>  0 0.12500000E+03</rscale>
<asrwt>0</asrwt>
<pdfrwt beam="1">  1       21 0.66969232E-02 0.12500000E+03</pdfrwt>
<pdfrwt beam="2">  1       21 0.13805686E-01 0.12500000E+03</pdfrwt>
<totfact> 0.72926770E+06</totfact>
</mgrwt>
</event>
<event>
 3    1  0.1603864E-001  0.1250000E+03  0.7546771E-02  0.1235069E+00
         21   -1    0    0  502  501  0.00000000000E+00  0.00000000000E+00  0.12173365472E+02  0.12173365472E+02  0.00000000000E+00 0. -1.
         21   -1    0    0  501  502 -0.00000000000E+00 -0.00000000000E+00 -0.32088496883E+03  0.32088496883E+03  0.00000000000E+00 0. -1.
         25    1    1    2    0    0  0.00000000000E+00  0.00000000000E+00 -0.30871160336E+03  0.33305833430E+03  0.12500000000E+03 0.  0.
<mgrwt>
<rscale>  0 0.12500000E+03</rscale>
<asrwt>0</asrwt>
<pdfrwt beam="1">  1       21 0.18728252E-02 0.12500000E+03</pdfrwt>
<pdfrwt beam="2">  1       21 0.49366925E-01 0.12500000E+03</pdfrwt>
<totfact> 0.52814489E+06</totfact>
</mgrwt>
</event>
<event>
 3    1  0.1603864E-001  0.1250000E+03  0.7546771E-02  0.1235069E+00
         21   -1    0    0  502  501  0.00000000000E+00  0.00000000000E+00  0.10533610469E+02  0.10533610469E+02  0.00000000000E+00 0. -1.
         21   -1    0    0  501  502 -0.00000000000E+00 -0.00000000000E+00 -0.37083676213E+03  0.37083676213E+03  0.00000000000E+00 0. -1.
         25    1    1    2    0    0  0.00000000000E+00  0.00000000000E+00 -0.36030315166E+03  0.38137037260E+03  0.12500000000E+03 0.  0.
<mgrwt>
<rscale>  0 0.12500000E+03</rscale>
<asrwt>0</asrwt>
<pdfrwt beam="1">  1       21 0.16205559E-02 0.12500000E+03</pdfrwt>
<pdfrwt beam="2">  1       21 0.57051795E-01 0.12500000E+03</pdfrwt>
<totfact> 0.49301867E+06</totfact>
</mgrwt>
</event>
<event>
 3    1  0.1603864E-001  0.1250000E+03  0.7546771E-02  0.1235069E+00
         21   -1    0    0  502  501  0.00000000000E+00  0.00000000000E+00  0.40589095517E+03  0.40589095517E+03  0.00000000000E+00 0.  1.
         21   -1    0    0  501  502 -0.00000000000E+00 -0.00000000000E+00 -0.96238902353E+01  0.96238902353E+01  0.00000000000E+00 0.  1.
         25    1    1    2    0    0  0.00000000000E+00  0.00000000000E+00  0.39626706493E+03  0.41551484540E+03  0.12500000000E+03 0.  0.
<mgrwt>
<rscale>  0 0.12500000E+03</rscale>
<asrwt>0</asrwt>
<pdfrwt beam="1">  1       21 0.62444749E-01 0.12500000E+03</pdfrwt>
<pdfrwt beam="2">  1       21 0.14805988E-02 0.12500000E+03</pdfrwt>
<totfact> 0.47029016E+06</totfact>
</mgrwt>
</event>
<event>
 3    1  0.1603864E-001  0.1250000E+03  0.7546771E-02  0.1235069E+00
         21   -1    0    0  502  501  0.00000000000E+00  0.00000000000E+00  0.32428664697E+02  0.32428664697E+02  0.00000000000E+00 0. -1.
         21   -1    0    0  501  502 -0.00000000000E+00 -0.00000000000E+00 -0.12045670201E+03  0.12045670201E+03  0.00000000000E+00 0. -1.
         25    1    1    2    0    0  0.00000000000E+00  0.00000000000E+00 -0.88028037312E+02  0.15288536671E+03  0.12500000000E+03 0.  0.
<mgrwt>
<rscale>  0 0.12500000E+03</rscale>
<asrwt>0</asrwt>
<pdfrwt beam="1">  1       21 0.49890254E-02 0.12500000E+03</pdfrwt>
<pdfrwt beam="2">  1       21 0.18531800E-01 0.12500000E+03</pdfrwt>
<totfact> 0.70398600E+06</totfact>
</mgrwt>
</event>
<event>
 3    1  0.1603864E-001  0.1250000E+03  0.7546771E-02  0.1235069E+00
         21   -1    0    0  502  501  0.00000000000E+00  0.00000000000E+00  0.67017522990E+03  0.67017522990E+03  0.00000000000E+00 0.  1.
         21   -1    0    0  501  502 -0.00000000000E+00 -0.00000000000E+00 -0.58286994591E+01  0.58286994591E+01  0.00000000000E+00 0.  1.
         25    1    1    2    0    0  0.00000000000E+00  0.00000000000E+00  0.66434653044E+03  0.67600392936E+03  0.12500000000E+03 0.  0.
<mgrwt>
<rscale>  0 0.12500000E+03</rscale>
<asrwt>0</asrwt>
<pdfrwt beam="1">  1       21 0.10310382E+00 0.12500000E+03</pdfrwt>
<pdfrwt beam="2">  1       21 0.89672352E-03 0.12500000E+03</pdfrwt>
<totfact> 0.33855976E+06</totfact>
</mgrwt>
</event>
<event>
 3    1  0.1603864E-001  0.1250000E+03  0.7546771E-02  0.1235069E+00
         21   -1    0    0  502  501  0.00000000000E+00  0.00000000000E+00  0.14151550466E+02  0.14151550466E+02  0.00000000000E+00 0. -1.
         21   -1    0    0  501  502 -0.00000000000E+00 -0.00000000000E+00 -0.27602982509E+03  0.27602982509E+03  0.00000000000E+00 0. -1.
         25    1    1    2    0    0  0.00000000000E+00  0.00000000000E+00 -0.26187827462E+03  0.29018137556E+03  0.12500000000E+03 0.  0.
<mgrwt>
<rscale>  0 0.12500000E+03</rscale>
<asrwt>0</asrwt>
<pdfrwt beam="1">  1       21 0.21771616E-02 0.12500000E+03</pdfrwt>
<pdfrwt beam="2">  1       21 0.42466127E-01 0.12500000E+03</pdfrwt>
<totfact> 0.56282139E+06</totfact>
</mgrwt>
</event>
<event>
 3    1  0.1603864E-001  0.1250000E+03  0.7546771E-02  0.1235069E+00
         21   -1    0    0  502  501  0.00000000000E+00  0.00000000000E+00  0.63514281129E+02  0.63514281129E+02  0.00000000000E+00 0.  1.
         21   -1    0    0  501  502 -0.00000000000E+00 -0.00000000000E+00 -0.61501916271E+02  0.61501916271E+02  0.00000000000E+00 0.  1.
         25    1    1    2    0    0  0.00000000000E+00  0.00000000000E+00  0.20123648572E+01  0.12501619740E+03  0.12500000000E+03 0.  0.
<mgrwt>
<rscale>  0 0.12500000E+03</rscale>
<asrwt>0</asrwt>
<pdfrwt beam="1">  1       21 0.97714278E-02 0.12500000E+03</pdfrwt>
<pdfrwt beam="2">  1       21 0.94618333E-02 0.12500000E+03</pdfrwt>
<totfact> 0.74041394E+06</totfact>
</mgrwt>
</event>
<event>
 3    1  0.1603864E-001  0.1250000E+03  0.7546771E-02  0.1235069E+00
         21   -1    0    0  502  501  0.00000000000E+00  0.00000000000E+00  0.10948538234E+02  0.10948538234E+02  0.00000000000E+00 0.  1.
         21   -1    0    0  501  502 -0.00000000000E+00 -0.00000000000E+00 -0.35678278839E+03  0.35678278839E+03  0.00000000000E+00 0.  1.
         25    1    1    2    0    0  0.00000000000E+00  0.00000000000E+00 -0.34583425016E+03  0.36773132663E+03  0.12500000000E+03 0.  0.
<mgrwt>
<rscale>  0 0.12500000E+03</rscale>
<asrwt>0</asrwt>
<pdfrwt beam="1">  1       21 0.16843907E-02 0.12500000E+03</pdfrwt>
<pdfrwt beam="2">  1       21 0.54889654E-01 0.12500000E+03</pdfrwt>
<totfact> 0.50254997E+06</totfact>
</mgrwt>
</event>
<event>
 3    1  0.1603864E-001  0.1250000E+03  0.7546771E-02  0.1235069E+00
         21   -1    0    0  502  501  0.00000000000E+00  0.00000000000E+00  0.46476770051E+03  0.46476770051E+03  0.00000000000E+00 0. -1.
         21   -1    0    0  501  502 -0.00000000000E+00 -0.00000000000E+00 -0.84047363784E+01  0.84047363784E+01  0.00000000000E+00 0. -1.
         25    1    1    2    0    0  0.00000000000E+00  0.00000000000E+00  0.45636296414E+03  0.47317243689E+03  0.12500000000E+03 0.  0.
<mgrwt>
<rscale>  0 0.12500000E+03</rscale>
<asrwt>0</asrwt>
<pdfrwt beam="1">  1       21 0.71502703E-01 0.12500000E+03</pdfrwt>
<pdfrwt beam="2">  1       21 0.12930367E-02 0.12500000E+03</pdfrwt>
<totfact> 0.43537391E+06</totfact>
</mgrwt>
</event>
<event>
 3    1  0.1603864E-001  0.1250000E+03  0.7546771E-02  0.1235069E+00
         21   -1    0    0  502  501  0.00000000000E+00  0.00000000000E+00  0.17196464685E+03  0.17196464685E+03  0.00000000000E+00 0.  1.
         21   -1    0    0  501  502 -0.00000000000E+00 -0.00000000000E+00 -0.22715424778E+02  0.22715424778E+02  0.00000000000E+00 0.  1.
         25    1    1    2    0    0  0.00000000000E+00  0.00000000000E+00  0.14924922207E+03  0.19468007163E+03  0.12500000000E+03 0.  0.
<mgrwt>
<rscale>  0 0.12500000E+03</rscale>
<asrwt>0</asrwt>
<pdfrwt beam="1">  1       21 0.26456099E-01 0.12500000E+03</pdfrwt>
<pdfrwt beam="2">  1       21 0.34946808E-02 0.12500000E+03</pdfrwt>
<totfact> 0.65506055E+06</totfact>
</mgrwt>
</event>
<event>
 3    1  0.1603864E-001  0.1250000E+03  0.7546771E-02  0.1235069E+00
         21   -1    0    0  502  501  0.00000000000E+00  0.00000000000E+00  0.20390759569E+02  0.20390759569E+02  0.00000000000E+00 0. -1.
         21   -1    0    0  501  502 -0.00000000000E+00 -0.00000000000E+00 -0.19156961695E+03  0.19156961695E+03  0.00000000000E+00 0. -1.
         25    1    1    2    0    0  0.00000000000E+00  0.00000000000E+00 -0.17117885738E+03  0.21196037652E+03  0.12500000000E+03 0.  0.
<mgrwt>
<rscale>  0 0.12500000E+03</rscale>
<asrwt>0</asrwt>
<pdfrwt beam="1">  1       21 0.31370399E-02 0.12500000E+03</pdfrwt>
<pdfrwt beam="2">  1       21 0.29472249E-01 0.12500000E+03</pdfrwt>
<totfact> 0.63653870E+06</totfact>
</mgrwt>
</event>
<event>
 3    1  0.1603864E-001  0.1250000E+03  0.7546771E-02  0.1235069E+00
         21   -1    0    0  502  501  0.00000000000E+00  0.00000000000E+00  0.88850064256E+02  0.88850064256E+02  0.00000000000E+00 0. -1.
         21   -1    0    0  501  502 -0.00000000000E+00 -0.00000000000E+00 -0.43964515195E+02  0.43964515195E+02  0.00000000000E+00 0. -1.
         25    1    1    2    0    0  0.00000000000E+00  0.00000000000E+00  0.44885549061E+02  0.13281457945E+03  0.12500000000E+03 0.  0.
<mgrwt>
<rscale>  0 0.12500000E+03</rscale>
<asrwt>0</asrwt>
<pdfrwt beam="1">  1       21 0.13669241E-01 0.12500000E+03</pdfrwt>
<pdfrwt beam="2">  1       21 0.67637716E-02 0.12500000E+03</pdfrwt>
<totfact> 0.72987168E+06</totfact>
</mgrwt>
</event>
<event>
 3    1  0.1603864E-001  0.1250000E+03  0.7546771E-02  0.1235069E+00
         21   -1    0    0  502  501  0.00000000000E+00  0.00000000000E+00  0.64511544846E+01  0.64511544846E+01  0.00000000000E+00 0.  1.
         21   -1    0    0  501  502 -0.00000000000E+00 -0.00000000000E+00 -0.60551177457E+03  0.60551177457E+03  0.00000000000E+00 0.  1.
         25    1    1    2    0    0  0.00000000000E+00  0.00000000000E+00 -0.59906062009E+03  0.61196292905E+03  0.12500000000E+03 0.  0.
<mgrwt>
<rscale>  0 0.12500000E+03</rscale>
<asrwt>0</asrwt>
<pdfrwt beam="1">  1       21 0.99248480E-03 0.12500000E+03</pdfrwt>
<pdfrwt beam="2">  1       21 0.93155705E-01 0.12500000E+03</pdfrwt>
<totfact> 0.36557138E+06</totfact>
</mgrwt>
</event>
<event>
 3    1  0.1603864E-001  0.1250000E+03  0.7546771E-02  0.1235069E+00
         21   -1    0    0  502  501  0.00000000000E+00  0.00000000000E+00  0.71269879361E+02  0.71269879361E+02  0.00000000000E+00 0.  1.
         21   -1    0    0  501  502 -0.00000000000E+00 -0.00000000000E+00 -0.54809269148E+02  0.54809269148E+02  0.00000000000E+00 0.  1.
         25    1    1    2    0    0  0.00000000000E+00  0.00000000000E+00  0.16460610213E+02  0.12607914851E+03  0.12500000000E+03 0.  0.
<mgrwt>
<rscale>  0 0.12500000E+03</rscale>
<asrwt>0</asrwt>
<pdfrwt beam="1">  1       21 0.10964597E-01 0.12500000E+03</pdfrwt>
<pdfrwt beam="2">  1       21 0.84321952E-02 0.12500000E+03</pdfrwt>
<totfact> 0.73895133E+06</totfact>
</mgrwt>
</event>
<event>
 3    1  0.1603864E-001  0.1250000E+03  0.7546771E-02  0.1235069E+00
         21   -1    0    0  502  501  0.00000000000E+00  0.00000000000E+00  0.10423274820E+03  0.10423274820E+03  0.00000000000E+00 0. -1.
         21   -1    0    0  501  502 -0.00000000000E+00 -0.00000000000E+00 -0.37476225729E+02  0.37476225729E+02  0.00000000000E+00 0. -1.
         25    1    1    2    0    0  0.00000000000E+00  0.00000000000E+00  0.66756522475E+02  0.14170897393E+03  0.12500000000E+03 0.  0.
<mgrwt>
<rscale>  0 0.12500000E+03</rscale>
<asrwt>0</asrwt>
<pdfrwt beam="1">  1       21 0.16035807E-01 0.12500000E+03</pdfrwt>
<pdfrwt beam="2">  1       21 0.57655732E-02 0.12500000E+03</pdfrwt>
<totfact> 0.71816984E+06</totfact>
</mgrwt>
</event>
<event>
 3    1  0.1603864E-001  0.1250000E+03  0.7546771E-02  0.1235069E+00
         21   -1    0    0  502  501  0.00000000000E+00  0.00000000000E+00  0.32084973195E+02  0.32084973195E+02  0.00000000000E+00 0. -1.
         21   -1    0    0  501  502 -0.00000000000E+00 -0.00000000000E+00 -0.12174702395E+03  0.12174702395E+03  0.00000000000E+00 0. -1.
         25    1    1    2    0    0  0.00000000000E+00  0.00000000000E+00 -0.89662050754E+02  0.15383199714E+03  0.12500000000E+03 0.  0.
<mgrwt>
<rscale>  0 0.12500000E+03</rscale>
<asrwt>0</asrwt>
<pdfrwt beam="1">  1       21 0.49361498E-02 0.12500000E+03</pdfrwt>
<pdfrwt beam="2">  1       21 0.18730311E-01 0.12500000E+03</pdfrwt>
<totfact> 0.70281086E+06</totfact>
</mgrwt>
</event>
<event>
 3    1  0.1603864E-001  0.1250000E+03  0.7546771E-02  0.1235069E+00
         21   -1    0    0  502  501  0.00000000000E+00  0.00000000000E+00  0.22874949459E+04  0.22874949459E+04  0.00000000000E+00 0. -1.
         21   -1    0    0  501  502 -0.00000000000E+00 -0.00000000000E+00 -0.17076540462E+01  0.17076540462E+01  0.00000000000E+00 0. -1.
         25    1    1    2    0    0  0.00000000000E+00  0.00000000000E+00  0.22857872919E+04  0.22892026000E+04  0.12500000000E+03 0.  0.
<mgrwt>
<rscale>  0 0.12500000E+03</rscale>
<asrwt>0</asrwt>
<pdfrwt beam="1">  1       21 0.35191985E+00 0.12500000E+03</pdfrwt>
<pdfrwt beam="2">  1       21 0.26271784E-03 0.12500000E+03</pdfrwt>
<totfact> 0.54561750E+05</totfact>
</mgrwt>
</event>
<event>
 3    1  0.1603864E-001  0.1250000E+03  0.7546771E-02  0.1235069E+00
         21   -1    0    0  502  501  0.00000000000E+00  0.00000000000E+00  0.85201404902E+02  0.85201404902E+02  0.00000000000E+00 0. -1.
         21   -1    0    0  501  502 -0.00000000000E+00 -0.00000000000E+00 -0.45847248698E+02  0.45847248698E+02  0.00000000000E+00 0. -1.
         25    1    1    2    0    0  0.00000000000E+00  0.00000000000E+00  0.39354156204E+02  0.13104865360E+03  0.12500000000E+03 0.  0.
<mgrwt>
<rscale>  0 0.12500000E+03</rscale>
<asrwt>0</asrwt>
<pdfrwt beam="1">  1       21 0.13107908E-01 0.12500000E+03</pdfrwt>
<pdfrwt beam="2">  1       21 0.70534229E-02 0.12500000E+03</pdfrwt>
<totfact> 0.73224115E+06</totfact>
</mgrwt>
</event>
<event>
 3    1  0.1603864E-001  0.1250000E+03  0.7546771E-02  0.1235069E+00
         21   -1    0    0  502  501  0.00000000000E+00  0.00000000000E+00  0.34908768624E+03  0.34908768624E+03  0.00000000000E+00 0.  1.
         21   -1    0    0  501  502 -0.00000000000E+00 -0.00000000000E+00 -0.11189881952E+02  0.11189881952E+02  0.00000000000E+00 0.  1.
         25    1    1    2    0    0  0.00000000000E+00  0.00000000000E+00  0.33789780429E+03  0.36027756819E+03  0.12500000000E+03 0.  0.
<mgrwt>
<rscale>  0 0.12500000E+03</rscale>
<asrwt>0</asrwt>
<pdfrwt beam="1">  1       21 0.53705790E-01 0.12500000E+03</pdfrwt>
<pdfrwt beam="2">  1       21 0.17215206E-02 0.12500000E+03</pdfrwt>
<totfact> 0.50788250E+06</totfact>
</mgrwt>
</event>
<event>
 3    1  0.1603864E-001  0.1250000E+03  0.7546771E-02  0.1235069E+00
         21   -1    0    0  502  501  0.00000000000E+00  0.00000000000E+00  0.10938590765E+03  0.10938590765E+03  0.00000000000E+00 0. -1.
         21   -1    0    0  501  502 -0.00000000000E+00 -0.00000000000E+00 -0.35710724388E+02  0.35710724388E+02  0.00000000000E+00 0. -1.
         25    1    1    2    0    0  0.00000000000E+00  0.00000000000E+00  0.73675183262E+02  0.14509663204E+03  0.12500000000E+03 0.  0.
<mgrwt>
<rscale>  0 0.12500000E+03</rscale>
<asrwt>0</asrwt>
<pdfrwt beam="1">  1       21 0.16828601E-01 0.12500000E+03</pdfrwt>
<pdfrwt beam="2">  1       21 0.54939576E-02 0.12500000E+03</pdfrwt>
<totfact> 0.71380734E+06</totfact>
</mgrwt>
</event>
<event>
 3    1  0.1603864E-001  0.1250000E+03  0.7546771E-02  0.1235069E+00
         21   -1    0    0  502  501  0.00000000000E+00  0.00000000000E+00  0.11882904899E+04  0.11882904899E+04  0.00000000000E+00 0. -1.
         21   -1    0    0  501  502 -0.00000000000E+00 -0.00000000000E+00 -0.32872854183E+01  0.32872854183E+01  0.00000000000E+00 0. -1.
         25    1    1    2    0    0  0.00000000000E+00  0.00000000000E+00  0.11850032044E+04  0.11915777753E+04  0.12500000000E+03 0.  0.
<mgrwt>
<rscale>  0 0.12500000E+03</rscale>
<asrwt>0</asrwt>
<pdfrwt beam="1">  1       21 0.18281358E+00 0.12500000E+03</pdfrwt>
<pdfrwt beam="2">  1       21 0.50573717E-03 0.12500000E+03</pdfrwt>
<totfact> 0.19312064E+06</totfact>
</mgrwt>
</event>
<event>
 3    1  0.1603864E-001  0.1250000E+03  0.7546771E-02  0.1235069E+00
         21   -1    0    0  502  501  0.00000000000E+00  0.00000000000E+00  0.11140770345E+02  0.11140770345E+02  0.00000000000E+00 0. -1.
         21   -1    0    0  501  502 -0.00000000000E+00 -0.00000000000E+00 -0.35062656163E+03  0.35062656163E+03  0.00000000000E+00 0. -1.
         25    1    1    2    0    0  0.00000000000E+00  0.00000000000E+00 -0.33948579128E+03  0.36176733197E+03  0.12500000000E+03 0.  0.
<mgrwt>
<rscale>  0 0.12500000E+03</rscale>
<asrwt>0</asrwt>
<pdfrwt beam="1">  1       21 0.17139646E-02 0.12500000E+03</pdfrwt>
<pdfrwt beam="2">  1       21 0.53942550E-01 0.12500000E+03</pdfrwt>
<totfact> 0.50680950E+06</totfact>
</mgrwt>
</event>
<event>
 3    1  0.1603864E-001  0.1250000E+03  0.7546771E-02  0.1235069E+00
         21   -1    0    0  502  501  0.00000000000E+00  0.00000000000E+00  0.35625226113E+01  0.35625226113E+01  0.00000000000E+00 0. -1.
         21   -1    0    0  501  502 -0.00000000000E+00 -0.00000000000E+00 -0.10964842686E+04  0.10964842686E+04  0.00000000000E+00 0. -1.
         25    1    1    2    0    0  0.00000000000E+00  0.00000000000E+00 -0.10929217460E+04  0.11000467912E+04  0.12500000000E+03 0.  0.
<mgrwt>
<rscale>  0 0.12500000E+03</rscale>
<asrwt>0</asrwt>
<pdfrwt beam="1">  1       21 0.54808126E-03 0.12500000E+03</pdfrwt>
<pdfrwt beam="2">  1       21 0.16868962E+00 0.12500000E+03</pdfrwt>
<totfact> 0.21250402E+06</totfact>
</mgrwt>
</event>
<event>
 3    1  0.1603864E-001  0.1250000E+03  0.7546771E-02  0.1235069E+00
         21   -1    0    0  502  501  0.00000000000E+00  0.00000000000E+00  0.36292082354E+03  0.36292082354E+03  0.00000000000E+00 0.  1.
         21   -1    0    0  501  502 -0.00000000000E+00 -0.00000000000E+00 -0.10763366957E+02  0.10763366957E+02  0.00000000000E+00 0.  1.
         25    1    1    2    0    0  0.00000000000E+00  0.00000000000E+00  0.35215745658E+03  0.37368419049E+03  0.12500000000E+03 0.  0.
<mgrwt>
<rscale>  0 0.12500000E+03</rscale>
<asrwt>0</asrwt>
<pdfrwt beam="1">  1       21 0.55833964E-01 0.12500000E+03</pdfrwt>
<pdfrwt beam="2">  1       21 0.16559029E-02 0.12500000E+03</pdfrwt>
<totfact> 0.49835458E+06</totfact>
</mgrwt>
</event>
<event>
 3    1  0.1603864E-001  0.1250000E+03  0.7546771E-02  0.1235069E+00
         21   -1    0    0  502  501  0.00000000000E+00  0.00000000000E+00  0.64979934156E+03  0.64979934156E+03  0.00000000000E+00 0. -1.
         21   -1    0    0  501  502 -0.00000000000E+00 -0.00000000000E+00 -0.60114711576E+01  0.60114711576E+01  0.00000000000E+00 0. -1.
         25    1    1    2    0    0  0.00000000000E+00  0.00000000000E+00  0.64378787040E+03  0.65581081271E+03  0.12500000000E+03 0.  0.
<mgrwt>
<rscale>  0 0.12500000E+03</rscale>
<asrwt>0</asrwt>
<pdfrwt beam="1">  1       21 0.99969074E-01 0.12500000E+03</pdfrwt>
<pdfrwt beam="2">  1       21 0.92484223E-03 0.12500000E+03</pdfrwt>
<totfact> 0.34684030E+06</totfact>
</mgrwt>
</event>
<event>
 3    1  0.1603864E-001  0.1250000E+03  0.7546771E-02  0.1235069E+00
         21   -1    0    0  502  501  0.00000000000E+00  0.00000000000E+00  0.14116964877E+03  0.14116964877E+03  0.00000000000E+00 0. -1.
         21   -1    0    0  501  502 -0.00000000000E+00 -0.00000000000E+00 -0.27670607911E+02  0.27670607911E+02  0.00000000000E+00 0. -1.
         25    1    1    2    0    0  0.00000000000E+00  0.00000000000E+00  0.11349904086E+03  0.16884025668E+03  0.12500000000E+03 0.  0.
<mgrwt>
<rscale>  0 0.12500000E+03</rscale>
<asrwt>0</asrwt>
<pdfrwt beam="1">  1       21 0.21718407E-01 0.12500000E+03</pdfrwt>
<pdfrwt beam="2">  1       21 0.42570167E-02 0.12500000E+03</pdfrwt>
<totfact> 0.68455121E+06</totfact>
</mgrwt>
</event>
<event>
 3    1  0.1603864E-001  0.1250000E+03  0.7546771E-02  0.1235069E+00
         21   -1    0    0  502  501  0.00000000000E+00  0.00000000000E+00  0.68968837864E+02  0.68968837864E+02  0.00000000000E+00 0. -1.
         21   -1    0    0  501  502 -0.00000000000E+00 -0.00000000000E+00 -0.56637897941E+02  0.56637897941E+02  0.00000000000E+00 0. -1.
         25    1    1    2    0    0  0.00000000000E+00  0.00000000000E+00  0.12330939923E+02  0.12560673580E+03  0.12500000000E+03 0.  0.
<mgrwt>
<rscale>  0 0.12500000E+03</rscale>
<asrwt>0</asrwt>
<pdfrwt beam="1">  1       21 0.10610590E-01 0.12500000E+03</pdfrwt>
<pdfrwt beam="2">  1       21 0.87135227E-02 0.12500000E+03</pdfrwt>
<totfact> 0.73960505E+06</totfact>
</mgrwt>
</event>
<event>
 3    1  0.1603864E-001  0.1250000E+03  0.7546771E-02  0.1235069E+00
         21   -1    0    0  502  501  0.00000000000E+00  0.00000000000E+00  0.10306572209E+03  0.10306572209E+03  0.00000000000E+00 0. -1.
         21   -1    0    0  501  502 -0.00000000000E+00 -0.00000000000E+00 -0.37900573740E+02  0.37900573740E+02  0.00000000000E+00 0. -1.
         25    1    1    2    0    0  0.00000000000E+00  0.00000000000E+00  0.65165148347E+02  0.14096629583E+03  0.12500000000E+03 0.  0.
<mgrwt>
<rscale>  0 0.12500000E+03</rscale>
<asrwt>0</asrwt>
<pdfrwt beam="1">  1       21 0.15856265E-01 0.12500000E+03</pdfrwt>
<pdfrwt beam="2">  1       21 0.58308575E-02 0.12500000E+03</pdfrwt>
<totfact> 0.71913410E+06</totfact>
</mgrwt>
</event>
<event>
 3    1  0.1603864E-001  0.1250000E+03  0.7546771E-02  0.1235069E+00
         21   -1    0    0  502  501  0.00000000000E+00  0.00000000000E+00  0.18697412811E+03  0.18697412811E+03  0.00000000000E+00 0.  1.
         21   -1    0    0  501  502 -0.00000000000E+00 -0.00000000000E+00 -0.20891927881E+02  0.20891927881E+02  0.00000000000E+00 0.  1.
         25    1    1    2    0    0  0.00000000000E+00  0.00000000000E+00  0.16608220022E+03  0.20786605599E+03  0.12500000000E+03 0.  0.
<mgrwt>
<rscale>  0 0.12500000E+03</rscale>
<asrwt>0</asrwt>
<pdfrwt beam="1">  1       21 0.28765249E-01 0.12500000E+03</pdfrwt>
<pdfrwt beam="2">  1       21 0.32141429E-02 0.12500000E+03</pdfrwt>
<totfact> 0.64084753E+06</totfact>
</mgrwt>
</event>
<event>
 3    1  0.1603864E-001  0.1250000E+03  0.7546771E-02  0.1235069E+00
         21   -1    0    0  502  501  0.00000000000E+00  0.00000000000E+00  0.98305935818E+02  0.98305935818E+02  0.00000000000E+00 0. -1.
         21   -1    0    0  501  502 -0.00000000000E+00 -0.00000000000E+00 -0.39735647369E+02  0.39735647369E+02  0.00000000000E+00 0. -1.
         25    1    1    2    0    0  0.00000000000E+00  0.00000000000E+00  0.58570288449E+02  0.13804158319E+03  0.12500000000E+03 0.  0.
<mgrwt>
<rscale>  0 0.12500000E+03</rscale>
<asrwt>0</asrwt>
<pdfrwt beam="1">  1       21 0.15123990E-01 0.12500000E+03</pdfrwt>
<pdfrwt beam="2">  1       21 0.61131765E-02 0.12500000E+03</pdfrwt>
<totfact> 0.72296018E+06</totfact>
</mgrwt>
</event>
<event>
 3    1  0.1603864E-001  0.1250000E+03  0.7546771E-02  0.1235069E+00
         21   -1    0    0  502  501  0.00000000000E+00  0.00000000000E+00  0.46217233311E+02  0.46217233311E+02  0.00000000000E+00 0. -1.
         21   -1    0    0  501  502 -0.00000000000E+00 -0.00000000000E+00 -0.84519338787E+02  0.84519338787E+02  0.00000000000E+00 0. -1.
         25    1    1    2    0    0  0.00000000000E+00  0.00000000000E+00 -0.38302105476E+02  0.13073657210E+03  0.12500000000E+03 0.  0.
<mgrwt>
<rscale>  0 0.12500000E+03</rscale>
<asrwt>0</asrwt>
<pdfrwt beam="1">  1       21 0.71103436E-02 0.12500000E+03</pdfrwt>
<pdfrwt beam="2">  1       21 0.13002975E-01 0.12500000E+03</pdfrwt>
<totfact> 0.73266193E+06</totfact>
</mgrwt>
</event>
<event>
 3    1  0.1603864E-001  0.1250000E+03  0.7546771E-02  0.1235069E+00
         21   -1    0    0  502  501  0.00000000000E+00  0.00000000000E+00  0.48394166989E+02  0.48394166989E+02  0.00000000000E+00 0.  1.
         21   -1    0    0  501  502 -0.00000000000E+00 -0.00000000000E+00 -0.80717372424E+02  0.80717372424E+02  0.00000000000E+00 0.  1.
         25    1    1    2    0    0  0.00000000000E+00  0.00000000000E+00 -0.32323205435E+02  0.12911153941E+03  0.12500000000E+03 0.  0.
<mgrwt>
<rscale>  0 0.12500000E+03</rscale>
<asrwt>0</asrwt>
<pdfrwt beam="1">  1       21 0.74452565E-02 0.12500000E+03</pdfrwt>
<pdfrwt beam="2">  1       21 0.12418057E-01 0.12500000E+03</pdfrwt>
<totfact> 0.73483905E+06</totfact>
</mgrwt>
</event>
<event>
 3    1  0.1603864E-001  0.1250000E+03  0.7546771E-02  0.1235069E+00
         21   -1    0    0  502  501  0.00000000000E+00  0.00000000000E+00  0.87278856506E+02  0.87278856506E+02  0.00000000000E+00 0.  1.
         21   -1    0    0  501  502 -0.00000000000E+00 -0.00000000000E+00 -0.44755971336E+02  0.44755971336E+02  0.00000000000E+00 0.  1.
         25    1    1    2    0    0  0.00000000000E+00  0.00000000000E+00  0.42522885170E+02  0.13203482784E+03  0.12500000000E+03 0.  0.
<mgrwt>
<rscale>  0 0.12500000E+03</rscale>
<asrwt>0</asrwt>
<pdfrwt beam="1">  1       21 0.13427516E-01 0.12500000E+03</pdfrwt>
<pdfrwt beam="2">  1       21 0.68855340E-02 0.12500000E+03</pdfrwt>
<totfact> 0.73091558E+06</totfact>
</mgrwt>
</event>
<event>
 3    1  0.1603864E-001  0.1250000E+03  0.7546771E-02  0.1235069E+00
         21   -1    0    0  502  501  0.00000000000E+00  0.00000000000E+00  0.22669387667E+02  0.22669387667E+02  0.00000000000E+00 0.  1.
         21   -1    0    0  501  502 -0.00000000000E+00 -0.00000000000E+00 -0.17231387356E+03  0.17231387356E+03  0.00000000000E+00 0.  1.
         25    1    1    2    0    0  0.00000000000E+00  0.00000000000E+00 -0.14964448589E+03  0.19498326122E+03  0.12500000000E+03 0.  0.
<mgrwt>
<rscale>  0 0.12500000E+03</rscale>
<asrwt>0</asrwt>
<pdfrwt beam="1">  1       21 0.34875980E-02 0.12500000E+03</pdfrwt>
<pdfrwt beam="2">  1       21 0.26509828E-01 0.12500000E+03</pdfrwt>
<totfact> 0.65472854E+06</totfact>
</mgrwt>
</event>
<event>
 3    1  0.1603864E-001  0.1250000E+03  0.7546771E-02  0.1235069E+00
         21   -1    0    0  502  501  0.00000000000E+00  0.00000000000E+00  0.19564292370E+03  0.19564292370E+03  0.00000000000E+00 0. -1.
         21   -1    0    0  501  502 -0.00000000000E+00 -0.00000000000E+00 -0.19966221758E+02  0.19966221758E+02  0.00000000000E+00 0. -1.
         25    1    1    2    0    0  0.00000000000E+00  0.00000000000E+00  0.17567670194E+03  0.21560914546E+03  0.12500000000E+03 0.  0.
<mgrwt>
<rscale>  0 0.12500000E+03</rscale>
<asrwt>0</asrwt>
<pdfrwt beam="1">  1       21 0.30098910E-01 0.12500000E+03</pdfrwt>
<pdfrwt beam="2">  1       21 0.30717266E-02 0.12500000E+03</pdfrwt>
<totfact> 0.63274180E+06</totfact>
</mgrwt>
</event>
<event>
 3    1  0.1603864E-001  0.1250000E+03  0.7546771E-02  0.1235069E+00
         21   -1    0    0  502  501  0.00000000000E+00  0.00000000000E+00  0.10967967898E+02  0.10967967898E+02  0.00000000000E+00 0. -1.
         21   -1    0    0  501  502 -0.00000000000E+00 -0.00000000000E+00 -0.35615075066E+03  0.35615075066E+03  0.00000000000E+00 0. -1.
         25    1    1    2    0    0  0.00000000000E+00  0.00000000000E+00 -0.34518278276E+03  0.36711871856E+03  0.12500000000E+03 0.  0.
<mgrwt>
<rscale>  0 0.12500000E+03</rscale>
<asrwt>0</asrwt>
<pdfrwt beam="1">  1       21 0.16873798E-02 0.12500000E+03</pdfrwt>
<pdfrwt beam="2">  1       21 0.54792419E-01 0.12500000E+03</pdfrwt>
<totfact> 0.50298487E+06</totfact>
</mgrwt>
</event>
<event>
 3    1  0.1603864E-001  0.1250000E+03  0.7546771E-02  0.1235069E+00
         21   -1    0    0  502  501  0.00000000000E+00  0.00000000000E+00  0.68759096175E+03  0.68759096175E+03  0.00000000000E+00 0. -1.
         21   -1    0    0  501  502 -0.00000000000E+00 -0.00000000000E+00 -0.56810665312E+01  0.56810665312E+01  0.00000000000E+00 0. -1.
         25    1    1    2    0    0  0.00000000000E+00  0.00000000000E+00  0.68190989522E+03  0.69327202829E+03  0.12500000000E+03 0.  0.
<mgrwt>
<rscale>  0 0.12500000E+03</rscale>
<asrwt>0</asrwt>
<pdfrwt beam="1">  1       21 0.10578316E+00 0.12500000E+03</pdfrwt>
<pdfrwt beam="2">  1       21 0.87401078E-03 0.12500000E+03</pdfrwt>
<totfact> 0.33171160E+06</totfact>
</mgrwt>
</event>
<event>
 3    1  0.1603864E-001  0.1250000E+03  0.7546771E-02  0.1235069E+00
         21   -1    0    0  502  501  0.00000000000E+00  0.00000000000E+00  0.23712897892E+02  0.23712897892E+02  0.00000000000E+00 0.  1.
         21   -1    0    0  501  502 -0.00000000000E+00 -0.00000000000E+00 -0.16473102604E+03  0.16473102604E+03  0.00000000000E+00 0.  1.
         25    1    1    2    0    0  0.00000000000E+00  0.00000000000E+00 -0.14101812814E+03  0.18844392393E+03  0.12500000000E+03 0.  0.
<mgrwt>
<rscale>  0 0.12500000E+03</rscale>
<asrwt>0</asrwt>
<pdfrwt beam="1">  1       21 0.36481383E-02 0.12500000E+03</pdfrwt>
<pdfrwt beam="2">  1       21 0.25343234E-01 0.12500000E+03</pdfrwt>
<totfact> 0.66195826E+06</totfact>
</mgrwt>
</event>
<event>
 3    1  0.1603864E-001  0.1250000E+03  0.7546771E-02  0.1235069E+00
         21   -1    0    0  502  501  0.00000000000E+00  0.00000000000E+00  0.11750320536E+03  0.11750320536E+03  0.00000000000E+00 0. -1.
         21   -1    0    0  501  502 -0.00000000000E+00 -0.00000000000E+00 -0.33243773973E+02  0.33243773973E+02  0.00000000000E+00 0. -1.
         25    1    1    2    0    0  0.00000000000E+00  0.00000000000E+00  0.84259431385E+02  0.15074697933E+03  0.12500000000E+03 0.  0.
<mgrwt>
<rscale>  0 0.12500000E+03</rscale>
<asrwt>0</asrwt>
<pdfrwt beam="1">  1       21 0.18077416E-01 0.12500000E+03</pdfrwt>
<pdfrwt beam="2">  1       21 0.51144268E-02 0.12500000E+03</pdfrwt>
<totfact> 0.70665493E+06</totfact>
</mgrwt>
</event>
<event>
 3    1  0.1603864E-001  0.1250000E+03  0.7546771E-02  0.1235069E+00
         21   -1    0    0  502  501  0.00000000000E+00  0.00000000000E+00  0.14631383202E+03  0.14631383202E+03  0.00000000000E+00 0.  1.
         21   -1    0    0  501  502 -0.00000000000E+00 -0.00000000000E+00 -0.26697749257E+02  0.26697749257E+02  0.00000000000E+00 0.  1.
         25    1    1    2    0    0  0.00000000000E+00  0.00000000000E+00  0.11961608276E+03  0.17301158127E+03  0.12500000000E+03 0.  0.
<mgrwt>
<rscale>  0 0.12500000E+03</rscale>
<asrwt>0</asrwt>
<pdfrwt beam="1">  1       21 0.22509820E-01 0.12500000E+03</pdfrwt>
<pdfrwt beam="2">  1       21 0.41073461E-02 0.12500000E+03</pdfrwt>
<totfact> 0.67962411E+06</totfact>
</mgrwt>
</event>
<event>
 3    1  0.1603864E-001  0.1250000E+03  0.7546771E-02  0.1235069E+00
         21   -1    0    0  502  501  0.00000000000E+00  0.00000000000E+00  0.68943758904E+01  0.68943758904E+01  0.00000000000E+00 0. -1.
         21   -1    0    0  501  502 -0.00000000000E+00 -0.00000000000E+00 -0.56658500524E+03  0.56658500524E+03  0.00000000000E+00 0. -1.
         25    1    1    2    0    0  0.00000000000E+00  0.00000000000E+00 -0.55969062935E+03  0.57347938113E+03  0.12500000000E+03 0.  0.
<mgrwt>
<rscale>  0 0.12500000E+03</rscale>
<asrwt>0</asrwt>
<pdfrwt beam="1">  1       21 0.10606731E-02 0.12500000E+03</pdfrwt>
<pdfrwt beam="2">  1       21 0.87166932E-01 0.12500000E+03</pdfrwt>
<totfact> 0.38320129E+06</totfact>
</mgrwt>
</event>
<event>
 3    1  0.1603864E-001  0.1250000E+03  0.7546771E-02  0.1235069E+00
         21   -1    0    0  502  501  0.00000000000E+00  0.00000000000E+00  0.23531693211E+01  0.23531693211E+01  0.00000000000E+00 0. -1.
         21   -1    0    0  501  502 -0.00000000000E+00 -0.00000000000E+00 -0.16599952944E+04  0.16599952944E+04  0.00000000000E+00 0. -1.
         25    1    1    2    0    0  0.00000000000E+00  0.00000000000E+00 -0.16576421251E+04  0.16623484637E+04  0.12500000000E+03 0.  0.
<mgrwt>
<rscale>  0 0.12500000E+03</rscale>
<asrwt>0</asrwt>
<pdfrwt beam="1">  1       21 0.36202778E-03 0.12500000E+03</pdfrwt>
<pdfrwt beam="2">  1       21 0.25538267E+00 0.12500000E+03</pdfrwt>
<totfact> 0.11747827E+06</totfact>
</mgrwt>
</event>
<event>
 3    1  0.1603864E-001  0.1250000E+03  0.7546771E-02  0.1235069E+00
         21   -1    0    0  502  501  0.00000000000E+00  0.00000000000E+00  0.20975242097E+03  0.20975242097E+03  0.00000000000E+00 0. -1.
         21   -1    0    0  501  502 -0.00000000000E+00 -0.00000000000E+00 -0.18623146193E+02  0.18623146193E+02  0.00000000000E+00 0. -1.
         25    1    1    2    0    0  0.00000000000E+00  0.00000000000E+00  0.19112927478E+03  0.22837556716E+03  0.12500000000E+03 0.  0.
<mgrwt>
<rscale>  0 0.12500000E+03</rscale>
<asrwt>0</asrwt>
<pdfrwt beam="1">  1       21 0.32269602E-01 0.12500000E+03</pdfrwt>
<pdfrwt beam="2">  1       21 0.28650996E-02 0.12500000E+03</pdfrwt>
<totfact> 0.61976012E+06</totfact>
</mgrwt>
</event>
<event>
 3    1  0.1603864E-001  0.1250000E+03  0.7546771E-02  0.1235069E+00
         21   -1    0    0  502  501  0.00000000000E+00  0.00000000000E+00  0.21369715571E+02  0.21369715571E+02  0.00000000000E+00 0.  1.
         21   -1    0    0  501  502 -0.00000000000E+00 -0.00000000000E+00 -0.18279372914E+03  0.18279372914E+03  0.00000000000E+00 0.  1.
         25    1    1    2    0    0  0.00000000000E+00  0.00000000000E+00 -0.16142401357E+03  0.20416344472E+03  0.12500000000E+03 0.  0.
<mgrwt>
<rscale>  0 0.12500000E+03</rscale>
<asrwt>0</asrwt>
<pdfrwt beam="1">  1       21 0.32876486E-02 0.12500000E+03</pdfrwt>
<pdfrwt beam="2">  1       21 0.28122112E-01 0.12500000E+03</pdfrwt>
<totfact> 0.64478888E+06</totfact>
</mgrwt>
</event>
<event>
 3    1  0.1603864E-001  0.1250000E+03  0.7546771E-02  0.1235069E+00
         21   -1    0    0  502  501  0.00000000000E+00  0.00000000000E+00  0.13059590275E+03  0.13059590275E+03  0.00000000000E+00 0.  1.
         21   -1    0    0  501  502 -0.00000000000E+00 -0.00000000000E+00 -0.29910969010E+02  0.29910969010E+02  0.00000000000E+00 0.  1.
         25    1    1    2    0    0  0.00000000000E+00  0.00000000000E+00  0.10068493374E+03  0.16050687176E+03  0.12500000000E+03 0.  0.
<mgrwt>
<rscale>  0 0.12500000E+03</rscale>
<asrwt>0</asrwt>
<pdfrwt beam="1">  1       21 0.20091677E-01 0.12500000E+03</pdfrwt>
<pdfrwt beam="2">  1       21 0.46016876E-02 0.12500000E+03</pdfrwt>
<totfact> 0.69457615E+06</totfact>
</mgrwt>
</event>
<event>
 3    1  0.1603864E-001  0.1250000E+03  0.7546771E-02  0.1235069E+00
         21   -1    0    0  502  501  0.00000000000E+00  0.00000000000E+00  0.17925615790E+03  0.17925615790E+03  0.00000000000E+00 0. -1.
         21   -1    0    0  501  502 -0.00000000000E+00 -0.00000000000E+00 -0.21791441063E+02  0.21791441063E+02  0.00000000000E+00 0. -1.
         25    1    1    2    0    0  0.00000000000E+00  0.00000000000E+00  0.15746471684E+03  0.20104759896E+03  0.12500000000E+03 0.  0.
<mgrwt>
<rscale>  0 0.12500000E+03</rscale>
<asrwt>0</asrwt>
<pdfrwt beam="1">  1       21 0.27577869E-01 0.12500000E+03</pdfrwt>
<pdfrwt beam="2">  1       21 0.33525295E-02 0.12500000E+03</pdfrwt>
<totfact> 0.64813915E+06</totfact>
</mgrwt>
</event>
<event>
 3    1  0.1603864E-001  0.1250000E+03  0.7546771E-02  0.1235069E+00
         21   -1    0    0  502  501  0.00000000000E+00  0.00000000000E+00  0.91679726835E+03  0.91679726835E+03  0.00000000000E+00 0.  1.
         21   -1    0    0  501  502 -0.00000000000E+00 -0.00000000000E+00 -0.42607565869E+01  0.42607565869E+01  0.00000000000E+00 0.  1.
         25    1    1    2    0    0  0.00000000000E+00  0.00000000000E+00  0.91253651176E+03  0.92105802494E+03  0.12500000000E+03 0.  0.
<mgrwt>
<rscale>  0 0.12500000E+03</rscale>
<asrwt>0</asrwt>
<pdfrwt beam="1">  1       21 0.14104558E+00 0.12500000E+03</pdfrwt>
<pdfrwt beam="2">  1       21 0.65550174E-03 0.12500000E+03</pdfrwt>
<totfact> 0.25702632E+06</totfact>
</mgrwt>
</event>
<event>
 3    1  0.1603864E-001  0.1250000E+03  0.7546771E-02  0.1235069E+00
         21   -1    0    0  502  501  0.00000000000E+00  0.00000000000E+00  0.60498903441E+01  0.60498903441E+01  0.00000000000E+00 0. -1.
         21   -1    0    0  501  502 -0.00000000000E+00 -0.00000000000E+00 -0.64567285981E+03  0.64567285981E+03  0.00000000000E+00 0. -1.
         25    1    1    2    0    0  0.00000000000E+00  0.00000000000E+00 -0.63962296947E+03  0.65172275016E+03  0.12500000000E+03 0.  0.
<mgrwt>
<rscale>  0 0.12500000E+03</rscale>
<asrwt>0</asrwt>
<pdfrwt beam="1">  1       21 0.93075244E-03 0.12500000E+03</pdfrwt>
<pdfrwt beam="2">  1       21 0.99334277E-01 0.12500000E+03</pdfrwt>
<totfact> 0.34852988E+06</totfact>
</mgrwt>
</event>
<event>
 3    1  0.1603864E-001  0.1250000E+03  0.7546771E-02  0.1235069E+00
         21   -1    0    0  502  501  0.00000000000E+00  0.00000000000E+00  0.92018117476E+02  0.92018117476E+02  0.00000000000E+00 0.  1.
         21   -1    0    0  501  502 -0.00000000000E+00 -0.00000000000E+00 -0.42450879317E+02  0.42450879317E+02  0.00000000000E+00 0.  1.
         25    1    1    2    0    0  0.00000000000E+00  0.00000000000E+00  0.49567238159E+02  0.13446899679E+03  0.12500000000E+03 0.  0.
<mgrwt>
<rscale>  0 0.12500000E+03</rscale>
<asrwt>0</asrwt>
<pdfrwt beam="1">  1       21 0.14156633E-01 0.12500000E+03</pdfrwt>
<pdfrwt beam="2">  1       21 0.65309045E-02 0.12500000E+03</pdfrwt>
<totfact> 0.72766857E+06</totfact>
</mgrwt>
</event>
<event>
 3    1  0.1603864E-001  0.1250000E+03  0.7546771E-02  0.1235069E+00
         21   -1    0    0  502  501  0.00000000000E+00  0.00000000000E+00  0.44536204760E+02  0.44536204760E+02  0.00000000000E+00 0. -1.
         21   -1    0    0  501  502 -0.00000000000E+00 -0.00000000000E+00 -0.87709539263E+02  0.87709539263E+02  0.00000000000E+00 0. -1.
         25    1    1    2    0    0  0.00000000000E+00  0.00000000000E+00 -0.43173334503E+02  0.13224574402E+03  0.12500000000E+03 0.  0.
<mgrwt>
<rscale>  0 0.12500000E+03</rscale>
<asrwt>0</asrwt>
<pdfrwt beam="1">  1       21 0.68517240E-02 0.12500000E+03</pdfrwt>
<pdfrwt beam="2">  1       21 0.13493775E-01 0.12500000E+03</pdfrwt>
<totfact> 0.73063285E+06</totfact>
</mgrwt>
</event>
<event>
 3    1  0.1603864E-001  0.1250000E+03  0.7546771E-02  0.1235069E+00
         21   -1    0    0  502  501  0.00000000000E+00  0.00000000000E+00  0.44196522453E+02  0.44196522453E+02  0.00000000000E+00 0. -1.
         21   -1    0    0  501  502 -0.00000000000E+00 -0.00000000000E+00 -0.88383650641E+02  0.88383650641E+02  0.00000000000E+00 0. -1.
         25    1    1    2    0    0  0.00000000000E+00  0.00000000000E+00 -0.44187128188E+02  0.13258017309E+03  0.12500000000E+03 0.  0.
<mgrwt>
<rscale>  0 0.12500000E+03</rscale>
<asrwt>0</asrwt>
<pdfrwt beam="1">  1       21 0.67994650E-02 0.12500000E+03</pdfrwt>
<pdfrwt beam="2">  1       21 0.13597485E-01 0.12500000E+03</pdfrwt>
<totfact> 0.73018511E+06</totfact>
</mgrwt>
</event>
<event>
 3    1  0.1603864E-001  0.1250000E+03  0.7546771E-02  0.1235069E+00
         21   -1    0    0  502  501  0.00000000000E+00  0.00000000000E+00  0.25108763530E+04  0.25108763530E+04  0.00000000000E+00 0.  1.
         21   -1    0    0  501  502 -0.00000000000E+00 -0.00000000000E+00 -0.15557317250E+01  0.15557317250E+01  0.00000000000E+00 0.  1.
         25    1    1    2    0    0  0.00000000000E+00  0.00000000000E+00  0.25093206213E+04  0.25124320847E+04  0.12500000000E+03 0.  0.
<mgrwt>
<rscale>  0 0.12500000E+03</rscale>
<asrwt>0</asrwt>
<pdfrwt beam="1">  1       21 0.38628543E+00 0.12500000E+03</pdfrwt>
<pdfrwt beam="2">  1       21 0.23934535E-03 0.12500000E+03</pdfrwt>
<totfact> 0.39471689E+05</totfact>
</mgrwt>
</event>
<event>
 3    1  0.1603864E-001  0.1250000E+03  0.7546771E-02  0.1235069E+00
         21   -1    0    0  502  501  0.00000000000E+00  0.00000000000E+00  0.13877582974E+03  0.13877582974E+03  0.00000000000E+00 0. -1.
         21   -1    0    0  501  502 -0.00000000000E+00 -0.00000000000E+00 -0.28147913130E+02  0.28147913130E+02  0.00000000000E+00 0. -1.
         25    1    1    2    0    0  0.00000000000E+00  0.00000000000E+00  0.11062791661E+03  0.16692374287E+03  0.12500000000E+03 0.  0.
<mgrwt>
<rscale>  0 0.12500000E+03</rscale>
<asrwt>0</asrwt>
<pdfrwt beam="1">  1       21 0.21350127E-01 0.12500000E+03</pdfrwt>
<pdfrwt beam="2">  1       21 0.43304483E-02 0.12500000E+03</pdfrwt>
<totfact> 0.68683230E+06</totfact>
</mgrwt>
</event>
<event>
 3    1  0.1603864E-001  0.1250000E+03  0.7546771E-02  0.1235069E+00
         21   -1    0    0  502  501  0.00000000000E+00  0.00000000000E+00  0.31824063794E+02  0.31824063794E+02  0.00000000000E+00 0. -1.
         21   -1    0    0  501  502 -0.00000000000E+00 -0.00000000000E+00 -0.12274516621E+03  0.12274516621E+03  0.00000000000E+00 0. -1.
         25    1    1    2    0    0  0.00000000000E+00  0.00000000000E+00 -0.90921102418E+02  0.15456923001E+03  0.12500000000E+03 0.  0.
<mgrwt>
<rscale>  0 0.12500000E+03</rscale>
<asrwt>0</asrwt>
<pdfrwt beam="1">  1       21 0.48960097E-02 0.12500000E+03</pdfrwt>
<pdfrwt beam="2">  1       21 0.18883872E-01 0.12500000E+03</pdfrwt>
<totfact> 0.70189237E+06</totfact>
</mgrwt>
</event>
<event>
 3    1  0.1603864E-001  0.1250000E+03  0.7546771E-02  0.1235069E+00
         21   -1    0    0  502  501  0.00000000000E+00  0.00000000000E+00  0.12754160170E+02  0.12754160170E+02  0.00000000000E+00 0.  1.
         21   -1    0    0  501  502 -0.00000000000E+00 -0.00000000000E+00 -0.30627261599E+03  0.30627261599E+03  0.00000000000E+00 0.  1.
         25    1    1    2    0    0  0.00000000000E+00  0.00000000000E+00 -0.29351845582E+03  0.31902677616E+03  0.12500000000E+03 0.  0.
<mgrwt>
<rscale>  0 0.12500000E+03</rscale>
<asrwt>0</asrwt>
<pdfrwt beam="1">  1       21 0.19621785E-02 0.12500000E+03</pdfrwt>
<pdfrwt beam="2">  1       21 0.47118864E-01 0.12500000E+03</pdfrwt>
<totfact> 0.53910555E+06</totfact>
</mgrwt>
</event>
<event>
 3    1  0.1603864E-001  0.1250000E+03  0.7546771E-02  0.1235069E+00
         21   -1    0    0  502  501  0.00000000000E+00  0.00000000000E+00  0.11748327636E+03  0.11748327636E+03  0.00000000000E+00 0. -1.
         21   -1    0    0  501  502 -0.00000000000E+00 -0.00000000000E+00 -0.33249413201E+02  0.33249413201E+02  0.00000000000E+00 0. -1.
         25    1    1    2    0    0  0.00000000000E+00  0.00000000000E+00  0.84233863164E+02  0.15073268956E+03  0.12500000000E+03 0.  0.
<mgrwt>
<rscale>  0 0.12500000E+03</rscale>
<asrwt>0</asrwt>
<pdfrwt beam="1">  1       21 0.18074350E-01 0.12500000E+03</pdfrwt>
<pdfrwt beam="2">  1       21 0.51152944E-02 0.12500000E+03</pdfrwt>
<totfact> 0.70667283E+06</totfact>
</mgrwt>
</event>
<event>
 3    1  0.1603864E-001  0.1250000E+03  0.7546771E-02  0.1235069E+00
         21   -1    0    0  502  501  0.00000000000E+00  0.00000000000E+00  0.12875472338E+04  0.12875472338E+04  0.00000000000E+00 0. -1.
         21   -1    0    0  501  502 -0.00000000000E+00 -0.00000000000E+00 -0.30338692808E+01  0.30338692808E+01  0.00000000000E+00 0. -1.
         25    1    1    2    0    0  0.00000000000E+00  0.00000000000E+00  0.12845133645E+04  0.12905811030E+04  0.12500000000E+03 0.  0.
<mgrwt>
<rscale>  0 0.12500000E+03</rscale>
<asrwt>0</asrwt>
<pdfrwt beam="1">  1       21 0.19808375E+00 0.12500000E+03</pdfrwt>
<pdfrwt beam="2">  1       21 0.46675015E-03 0.12500000E+03</pdfrwt>
<totfact> 0.17422365E+06</totfact>
</mgrwt>
</event>
<event>
 3    1  0.1603864E-001  0.1250000E+03  0.7546771E-02  0.1235069E+00
         21   -1    0    0  502  501  0.00000000000E+00  0.00000000000E+00  0.37629606518E+03  0.37629606518E+03  0.00000000000E+00 0.  1.
         21   -1    0    0  501  502 -0.00000000000E+00 -0.00000000000E+00 -0.10380788856E+02  0.10380788856E+02  0.00000000000E+00 0.  1.
         25    1    1    2    0    0  0.00000000000E+00  0.00000000000E+00  0.36591527632E+03  0.38667685403E+03  0.12500000000E+03 0.  0.
<mgrwt>
<rscale>  0 0.12500000E+03</rscale>
<asrwt>0</asrwt>
<pdfrwt beam="1">  1       21 0.57891692E-01 0.12500000E+03</pdfrwt>
<pdfrwt beam="2">  1       21 0.15970447E-02 0.12500000E+03</pdfrwt>
<totfact> 0.48937804E+06</totfact>
</mgrwt>
</event>
<event>
 3    1  0.1603864E-001  0.1250000E+03  0.7546771E-02  0.1235069E+00
         21   -1    0    0  502  501  0.00000000000E+00  0.00000000000E+00  0.45720961037E+03  0.45720961037E+03  0.00000000000E+00 0. -1.
         21   -1    0    0  501  502 -0.00000000000E+00 -0.00000000000E+00 -0.85436743047E+01  0.85436743047E+01  0.00000000000E+00 0. -1.
         25    1    1    2    0    0  0.00000000000E+00  0.00000000000E+00  0.44866593607E+03  0.46575328468E+03  0.12500000000E+03 0.  0.
<mgrwt>
<rscale>  0 0.12500000E+03</rscale>
<asrwt>0</asrwt>
<pdfrwt beam="1">  1       21 0.70339921E-01 0.12500000E+03</pdfrwt>
<pdfrwt beam="2">  1       21 0.13144118E-02 0.12500000E+03</pdfrwt>
<totfact> 0.43964397E+06</totfact>
</mgrwt>
</event>
<event>
 3    1  0.1603864E-001  0.1250000E+03  0.7546771E-02  0.1235069E+00
         21   -1    0    0  502  501  0.00000000000E+00  0.00000000000E+00  0.22910074345E+02  0.22910074345E+02  0.00000000000E+00 0. -1.
         21   -1    0    0  501  502 -0.00000000000E+00 -0.00000000000E+00 -0.17050359336E+03  0.17050359336E+03  0.00000000000E+00 0. -1.
         25    1    1    2    0    0  0.00000000000E+00  0.00000000000E+00 -0.14759351902E+03  0.19341366771E+03  0.12500000000E+03 0.  0.
<mgrwt>
<rscale>  0 0.12500000E+03</rscale>
<asrwt>0</asrwt>
<pdfrwt beam="1">  1       21 0.35246270E-02 0.12500000E+03</pdfrwt>
<pdfrwt beam="2">  1       21 0.26231321E-01 0.12500000E+03</pdfrwt>
<totfact> 0.65645062E+06</totfact>
</mgrwt>
</event>
<event>
 3    1  0.1603864E-001  0.1250000E+03  0.7546771E-02  0.1235069E+00
         21   -1    0    0  502  501  0.00000000000E+00  0.00000000000E+00  0.29373293485E+04  0.29373293485E+04  0.00000000000E+00 0. -1.
         21   -1    0    0  501  502 -0.00000000000E+00 -0.00000000000E+00 -0.13298644914E+01  0.13298644914E+01  0.00000000000E+00 0. -1.
         25    1    1    2    0    0  0.00000000000E+00  0.00000000000E+00  0.29359994840E+04  0.29386592130E+04  0.12500000000E+03 0.  0.
<mgrwt>
<rscale>  0 0.12500000E+03</rscale>
<asrwt>0</asrwt>
<pdfrwt beam="1">  1       21 0.45189163E+00 0.12500000E+03</pdfrwt>
<pdfrwt beam="2">  1       21 0.20459689E-03 0.12500000E+03</pdfrwt>
<totfact> 0.19427345E+05</totfact>
</mgrwt>
</event>
<event>
 3    1  0.1603864E-001  0.1250000E+03  0.7546771E-02  0.1235069E+00
         21   -1    0    0  502  501  0.00000000000E+00  0.00000000000E+00  0.55334065526E+01  0.55334065526E+01  0.00000000000E+00 0. -1.
         21   -1    0    0  501  502 -0.00000000000E+00 -0.00000000000E+00 -0.70593945391E+03  0.70593945391E+03  0.00000000000E+00 0. -1.
         25    1    1    2    0    0  0.00000000000E+00  0.00000000000E+00 -0.70040604735E+03  0.71147286046E+03  0.12500000000E+03 0.  0.
<mgrwt>
<rscale>  0 0.12500000E+03</rscale>
<asrwt>0</asrwt>
<pdfrwt beam="1">  1       21 0.85129286E-03 0.12500000E+03</pdfrwt>
<pdfrwt beam="2">  1       21 0.10860613E+00 0.12500000E+03</pdfrwt>
<totfact> 0.32472477E+06</totfact>
</mgrwt>
</event>
<event>
 3    1  0.1603864E-001  0.1250000E+03  0.7546771E-02  0.1235069E+00
         21   -1    0    0  502  501  0.00000000000E+00  0.00000000000E+00  0.26816341191E+02  0.26816341191E+02  0.00000000000E+00 0. -1.
         21   -1    0    0  501  502 -0.00000000000E+00 -0.00000000000E+00 -0.14566677729E+03  0.14566677729E+03  0.00000000000E+00 0. -1.
         25    1    1    2    0    0  0.00000000000E+00  0.00000000000E+00 -0.11885043610E+03  0.17248311848E+03  0.12500000000E+03 0.  0.
<mgrwt>
<rscale>  0 0.12500000E+03</rscale>
<asrwt>0</asrwt>
<pdfrwt beam="1">  1       21 0.41255910E-02 0.12500000E+03</pdfrwt>
<pdfrwt beam="2">  1       21 0.22410273E-01 0.12500000E+03</pdfrwt>
<totfact> 0.68024488E+06</totfact>
</mgrwt>
</event>
<event>
 3    1  0.1603864E-001  0.1250000E+03  0.7546771E-02  0.1235069E+00
         21   -1    0    0  502  501  0.00000000000E+00  0.00000000000E+00  0.10840126175E+02  0.10840126175E+02  0.00000000000E+00 0. -1.
         21   -1    0    0  501  502 -0.00000000000E+00 -0.00000000000E+00 -0.36035097166E+03  0.36035097166E+03  0.00000000000E+00 0. -1.
         25    1    1    2    0    0  0.00000000000E+00  0.00000000000E+00 -0.34951084548E+03  0.37119109783E+03  0.12500000000E+03 0.  0.
<mgrwt>
<rscale>  0 0.12500000E+03</rscale>
<asrwt>0</asrwt>
<pdfrwt beam="1">  1       21 0.16677117E-02 0.12500000E+03</pdfrwt>
<pdfrwt beam="2">  1       21 0.55438613E-01 0.12500000E+03</pdfrwt>
<totfact> 0.50010483E+06</totfact>
</mgrwt>
</event>
<event>
 3    1  0.1603864E-001  0.1250000E+03  0.7546771E-02  0.1235069E+00
         21   -1    0    0  502  501  0.00000000000E+00  0.00000000000E+00  0.11999626422E+03  0.11999626422E+03  0.00000000000E+00 0. -1.
         21   -1    0    0  501  502 -0.00000000000E+00 -0.00000000000E+00 -0.32553096761E+02  0.32553096761E+02  0.00000000000E+00 0. -1.
         25    1    1    2    0    0  0.00000000000E+00  0.00000000000E+00  0.87443167455E+02  0.15254936098E+03  0.12500000000E+03 0.  0.
<mgrwt>
<rscale>  0 0.12500000E+03</rscale>
<asrwt>0</asrwt>
<pdfrwt beam="1">  1       21 0.18460964E-01 0.12500000E+03</pdfrwt>
<pdfrwt beam="2">  1       21 0.50081688E-02 0.12500000E+03</pdfrwt>
<totfact> 0.70440405E+06</totfact>
</mgrwt>
</event>
<event>
 3    1  0.1603864E-001  0.1250000E+03  0.7546771E-02  0.1235069E+00
         21   -1    0    0  502  501  0.00000000000E+00  0.00000000000E+00  0.27773567637E+02  0.27773567637E+02  0.00000000000E+00 0. -1.
         21   -1    0    0  501  502 -0.00000000000E+00 -0.00000000000E+00 -0.14064631707E+03  0.14064631707E+03  0.00000000000E+00 0. -1.
         25    1    1    2    0    0  0.00000000000E+00  0.00000000000E+00 -0.11287274943E+03  0.16841988471E+03  0.12500000000E+03 0.  0.
<mgrwt>
<rscale>  0 0.12500000E+03</rscale>
<asrwt>0</asrwt>
<pdfrwt beam="1">  1       21 0.42728566E-02 0.12500000E+03</pdfrwt>
<pdfrwt beam="2">  1       21 0.21637895E-01 0.12500000E+03</pdfrwt>
<totfact> 0.68505032E+06</totfact>
</mgrwt>
</event>
<event>
 3    1  0.1603864E-001  0.1250000E+03  0.7546771E-02  0.1235069E+00
         21   -1    0    0  502  501  0.00000000000E+00  0.00000000000E+00  0.52980915314E+02  0.52980915314E+02  0.00000000000E+00 0.  1.
         21   -1    0    0  501  502 -0.00000000000E+00 -0.00000000000E+00 -0.73729379284E+02  0.73729379284E+02  0.00000000000E+00 0.  1.
         25    1    1    2    0    0  0.00000000000E+00  0.00000000000E+00 -0.20748463970E+02  0.12671029460E+03  0.12500000000E+03 0.  0.
<mgrwt>
<rscale>  0 0.12500000E+03</rscale>
<asrwt>0</asrwt>
<pdfrwt beam="1">  1       21 0.81509101E-02 0.12500000E+03</pdfrwt>
<pdfrwt beam="2">  1       21 0.11342981E-01 0.12500000E+03</pdfrwt>
<totfact> 0.73808629E+06</totfact>
</mgrwt>
</event>
<event>
 3    1  0.1603864E-001  0.1250000E+03  0.7546771E-02  0.1235069E+00
         21   -1    0    0  502  501  0.00000000000E+00  0.00000000000E+00  0.26734780474E+03  0.26734780474E+03  0.00000000000E+00 0.  1.
         21   -1    0    0  501  502 -0.00000000000E+00 -0.00000000000E+00 -0.14611116795E+02  0.14611116795E+02  0.00000000000E+00 0.  1.
         25    1    1    2    0    0  0.00000000000E+00  0.00000000000E+00  0.25273668795E+03  0.28195892154E+03  0.12500000000E+03 0.  0.
<mgrwt>
<rscale>  0 0.12500000E+03</rscale>
<asrwt>0</asrwt>
<pdfrwt beam="1">  1       21 0.41130428E-01 0.12500000E+03</pdfrwt>
<pdfrwt beam="2">  1       21 0.22478643E-02 0.12500000E+03</pdfrwt>
<totfact> 0.56989596E+06</totfact>
</mgrwt>
</event>
<event>
 3    1  0.1603864E-001  0.1250000E+03  0.7546771E-02  0.1235069E+00
         21   -1    0    0  502  501  0.00000000000E+00  0.00000000000E+00  0.19317185444E+03  0.19317185444E+03  0.00000000000E+00 0. -1.
         21   -1    0    0  501  502 -0.00000000000E+00 -0.00000000000E+00 -0.20221631206E+02  0.20221631206E+02  0.00000000000E+00 0. -1.
         25    1    1    2    0    0  0.00000000000E+00  0.00000000000E+00  0.17295022324E+03  0.21339348565E+03  0.12500000000E+03 0.  0.
<mgrwt>
<rscale>  0 0.12500000E+03</rscale>
<asrwt>0</asrwt>
<pdfrwt beam="1">  1       21 0.29718746E-01 0.12500000E+03</pdfrwt>
<pdfrwt beam="2">  1       21 0.31110203E-02 0.12500000E+03</pdfrwt>
<totfact> 0.63504262E+06</totfact>
</mgrwt>
</event>
<event>
 3    1  0.1603864E-001  0.1250000E+03  0.7546771E-02  0.1235069E+00
         21   -1    0    0  502  501  0.00000000000E+00  0.00000000000E+00  0.14986710389E+02  0.14986710389E+02  0.00000000000E+00 0. -1.
         21   -1    0    0  501  502 -0.00000000000E+00 -0.00000000000E+00 -0.26064759368E+03  0.26064759368E+03  0.00000000000E+00 0. -1.
         25    1    1    2    0    0  0.00000000000E+00  0.00000000000E+00 -0.24566088329E+03  0.27563430407E+03  0.12500000000E+03 0.  0.
<mgrwt>
<rscale>  0 0.12500000E+03</rscale>
<asrwt>0</asrwt>
<pdfrwt beam="1">  1       21 0.23056478E-02 0.12500000E+03</pdfrwt>
<pdfrwt beam="2">  1       21 0.40099628E-01 0.12500000E+03</pdfrwt>
<totfact> 0.57543858E+06</totfact>
</mgrwt>
</event>
<event>
 3    1  0.1603864E-001  0.1250000E+03  0.7546771E-02  0.1235069E+00
         21   -1    0    0  502  501  0.00000000000E+00  0.00000000000E+00  0.24525029487E+03  0.24525029487E+03  0.00000000000E+00 0.  1.
         21   -1    0    0  501  502 -0.00000000000E+00 -0.00000000000E+00 -0.15927605722E+02  0.15927605722E+02  0.00000000000E+00 0.  1.
         25    1    1    2    0    0  0.00000000000E+00  0.00000000000E+00  0.22932268915E+03  0.26117790060E+03  0.12500000000E+03 0.  0.
<mgrwt>
<rscale>  0 0.12500000E+03</rscale>
<asrwt>0</asrwt>
<pdfrwt beam="1">  1       21 0.37730812E-01 0.12500000E+03</pdfrwt>
<pdfrwt beam="2">  1       21 0.24504011E-02 0.12500000E+03</pdfrwt>
<totfact> 0.58841479E+06</totfact>
</mgrwt>
</event>
<event>
 3    1  0.1603864E-001  0.1250000E+03  0.7546771E-02  0.1235069E+00
         21   -1    0    0  502  501  0.00000000000E+00  0.00000000000E+00  0.28165207073E+02  0.28165207073E+02  0.00000000000E+00 0. -1.
         21   -1    0    0  501  502 -0.00000000000E+00 -0.00000000000E+00 -0.13869061888E+03  0.13869061888E+03  0.00000000000E+00 0. -1.
         25    1    1    2    0    0  0.00000000000E+00  0.00000000000E+00 -0.11052541181E+03  0.16685582596E+03  0.12500000000E+03 0.  0.
<mgrwt>
<rscale>  0 0.12500000E+03</rscale>
<asrwt>0</asrwt>
<pdfrwt beam="1">  1       21 0.43331088E-02 0.12500000E+03</pdfrwt>
<pdfrwt beam="2">  1       21 0.21337018E-01 0.12500000E+03</pdfrwt>
<totfact> 0.68691340E+06</totfact>
</mgrwt>
</event>
<event>
 3    1  0.1603864E-001  0.1250000E+03  0.7546771E-02  0.1235069E+00
         21   -1    0    0  502  501  0.00000000000E+00  0.00000000000E+00  0.18026514315E+03  0.18026514315E+03  0.00000000000E+00 0.  1.
         21   -1    0    0  501  502 -0.00000000000E+00 -0.00000000000E+00 -0.21669469382E+02  0.21669469382E+02  0.00000000000E+00 0.  1.
         25    1    1    2    0    0  0.00000000000E+00  0.00000000000E+00  0.15859567376E+03  0.20193461253E+03  0.12500000000E+03 0.  0.
<mgrwt>
<rscale>  0 0.12500000E+03</rscale>
<asrwt>0</asrwt>
<pdfrwt beam="1">  1       21 0.27733098E-01 0.12500000E+03</pdfrwt>
<pdfrwt beam="2">  1       21 0.33337646E-02 0.12500000E+03</pdfrwt>
<totfact> 0.64718226E+06</totfact>
</mgrwt>
</event>
<event>
 3    1  0.1603864E-001  0.1250000E+03  0.7546771E-02  0.1235069E+00
         21   -1    0    0  502  501  0.00000000000E+00  0.00000000000E+00  0.63383872687E+01  0.63383872687E+01  0.00000000000E+00 0.  1.
         21   -1    0    0  501  502 -0.00000000000E+00 -0.00000000000E+00 -0.61628452703E+03  0.61628452703E+03  0.00000000000E+00 0.  1.
         25    1    1    2    0    0  0.00000000000E+00  0.00000000000E+00 -0.60994613976E+03  0.62262291429E+03  0.12500000000E+03 0.  0.
<mgrwt>
<rscale>  0 0.12500000E+03</rscale>
<asrwt>0</asrwt>
<pdfrwt beam="1">  1       21 0.97513632E-03 0.12500000E+03</pdfrwt>
<pdfrwt beam="2">  1       21 0.94813022E-01 0.12500000E+03</pdfrwt>
<totfact> 0.36089115E+06</totfact>
</mgrwt>
</event>
<event>
 3    1  0.1603864E-001  0.1250000E+03  0.7546771E-02  0.1235069E+00
         21   -1    0    0  502  501  0.00000000000E+00  0.00000000000E+00  0.25543155675E+03  0.25543155675E+03  0.00000000000E+00 0.  1.
         21   -1    0    0  501  502 -0.00000000000E+00 -0.00000000000E+00 -0.15292746322E+02  0.15292746322E+02  0.00000000000E+00 0.  1.
         25    1    1    2    0    0  0.00000000000E+00  0.00000000000E+00  0.24013881042E+03  0.27072430307E+03  0.12500000000E+03 0.  0.
<mgrwt>
<rscale>  0 0.12500000E+03</rscale>
<asrwt>0</asrwt>
<pdfrwt beam="1">  1       21 0.39297159E-01 0.12500000E+03</pdfrwt>
<pdfrwt beam="2">  1       21 0.23527304E-02 0.12500000E+03</pdfrwt>
<totfact> 0.57980057E+06</totfact>
</mgrwt>
</event>
<event>
 3    1  0.1603864E-001  0.1250000E+03  0.7546771E-02  0.1235069E+00
         21   -1    0    0  502  501  0.00000000000E+00  0.00000000000E+00  0.40890630504E+03  0.40890630504E+03  0.00000000000E+00 0. -1.
         21   -1    0    0  501  502 -0.00000000000E+00 -0.00000000000E+00 -0.95529219087E+01  0.95529219087E+01  0.00000000000E+00 0. -1.
         25    1    1    2    0    0  0.00000000000E+00  0.00000000000E+00  0.39935338313E+03  0.41845922695E+03  0.12500000000E+03 0.  0.
<mgrwt>
<rscale>  0 0.12500000E+03</rscale>
<asrwt>0</asrwt>
<pdfrwt beam="1">  1       21 0.62908649E-01 0.12500000E+03</pdfrwt>
<pdfrwt beam="2">  1       21 0.14696806E-02 0.12500000E+03</pdfrwt>
<totfact> 0.46840602E+06</totfact>
</mgrwt>
</event>
<event>
 3    1  0.1603864E-001  0.1250000E+03  0.7546771E-02  0.1235069E+00
         21   -1    0    0  502  501  0.00000000000E+00  0.00000000000E+00  0.37628548203E+01  0.37628548203E+01  0.00000000000E+00 0.  1.
         21   -1    0    0  501  502 -0.00000000000E+00 -0.00000000000E+00 -0.10381080819E+04  0.10381080819E+04  0.00000000000E+00 0.  1.
         25    1    1    2    0    0  0.00000000000E+00  0.00000000000E+00 -0.10343452271E+04  0.10418709367E+04  0.12500000000E+03 0.  0.
<mgrwt>
<rscale>  0 0.12500000E+03</rscale>
<asrwt>0</asrwt>
<pdfrwt beam="1">  1       21 0.57890077E-03 0.12500000E+03</pdfrwt>
<pdfrwt beam="2">  1       21 0.15970893E+00 0.12500000E+03</pdfrwt>
<totfact> 0.22592586E+06</totfact>
</mgrwt>
</event>
<event>
 3    1  0.1603864E-001  0.1250000E+03  0.7546771E-02  0.1235069E+00
         21   -1    0    0  502  501  0.00000000000E+00  0.00000000000E+00  0.11439939496E+04  0.11439939496E+04  0.00000000000E+00 0.  1.
         21   -1    0    0  501  502 -0.00000000000E+00 -0.00000000000E+00 -0.34145722550E+01  0.34145722550E+01  0.00000000000E+00 0.  1.
         25    1    1    2    0    0  0.00000000000E+00  0.00000000000E+00  0.11405793773E+04  0.11474085218E+04  0.12500000000E+03 0.  0.
<mgrwt>
<rscale>  0 0.12500000E+03</rscale>
<asrwt>0</asrwt>
<pdfrwt beam="1">  1       21 0.17599876E+00 0.12500000E+03</pdfrwt>
<pdfrwt beam="2">  1       21 0.52531972E-03 0.12500000E+03</pdfrwt>
<totfact> 0.20224000E+06</totfact>
</mgrwt>
</event>
<event>
 3    1  0.1603864E-001  0.1250000E+03  0.7546771E-02  0.1235069E+00
         21   -1    0    0  502  501  0.00000000000E+00  0.00000000000E+00  0.11307704770E+03  0.11307704770E+03  0.00000000000E+00 0.  1.
         21   -1    0    0  501  502 -0.00000000000E+00 -0.00000000000E+00 -0.34545029956E+02  0.34545029956E+02  0.00000000000E+00 0.  1.
         25    1    1    2    0    0  0.00000000000E+00  0.00000000000E+00  0.78532017740E+02  0.14762207765E+03  0.12500000000E+03 0.  0.
<mgrwt>
<rscale>  0 0.12500000E+03</rscale>
<asrwt>0</asrwt>
<pdfrwt beam="1">  1       21 0.17396469E-01 0.12500000E+03</pdfrwt>
<pdfrwt beam="2">  1       21 0.53146200E-02 0.12500000E+03</pdfrwt>
<totfact> 0.71059205E+06</totfact>
</mgrwt>
</event>
<event>
 3    1  0.1603864E-001  0.1250000E+03  0.7546771E-02  0.1235069E+00
         21   -1    0    0  502  501  0.00000000000E+00  0.00000000000E+00  0.67290265814E+02  0.67290265814E+02  0.00000000000E+00 0. -1.
         21   -1    0    0  501  502 -0.00000000000E+00 -0.00000000000E+00 -0.58050744083E+02  0.58050744083E+02  0.00000000000E+00 0. -1.
         25    1    1    2    0    0  0.00000000000E+00  0.00000000000E+00  0.92395217311E+01  0.12534100990E+03  0.12500000000E+03 0.  0.
<mgrwt>
<rscale>  0 0.12500000E+03</rscale>
<asrwt>0</asrwt>
<pdfrwt beam="1">  1       21 0.10352349E-01 0.12500000E+03</pdfrwt>
<pdfrwt beam="2">  1       21 0.89308837E-02 0.12500000E+03</pdfrwt>
<totfact> 0.73997536E+06</totfact>
</mgrwt>
</event>
<event>
 3    1  0.1603864E-001  0.1250000E+03  0.7546771E-02  0.1235069E+00
         21   -1    0    0  502  501  0.00000000000E+00  0.00000000000E+00  0.19555959047E+03  0.19555959047E+03  0.00000000000E+00 0. -1.
         21   -1    0    0  501  502 -0.00000000000E+00 -0.00000000000E+00 -0.19974729905E+02  0.19974729905E+02  0.00000000000E+00 0. -1.
         25    1    1    2    0    0  0.00000000000E+00  0.00000000000E+00  0.17558486057E+03  0.21553432038E+03  0.12500000000E+03 0.  0.
<mgrwt>
<rscale>  0 0.12500000E+03</rscale>
<asrwt>0</asrwt>
<pdfrwt beam="1">  1       21 0.30086090E-01 0.12500000E+03</pdfrwt>
<pdfrwt beam="2">  1       21 0.30730355E-02 0.12500000E+03</pdfrwt>
<totfact> 0.63281926E+06</totfact>
</mgrwt>
</event>
<event>
 3    1  0.1603864E-001  0.1250000E+03  0.7546771E-02  0.1235069E+00
         21   -1    0    0  502  501  0.00000000000E+00  0.00000000000E+00  0.97736801047E+03  0.97736801047E+03  0.00000000000E+00 0. -1.
         21   -1    0    0  501  502 -0.00000000000E+00 -0.00000000000E+00 -0.39967033483E+01  0.39967033483E+01  0.00000000000E+00 0. -1.
         25    1    1    2    0    0  0.00000000000E+00  0.00000000000E+00  0.97337130713E+03  0.98136471382E+03  0.12500000000E+03 0.  0.
<mgrwt>
<rscale>  0 0.12500000E+03</rscale>
<asrwt>0</asrwt>
<pdfrwt beam="1">  1       21 0.15036412E+00 0.12500000E+03</pdfrwt>
<pdfrwt beam="2">  1       21 0.61487822E-03 0.12500000E+03</pdfrwt>
<totfact> 0.24090068E+06</totfact>
</mgrwt>
</event>
<event>
 3    1  0.1603864E-001  0.1250000E+03  0.7546771E-02  0.1235069E+00
         21   -1    0    0  502  501  0.00000000000E+00  0.00000000000E+00  0.33474101956E+03  0.33474101956E+03  0.00000000000E+00 0.  1.
         21   -1    0    0  501  502 -0.00000000000E+00 -0.00000000000E+00 -0.11669469147E+02  0.11669469147E+02  0.00000000000E+00 0.  1.
         25    1    1    2    0    0  0.00000000000E+00  0.00000000000E+00  0.32307155041E+03  0.34641048871E+03  0.12500000000E+03 0.  0.
<mgrwt>
<rscale>  0 0.12500000E+03</rscale>
<asrwt>0</asrwt>
<pdfrwt beam="1">  1       21 0.51498611E-01 0.12500000E+03</pdfrwt>
<pdfrwt beam="2">  1       21 0.17953032E-02 0.12500000E+03</pdfrwt>
<totfact> 0.51804627E+06</totfact>
</mgrwt>
</event>
<event>
 3    1  0.1603864E-001  0.1250000E+03  0.7546771E-02  0.1235069E+00
         21   -1    0    0  502  501  0.00000000000E+00  0.00000000000E+00  0.18287787479E+02  0.18287787479E+02  0.00000000000E+00 0. -1.
         21   -1    0    0  501  502 -0.00000000000E+00 -0.00000000000E+00 -0.21359882952E+03  0.21359882952E+03  0.00000000000E+00 0. -1.
         25    1    1    2    0    0  0.00000000000E+00  0.00000000000E+00 -0.19531104204E+03  0.23188661700E+03  0.12500000000E+03 0.  0.
<mgrwt>
<rscale>  0 0.12500000E+03</rscale>
<asrwt>0</asrwt>
<pdfrwt beam="1">  1       21 0.28135057E-02 0.12500000E+03</pdfrwt>
<pdfrwt beam="2">  1       21 0.32861359E-01 0.12500000E+03</pdfrwt>
<totfact> 0.61626727E+06</totfact>
</mgrwt>
</event>
<event>
 3    1  0.1603864E-001  0.1250000E+03  0.7546771E-02  0.1235069E+00
         21   -1    0    0  502  501  0.00000000000E+00  0.00000000000E+00  0.11334919178E+03  0.11334919178E+03  0.00000000000E+00 0. -1.
         21   -1    0    0  501  502 -0.00000000000E+00 -0.00000000000E+00 -0.34462089573E+02  0.34462089573E+02  0.00000000000E+00 0. -1.
         25    1    1    2    0    0  0.00000000000E+00  0.00000000000E+00  0.78887102203E+02  0.14781128135E+03  0.12500000000E+03 0.  0.
<mgrwt>
<rscale>  0 0.12500000E+03</rscale>
<asrwt>0</asrwt>
<pdfrwt beam="1">  1       21 0.17438337E-01 0.12500000E+03</pdfrwt>
<pdfrwt beam="2">  1       21 0.53018600E-02 0.12500000E+03</pdfrwt>
<totfact> 0.71035238E+06</totfact>
</mgrwt>
</event>
<event>
 3    1  0.1603864E-001  0.1250000E+03  0.7546771E-02  0.1235069E+00
         21   -1    0    0  502  501  0.00000000000E+00  0.00000000000E+00  0.14399979106E+02  0.14399979106E+02  0.00000000000E+00 0.  1.
         21   -1    0    0  501  502 -0.00000000000E+00 -0.00000000000E+00 -0.27126775471E+03  0.27126775471E+03  0.00000000000E+00 0.  1.
         25    1    1    2    0    0  0.00000000000E+00  0.00000000000E+00 -0.25686777560E+03  0.28566773381E+03  0.12500000000E+03 0.  0.
<mgrwt>
<rscale>  0 0.12500000E+03</rscale>
<asrwt>0</asrwt>
<pdfrwt beam="1">  1       21 0.22153815E-02 0.12500000E+03</pdfrwt>
<pdfrwt beam="2">  1       21 0.41733499E-01 0.12500000E+03</pdfrwt>
<totfact> 0.56668679E+06</totfact>
</mgrwt>
</event>
<event>
 3    1  0.1603864E-001  0.1250000E+03  0.7546771E-02  0.1235069E+00
         21   -1    0    0  502  501  0.00000000000E+00  0.00000000000E+00  0.92954887525E+02  0.92954887525E+02  0.00000000000E+00 0.  1.
         21   -1    0    0  501  502 -0.00000000000E+00 -0.00000000000E+00 -0.42023072740E+02  0.42023072740E+02  0.00000000000E+00 0.  1.
         25    1    1    2    0    0  0.00000000000E+00  0.00000000000E+00  0.50931814784E+02  0.13497796026E+03  0.12500000000E+03 0.  0.
<mgrwt>
<rscale>  0 0.12500000E+03</rscale>
<asrwt>0</asrwt>
<pdfrwt beam="1">  1       21 0.14300752E-01 0.12500000E+03</pdfrwt>
<pdfrwt beam="2">  1       21 0.64650882E-02 0.12500000E+03</pdfrwt>
<totfact> 0.72699390E+06</totfact>
</mgrwt>
</event>
<event>
 3    1  0.1603864E-001  0.1250000E+03  0.7546771E-02  0.1235069E+00
         21   -1    0    0  502  501  0.00000000000E+00  0.00000000000E+00  0.26382024506E+03  0.26382024506E+03  0.00000000000E+00 0.  1.
         21   -1    0    0  501  502 -0.00000000000E+00 -0.00000000000E+00 -0.14806483100E+02  0.14806483100E+02  0.00000000000E+00 0.  1.
         25    1    1    2    0    0  0.00000000000E+00  0.00000000000E+00  0.24901376196E+03  0.27862672816E+03  0.12500000000E+03 0.  0.
<mgrwt>
<rscale>  0 0.12500000E+03</rscale>
<asrwt>0</asrwt>
<pdfrwt beam="1">  1       21 0.40587727E-01 0.12500000E+03</pdfrwt>
<pdfrwt beam="2">  1       21 0.22779207E-02 0.12500000E+03</pdfrwt>
<totfact> 0.57280505E+06</totfact>
</mgrwt>
</event>
<event>
 3    1  0.1603864E-001  0.1250000E+03  0.7546771E-02  0.1235069E+00
         21   -1    0    0  502  501  0.00000000000E+00  0.00000000000E+00  0.25973012568E+03  0.25973012568E+03  0.00000000000E+00 0. -1.
         21   -1    0    0  501  502 -0.00000000000E+00 -0.00000000000E+00 -0.15039649289E+02  0.15039649289E+02  0.00000000000E+00 0. -1.
         25    1    1    2    0    0  0.00000000000E+00  0.00000000000E+00  0.24469047639E+03  0.27476977497E+03  0.12500000000E+03 0.  0.
<mgrwt>
<rscale>  0 0.12500000E+03</rscale>
<asrwt>0</asrwt>
<pdfrwt beam="1">  1       21 0.39958478E-01 0.12500000E+03</pdfrwt>
<pdfrwt beam="2">  1       21 0.23137924E-02 0.12500000E+03</pdfrwt>
<totfact> 0.57620319E+06</totfact>
</mgrwt>
</event>
<event>
 3    1  0.1603864E-001  0.1250000E+03  0.7546771E-02  0.1235069E+00
         21   -1    0    0  502  501  0.00000000000E+00  0.00000000000E+00  0.40131542916E+01  0.40131542916E+01  0.00000000000E+00 0. -1.
         21   -1    0    0  501  502 -0.00000000000E+00 -0.00000000000E+00 -0.97336152964E+03  0.97336152964E+03  0.00000000000E+00 0. -1.
         25    1    1    2    0    0  0.00000000000E+00  0.00000000000E+00 -0.96934837535E+03  0.97737468394E+03  0.12500000000E+03 0.  0.
<mgrwt>
<rscale>  0 0.12500000E+03</rscale>
<asrwt>0</asrwt>
<pdfrwt beam="1">  1       21 0.61740843E-03 0.12500000E+03</pdfrwt>
<pdfrwt beam="2">  1       21 0.14974791E+00 0.12500000E+03</pdfrwt>
<totfact> 0.24192532E+06</totfact>
</mgrwt>
</event>
<event>
 3    1  0.1603864E-001  0.1250000E+03  0.7546771E-02  0.1235069E+00
         21   -1    0    0  502  501  0.00000000000E+00  0.00000000000E+00  0.73344344882E+02  0.73344344882E+02  0.00000000000E+00 0.  1.
         21   -1    0    0  501  502 -0.00000000000E+00 -0.00000000000E+00 -0.53259048210E+02  0.53259048210E+02  0.00000000000E+00 0.  1.
         25    1    1    2    0    0  0.00000000000E+00  0.00000000000E+00  0.20085296672E+02  0.12660339309E+03  0.12500000000E+03 0.  0.
<mgrwt>
<rscale>  0 0.12500000E+03</rscale>
<asrwt>0</asrwt>
<pdfrwt beam="1">  1       21 0.11283745E-01 0.12500000E+03</pdfrwt>
<pdfrwt beam="2">  1       21 0.81936997E-02 0.12500000E+03</pdfrwt>
<totfact> 0.73823232E+06</totfact>
</mgrwt>
</event>
<event>
 3    1  0.1603864E-001  0.1250000E+03  0.7546771E-02  0.1235069E+00
         21   -1    0    0  502  501  0.00000000000E+00  0.00000000000E+00  0.38317426738E+03  0.38317426738E+03  0.00000000000E+00 0. -1.
         21   -1    0    0  501  502 -0.00000000000E+00 -0.00000000000E+00 -0.10194447625E+02  0.10194447625E+02  0.00000000000E+00 0. -1.
         25    1    1    2    0    0  0.00000000000E+00  0.00000000000E+00  0.37297981976E+03  0.39336871501E+03  0.12500000000E+03 0.  0.
<mgrwt>
<rscale>  0 0.12500000E+03</rscale>
<asrwt>0</asrwt>
<pdfrwt beam="1">  1       21 0.58949876E-01 0.12500000E+03</pdfrwt>
<pdfrwt beam="2">  1       21 0.15683769E-02 0.12500000E+03</pdfrwt>
<totfact> 0.48484334E+06</totfact>
</mgrwt>
</event>
<event>
 3    1  0.1603864E-001  0.1250000E+03  0.7546771E-02  0.1235069E+00
         21   -1    0    0  502  501  0.00000000000E+00  0.00000000000E+00  0.42481147586E+02  0.42481147586E+02  0.00000000000E+00 0. -1.
         21   -1    0    0  501  502 -0.00000000000E+00 -0.00000000000E+00 -0.91952553592E+02  0.91952553592E+02  0.00000000000E+00 0. -1.
         25    1    1    2    0    0  0.00000000000E+00  0.00000000000E+00 -0.49471406006E+02  0.13443370118E+03  0.12500000000E+03 0.  0.
<mgrwt>
<rscale>  0 0.12500000E+03</rscale>
<asrwt>0</asrwt>
<pdfrwt beam="1">  1       21 0.65355612E-02 0.12500000E+03</pdfrwt>
<pdfrwt beam="2">  1       21 0.14146547E-01 0.12500000E+03</pdfrwt>
<totfact> 0.72771541E+06</totfact>
</mgrwt>
</event>
<event>
 3    1  0.1603864E-001  0.1250000E+03  0.7546771E-02  0.1235069E+00
         21   -1    0    0  502  501  0.00000000000E+00  0.00000000000E+00  0.91480468867E+02  0.91480468867E+02  0.00000000000E+00 0.  1.
         21   -1    0    0  501  502 -0.00000000000E+00 -0.00000000000E+00 -0.42700371439E+02  0.42700371439E+02  0.00000000000E+00 0.  1.
         25    1    1    2    0    0  0.00000000000E+00  0.00000000000E+00  0.48780097429E+02  0.13418084031E+03  0.12500000000E+03 0.  0.
<mgrwt>
<rscale>  0 0.12500000E+03</rscale>
<asrwt>0</asrwt>
<pdfrwt beam="1">  1       21 0.14073918E-01 0.12500000E+03</pdfrwt>
<pdfrwt beam="2">  1       21 0.65692879E-02 0.12500000E+03</pdfrwt>
<totfact> 0.72805118E+06</totfact>
</mgrwt>
</event>
<event>
 3    1  0.1603864E-001  0.1250000E+03  0.7546771E-02  0.1235069E+00
         21   -1    0    0  502  501  0.00000000000E+00  0.00000000000E+00  0.16711149114E+02  0.16711149114E+02  0.00000000000E+00 0. -1.
         21   -1    0    0  501  502 -0.00000000000E+00 -0.00000000000E+00 -0.23375113065E+03  0.23375113065E+03  0.00000000000E+00 0. -1.
         25    1    1    2    0    0  0.00000000000E+00  0.00000000000E+00 -0.21703998154E+03  0.25046227977E+03  0.12500000000E+03 0.  0.
<mgrwt>
<rscale>  0 0.12500000E+03</rscale>
<asrwt>0</asrwt>
<pdfrwt beam="1">  1       21 0.25709463E-02 0.12500000E+03</pdfrwt>
<pdfrwt beam="2">  1       21 0.35961709E-01 0.12500000E+03</pdfrwt>
<totfact> 0.59834695E+06</totfact>
</mgrwt>
</event>
<event>
 3    1  0.1603864E-001  0.1250000E+03  0.7546771E-02  0.1235069E+00
         21   -1    0    0  502  501  0.00000000000E+00  0.00000000000E+00  0.19693406654E+04  0.19693406654E+04  0.00000000000E+00 0. -1.
         21   -1    0    0  501  502 -0.00000000000E+00 -0.00000000000E+00 -0.19835318838E+01  0.19835318838E+01  0.00000000000E+00 0. -1.
         25    1    1    2    0    0  0.00000000000E+00  0.00000000000E+00  0.19673571335E+04  0.19713241973E+04  0.12500000000E+03 0.  0.
<mgrwt>
<rscale>  0 0.12500000E+03</rscale>
<asrwt>0</asrwt>
<pdfrwt beam="1">  1       21 0.30297392E+00 0.12500000E+03</pdfrwt>
<pdfrwt beam="2">  1       21 0.30516033E-03 0.12500000E+03</pdfrwt>
<totfact> 0.82311632E+05</totfact>
</mgrwt>
</event>
<event>
 3    1  0.1603864E-001  0.1250000E+03  0.7546771E-02  0.1235069E+00
         21   -1    0    0  502  501  0.00000000000E+00  0.00000000000E+00  0.74621328128E+02  0.74621328128E+02  0.00000000000E+00 0.  1.
         21   -1    0    0  501  502 -0.00000000000E+00 -0.00000000000E+00 -0.52347634356E+02  0.52347634356E+02  0.00000000000E+00 0.  1.
         25    1    1    2    0    0  0.00000000000E+00  0.00000000000E+00  0.22273693772E+02  0.12696896248E+03  0.12500000000E+03 0.  0.
<mgrwt>
<rscale>  0 0.12500000E+03</rscale>
<asrwt>0</asrwt>
<pdfrwt beam="1">  1       21 0.11480204E-01 0.12500000E+03</pdfrwt>
<pdfrwt beam="2">  1       21 0.80534822E-02 0.12500000E+03</pdfrwt>
<totfact> 0.73773362E+06</totfact>
</mgrwt>
</event>
<event>
 3    1  0.1603864E-001  0.1250000E+03  0.7546771E-02  0.1235069E+00
         21   -1    0    0  502  501  0.00000000000E+00  0.00000000000E+00  0.81329197299E+01  0.81329197299E+01  0.00000000000E+00 0.  1.
         21   -1    0    0  501  502 -0.00000000000E+00 -0.00000000000E+00 -0.48030106404E+03  0.48030106404E+03  0.00000000000E+00 0.  1.
         25    1    1    2    0    0  0.00000000000E+00  0.00000000000E+00 -0.47216814431E+03  0.48843398377E+03  0.12500000000E+03 0.  0.
<mgrwt>
<rscale>  0 0.12500000E+03</rscale>
<asrwt>0</asrwt>
<pdfrwt beam="1">  1       21 0.12512183E-02 0.12500000E+03</pdfrwt>
<pdfrwt beam="2">  1       21 0.73892480E-01 0.12500000E+03</pdfrwt>
<totfact> 0.42678345E+06</totfact>
</mgrwt>
</event>
<event>
 3    1  0.1603864E-001  0.1250000E+03  0.7546771E-02  0.1235069E+00
         21   -1    0    0  502  501  0.00000000000E+00  0.00000000000E+00  0.14496329378E+02  0.14496329378E+02  0.00000000000E+00 0. -1.
         21   -1    0    0  501  502 -0.00000000000E+00 -0.00000000000E+00 -0.26946476574E+03  0.26946476574E+03  0.00000000000E+00 0. -1.
         25    1    1    2    0    0  0.00000000000E+00  0.00000000000E+00 -0.25496843636E+03  0.28396109512E+03  0.12500000000E+03 0.  0.
<mgrwt>
<rscale>  0 0.12500000E+03</rscale>
<asrwt>0</asrwt>
<pdfrwt beam="1">  1       21 0.22302044E-02 0.12500000E+03</pdfrwt>
<pdfrwt beam="2">  1       21 0.41456120E-01 0.12500000E+03</pdfrwt>
<totfact> 0.56815976E+06</totfact>
</mgrwt>
</event>
<event>
 3    1  0.1603864E-001  0.1250000E+03  0.7546771E-02  0.1235069E+00
         21   -1    0    0  502  501  0.00000000000E+00  0.00000000000E+00  0.58063907077E+01  0.58063907077E+01  0.00000000000E+00 0. -1.
         21   -1    0    0  501  502 -0.00000000000E+00 -0.00000000000E+00 -0.67275011218E+03  0.67275011218E+03  0.00000000000E+00 0. -1.
         25    1    1    2    0    0  0.00000000000E+00  0.00000000000E+00 -0.66694372147E+03  0.67855650289E+03  0.12500000000E+03 0.  0.
<mgrwt>
<rscale>  0 0.12500000E+03</rscale>
<asrwt>0</asrwt>
<pdfrwt beam="1">  1       21 0.89329092E-03 0.12500000E+03</pdfrwt>
<pdfrwt beam="2">  1       21 0.10350001E+00 0.12500000E+03</pdfrwt>
<totfact> 0.33753373E+06</totfact>
</mgrwt>
</event>
<event>
 3    1  0.1603864E-001  0.1250000E+03  0.7546771E-02  0.1235069E+00
         21   -1    0    0  502  501  0.00000000000E+00  0.00000000000E+00  0.51072930125E+02  0.51072930125E+02  0.00000000000E+00 0.  1.
         21   -1    0    0  501  502 -0.00000000000E+00 -0.00000000000E+00 -0.76483765283E+02  0.76483765283E+02  0.00000000000E+00 0.  1.
         25    1    1    2    0    0  0.00000000000E+00  0.00000000000E+00 -0.25410835158E+02  0.12755669541E+03  0.12500000000E+03 0.  0.
<mgrwt>
<rscale>  0 0.12500000E+03</rscale>
<asrwt>0</asrwt>
<pdfrwt beam="1">  1       21 0.78573739E-02 0.12500000E+03</pdfrwt>
<pdfrwt beam="2">  1       21 0.11766733E-01 0.12500000E+03</pdfrwt>
<totfact> 0.73693534E+06</totfact>
</mgrwt>
</event>
<event>
 3    1  0.1603864E-001  0.1250000E+03  0.7546771E-02  0.1235069E+00
         21   -1    0    0  502  501  0.00000000000E+00  0.00000000000E+00  0.27697570454E+03  0.27697570454E+03  0.00000000000E+00 0.  1.
         21   -1    0    0  501  502 -0.00000000000E+00 -0.00000000000E+00 -0.14103222542E+02  0.14103222542E+02  0.00000000000E+00 0.  1.
         25    1    1    2    0    0  0.00000000000E+00  0.00000000000E+00  0.26287248200E+03  0.29107892708E+03  0.12500000000E+03 0.  0.
<mgrwt>
<rscale>  0 0.12500000E+03</rscale>
<asrwt>0</asrwt>
<pdfrwt beam="1">  1       21 0.42611643E-01 0.12500000E+03</pdfrwt>
<pdfrwt beam="2">  1       21 0.21697268E-02 0.12500000E+03</pdfrwt>
<totfact> 0.56205797E+06</totfact>
</mgrwt>
</event>
<event>
 3    1  0.1603864E-001  0.1250000E+03  0.7546771E-02  0.1235069E+00
         21   -1    0    0  502  501  0.00000000000E+00  0.00000000000E+00  0.39916158552E+01  0.39916158552E+01  0.00000000000E+00 0. -1.
         21   -1    0    0  501  502 -0.00000000000E+00 -0.00000000000E+00 -0.97861370977E+03  0.97861370977E+03  0.00000000000E+00 0. -1.
         25    1    1    2    0    0  0.00000000000E+00  0.00000000000E+00 -0.97462209391E+03  0.98260532562E+03  0.12500000000E+03 0.  0.
<mgrwt>
<rscale>  0 0.12500000E+03</rscale>
<asrwt>0</asrwt>
<pdfrwt beam="1">  1       21 0.61409418E-03 0.12500000E+03</pdfrwt>
<pdfrwt beam="2">  1       21 0.15055609E+00 0.12500000E+03</pdfrwt>
<totfact> 0.24058261E+06</totfact>
</mgrwt>
</event>
<event>
 3    1  0.1603864E-001  0.1250000E+03  0.7546771E-02  0.1235069E+00
         21   -1    0    0  502  501  0.00000000000E+00  0.00000000000E+00  0.24763746066E+02  0.24763746066E+02  0.00000000000E+00 0. -1.
         21   -1    0    0  501  502 -0.00000000000E+00 -0.00000000000E+00 -0.15774067419E+03  0.15774067419E+03  0.00000000000E+00 0. -1.
         25    1    1    2    0    0  0.00000000000E+00  0.00000000000E+00 -0.13297692813E+03  0.18250442026E+03  0.12500000000E+03 0.  0.
<mgrwt>
<rscale>  0 0.12500000E+03</rscale>
<asrwt>0</asrwt>
<pdfrwt beam="1">  1       21 0.38098072E-02 0.12500000E+03</pdfrwt>
<pdfrwt beam="2">  1       21 0.24267795E-01 0.12500000E+03</pdfrwt>
<totfact> 0.66865393E+06</totfact>
</mgrwt>
</event>
<event>
 3    1  0.1603864E-001  0.1250000E+03  0.7546771E-02  0.1235069E+00
         21   -1    0    0  502  501  0.00000000000E+00  0.00000000000E+00  0.31820318075E+02  0.31820318075E+02  0.00000000000E+00 0. -1.
         21   -1    0    0  501  502 -0.00000000000E+00 -0.00000000000E+00 -0.12275961512E+03  0.12275961512E+03  0.00000000000E+00 0. -1.
         25    1    1    2    0    0  0.00000000000E+00  0.00000000000E+00 -0.90939297047E+02  0.15457993320E+03  0.12500000000E+03 0.  0.
<mgrwt>
<rscale>  0 0.12500000E+03</rscale>
<asrwt>0</asrwt>
<pdfrwt beam="1">  1       21 0.48954336E-02 0.12500000E+03</pdfrwt>
<pdfrwt beam="2">  1       21 0.18886095E-01 0.12500000E+03</pdfrwt>
<totfact> 0.70187905E+06</totfact>
</mgrwt>
</event>
<event>
 3    1  0.1603864E-001  0.1250000E+03  0.7546771E-02  0.1235069E+00
         21   -1    0    0  502  501  0.00000000000E+00  0.00000000000E+00  0.13791544181E+03  0.13791544181E+03  0.00000000000E+00 0. -1.
         21   -1    0    0  501  502 -0.00000000000E+00 -0.00000000000E+00 -0.28323514385E+02  0.28323514385E+02  0.00000000000E+00 0. -1.
         25    1    1    2    0    0  0.00000000000E+00  0.00000000000E+00  0.10959192742E+03  0.16623895619E+03  0.12500000000E+03 0.  0.
<mgrwt>
<rscale>  0 0.12500000E+03</rscale>
<asrwt>0</asrwt>
<pdfrwt beam="1">  1       21 0.21217760E-01 0.12500000E+03</pdfrwt>
<pdfrwt beam="2">  1       21 0.43574638E-02 0.12500000E+03</pdfrwt>
<totfact> 0.68765085E+06</totfact>
</mgrwt>
</event>
<event>
 3    1  0.1603864E-001  0.1250000E+03  0.7546771E-02  0.1235069E+00
         21   -1    0    0  502  501  0.00000000000E+00  0.00000000000E+00  0.48820972730E+02  0.48820972730E+02  0.00000000000E+00 0. -1.
         21   -1    0    0  501  502 -0.00000000000E+00 -0.00000000000E+00 -0.80011719997E+02  0.80011719997E+02  0.00000000000E+00 0. -1.
         25    1    1    2    0    0  0.00000000000E+00  0.00000000000E+00 -0.31190747267E+02  0.12883269273E+03  0.12500000000E+03 0.  0.
<mgrwt>
<rscale>  0 0.12500000E+03</rscale>
<asrwt>0</asrwt>
<pdfrwt beam="1">  1       21 0.75109190E-02 0.12500000E+03</pdfrwt>
<pdfrwt beam="2">  1       21 0.12309495E-01 0.12500000E+03</pdfrwt>
<totfact> 0.73521360E+06</totfact>
</mgrwt>
</event>
<event>
 3    1  0.1603864E-001  0.1250000E+03  0.7546771E-02  0.1235069E+00
         21   -1    0    0  502  501  0.00000000000E+00  0.00000000000E+00  0.26758060927E+02  0.26758060927E+02  0.00000000000E+00 0.  1.
         21   -1    0    0  501  502 -0.00000000000E+00 -0.00000000000E+00 -0.14598404610E+03  0.14598404610E+03  0.00000000000E+00 0.  1.
         25    1    1    2    0    0  0.00000000000E+00  0.00000000000E+00 -0.11922598517E+03  0.17274210703E+03  0.12500000000E+03 0.  0.
<mgrwt>
<rscale>  0 0.12500000E+03</rscale>
<asrwt>0</asrwt>
<pdfrwt beam="1">  1       21 0.41166248E-02 0.12500000E+03</pdfrwt>
<pdfrwt beam="2">  1       21 0.22459084E-01 0.12500000E+03</pdfrwt>
<totfact> 0.67994052E+06</totfact>
</mgrwt>
</event>
<event>
 3    1  0.1603864E-001  0.1250000E+03  0.7546771E-02  0.1235069E+00
         21   -1    0    0  502  501  0.00000000000E+00  0.00000000000E+00  0.53627843784E+01  0.53627843784E+01  0.00000000000E+00 0. -1.
         21   -1    0    0  501  502 -0.00000000000E+00 -0.00000000000E+00 -0.72839960072E+03  0.72839960072E+03  0.00000000000E+00 0. -1.
         25    1    1    2    0    0  0.00000000000E+00  0.00000000000E+00 -0.72303681635E+03  0.73376238510E+03  0.12500000000E+03 0.  0.
<mgrwt>
<rscale>  0 0.12500000E+03</rscale>
<asrwt>0</asrwt>
<pdfrwt beam="1">  1       21 0.82504345E-03 0.12500000E+03</pdfrwt>
<pdfrwt beam="2">  1       21 0.11206152E+00 0.12500000E+03</pdfrwt>
<totfact> 0.31648366E+06</totfact>
</mgrwt>
</event>
<event>
 3    1  0.1603864E-001  0.1250000E+03  0.7546771E-02  0.1235069E+00
         21   -1    0    0  502  501  0.00000000000E+00  0.00000000000E+00  0.14480582654E+02  0.14480582654E+02  0.00000000000E+00 0. -1.
         21   -1    0    0  501  502 -0.00000000000E+00 -0.00000000000E+00 -0.26975779176E+03  0.26975779176E+03  0.00000000000E+00 0. -1.
         25    1    1    2    0    0  0.00000000000E+00  0.00000000000E+00 -0.25527720910E+03  0.28423837441E+03  0.12500000000E+03 0.  0.
<mgrwt>
<rscale>  0 0.12500000E+03</rscale>
<asrwt>0</asrwt>
<pdfrwt beam="1">  1       21 0.22277821E-02 0.12500000E+03</pdfrwt>
<pdfrwt beam="2">  1       21 0.41501196E-01 0.12500000E+03</pdfrwt>
<totfact> 0.56792004E+06</totfact>
</mgrwt>
</event>
<event>
 3    1  0.1603864E-001  0.1250000E+03  0.7546771E-02  0.1235069E+00
         21   -1    0    0  502  501  0.00000000000E+00  0.00000000000E+00  0.23894060249E+02  0.23894060249E+02  0.00000000000E+00 0. -1.
         21   -1    0    0  501  502 -0.00000000000E+00 -0.00000000000E+00 -0.16348205200E+03  0.16348205200E+03  0.00000000000E+00 0. -1.
         25    1    1    2    0    0  0.00000000000E+00  0.00000000000E+00 -0.13958799175E+03  0.18737611225E+03  0.12500000000E+03 0.  0.
<mgrwt>
<rscale>  0 0.12500000E+03</rscale>
<asrwt>0</asrwt>
<pdfrwt beam="1">  1       21 0.36760094E-02 0.12500000E+03</pdfrwt>
<pdfrwt beam="2">  1       21 0.25151084E-01 0.12500000E+03</pdfrwt>
<totfact> 0.66315279E+06</totfact>
</mgrwt>
</event>
<event>
 3    1  0.1603864E-001  0.1250000E+03  0.7546771E-02  0.1235069E+00
         21   -1    0    0  502  501  0.00000000000E+00  0.00000000000E+00  0.13746274747E+03  0.13746274747E+03  0.00000000000E+00 0.  1.
         21   -1    0    0  501  502 -0.00000000000E+00 -0.00000000000E+00 -0.28416789799E+02  0.28416789799E+02  0.00000000000E+00 0.  1.
         25    1    1    2    0    0  0.00000000000E+00  0.00000000000E+00  0.10904595767E+03  0.16587953727E+03  0.12500000000E+03 0.  0.
<mgrwt>
<rscale>  0 0.12500000E+03</rscale>
<asrwt>0</asrwt>
<pdfrwt beam="1">  1       21 0.21148114E-01 0.12500000E+03</pdfrwt>
<pdfrwt beam="2">  1       21 0.43718139E-02 0.12500000E+03</pdfrwt>
<totfact> 0.68808122E+06</totfact>
</mgrwt>
</event>
<event>
 3    1  0.1603864E-001  0.1250000E+03  0.7546771E-02  0.1235069E+00
         21   -1    0    0  502  501  0.00000000000E+00  0.00000000000E+00  0.31834222201E+02  0.31834222201E+02  0.00000000000E+00 0. -1.
         21   -1    0    0  501  502 -0.00000000000E+00 -0.00000000000E+00 -0.12270599782E+03  0.12270599782E+03  0.00000000000E+00 0. -1.
         25    1    1    2    0    0  0.00000000000E+00  0.00000000000E+00 -0.90871775621E+02  0.15454022002E+03  0.12500000000E+03 0.  0.
<mgrwt>
<rscale>  0 0.12500000E+03</rscale>
<asrwt>0</asrwt>
<pdfrwt beam="1">  1       21 0.48975726E-02 0.12500000E+03</pdfrwt>
<pdfrwt beam="2">  1       21 0.18877846E-01 0.12500000E+03</pdfrwt>
<totfact> 0.70192848E+06</totfact>
</mgrwt>
</event>
<event>
 3    1  0.1603864E-001  0.1250000E+03  0.7546771E-02  0.1235069E+00
         21   -1    0    0  502  501  0.00000000000E+00  0.00000000000E+00  0.24444900357E+02  0.24444900357E+02  0.00000000000E+00 0.  1.
         21   -1    0    0  501  502 -0.00000000000E+00 -0.00000000000E+00 -0.15979815597E+03  0.15979815597E+03  0.00000000000E+00 0.  1.
         25    1    1    2    0    0  0.00000000000E+00  0.00000000000E+00 -0.13535325562E+03  0.18424305633E+03  0.12500000000E+03 0.  0.
<mgrwt>
<rscale>  0 0.12500000E+03</rscale>
<asrwt>0</asrwt>
<pdfrwt beam="1">  1       21 0.37607539E-02 0.12500000E+03</pdfrwt>
<pdfrwt beam="2">  1       21 0.24584331E-01 0.12500000E+03</pdfrwt>
<totfact> 0.66668089E+06</totfact>
</mgrwt>
</event>
<event>
 3    1  0.1603864E-001  0.1250000E+03  0.7546771E-02  0.1235069E+00
         21   -1    0    0  502  501  0.00000000000E+00  0.00000000000E+00  0.52809850292E+03  0.52809850292E+03  0.00000000000E+00 0.  1.
         21   -1    0    0  501  502 -0.00000000000E+00 -0.00000000000E+00 -0.73968208174E+01  0.73968208174E+01  0.00000000000E+00 0.  1.
         25    1    1    2    0    0  0.00000000000E+00  0.00000000000E+00  0.52070168210E+03  0.53549532373E+03  0.12500000000E+03 0.  0.
<mgrwt>
<rscale>  0 0.12500000E+03</rscale>
<asrwt>0</asrwt>
<pdfrwt beam="1">  1       21 0.81245894E-01 0.12500000E+03</pdfrwt>
<pdfrwt beam="2">  1       21 0.11379728E-02 0.12500000E+03</pdfrwt>
<totfact> 0.40182272E+06</totfact>
</mgrwt>
</event>
<event>
 3    1  0.1603864E-001  0.1250000E+03  0.7546771E-02  0.1235069E+00
         21   -1    0    0  502  501  0.00000000000E+00  0.00000000000E+00  0.24834055064E+03  0.24834055064E+03  0.00000000000E+00 0. -1.
         21   -1    0    0  501  502 -0.00000000000E+00 -0.00000000000E+00 -0.15729408628E+02  0.15729408628E+02  0.00000000000E+00 0. -1.
         25    1    1    2    0    0  0.00000000000E+00  0.00000000000E+00  0.23261114201E+03  0.26406995927E+03  0.12500000000E+03 0.  0.
<mgrwt>
<rscale>  0 0.12500000E+03</rscale>
<asrwt>0</asrwt>
<pdfrwt beam="1">  1       21 0.38206236E-01 0.12500000E+03</pdfrwt>
<pdfrwt beam="2">  1       21 0.24199092E-02 0.12500000E+03</pdfrwt>
<totfact> 0.58578236E+06</totfact>
</mgrwt>
</event>
<event>
 3    1  0.1603864E-001  0.1250000E+03  0.7546771E-02  0.1235069E+00
         21   -1    0    0  502  501  0.00000000000E+00  0.00000000000E+00  0.54450653294E+01  0.54450653294E+01  0.00000000000E+00 0. -1.
         21   -1    0    0  501  502 -0.00000000000E+00 -0.00000000000E+00 -0.71739267827E+03  0.71739267827E+03  0.00000000000E+00 0. -1.
         25    1    1    2    0    0  0.00000000000E+00  0.00000000000E+00 -0.71194761294E+03  0.72283774360E+03  0.12500000000E+03 0.  0.
<mgrwt>
<rscale>  0 0.12500000E+03</rscale>
<asrwt>0</asrwt>
<pdfrwt beam="1">  1       21 0.83770220E-03 0.12500000E+03</pdfrwt>
<pdfrwt beam="2">  1       21 0.11036812E+00 0.12500000E+03</pdfrwt>
<totfact> 0.32048047E+06</totfact>
</mgrwt>
</event>
<event>
 3    1  0.1603864E-001  0.1250000E+03  0.7546771E-02  0.1235069E+00
         21   -1    0    0  502  501  0.00000000000E+00  0.00000000000E+00  0.59304454834E+02  0.59304454834E+02  0.00000000000E+00 0.  1.
         21   -1    0    0  501  502 -0.00000000000E+00 -0.00000000000E+00 -0.65867733056E+02  0.65867733056E+02  0.00000000000E+00 0.  1.
         25    1    1    2    0    0  0.00000000000E+00  0.00000000000E+00 -0.65632782219E+01  0.12517218789E+03  0.12500000000E+03 0.  0.
<mgrwt>
<rscale>  0 0.12500000E+03</rscale>
<asrwt>0</asrwt>
<pdfrwt beam="1">  1       21 0.91237623E-02 0.12500000E+03</pdfrwt>
<pdfrwt beam="2">  1       21 0.10133497E-01 0.12500000E+03</pdfrwt>
<totfact> 0.74020327E+06</totfact>
</mgrwt>
</event>
<event>
 3    1  0.1603864E-001  0.1250000E+03  0.7546771E-02  0.1235069E+00
         21   -1    0    0  502  501  0.00000000000E+00  0.00000000000E+00  0.51492853924E+02  0.51492853924E+02  0.00000000000E+00 0.  1.
         21   -1    0    0  501  502 -0.00000000000E+00 -0.00000000000E+00 -0.75860040808E+02  0.75860040808E+02  0.00000000000E+00 0.  1.
         25    1    1    2    0    0  0.00000000000E+00  0.00000000000E+00 -0.24367186884E+02  0.12735289473E+03  0.12500000000E+03 0.  0.
<mgrwt>
<rscale>  0 0.12500000E+03</rscale>
<asrwt>0</asrwt>
<pdfrwt beam="1">  1       21 0.79219776E-02 0.12500000E+03</pdfrwt>
<pdfrwt beam="2">  1       21 0.11670775E-01 0.12500000E+03</pdfrwt>
<totfact> 0.73721171E+06</totfact>
</mgrwt>
</event>
<event>
 3    1  0.1603864E-001  0.1250000E+03  0.7546771E-02  0.1235069E+00
         21   -1    0    0  502  501  0.00000000000E+00  0.00000000000E+00  0.53212920726E+02  0.53212920726E+02  0.00000000000E+00 0. -1.
         21   -1    0    0  501  502 -0.00000000000E+00 -0.00000000000E+00 -0.73407923240E+02  0.73407923240E+02  0.00000000000E+00 0. -1.
         25    1    1    2    0    0  0.00000000000E+00  0.00000000000E+00 -0.20195002514E+02  0.12662084397E+03  0.12500000000E+03 0.  0.
<mgrwt>
<rscale>  0 0.12500000E+03</rscale>
<asrwt>0</asrwt>
<pdfrwt beam="1">  1       21 0.81866032E-02 0.12500000E+03</pdfrwt>
<pdfrwt beam="2">  1       21 0.11293527E-01 0.12500000E+03</pdfrwt>
<totfact> 0.73820847E+06</totfact>
</mgrwt>
</event>
<event>
 3    1  0.1603864E-001  0.1250000E+03  0.7546771E-02  0.1235069E+00
         21   -1    0    0  502  501  0.00000000000E+00  0.00000000000E+00  0.25282378398E+03  0.25282378398E+03  0.00000000000E+00 0. -1.
         21   -1    0    0  501  502 -0.00000000000E+00 -0.00000000000E+00 -0.15450484676E+02  0.15450484676E+02  0.00000000000E+00 0. -1.
         25    1    1    2    0    0  0.00000000000E+00  0.00000000000E+00  0.23737329930E+03  0.26827426865E+03  0.12500000000E+03 0.  0.
<mgrwt>
<rscale>  0 0.12500000E+03</rscale>
<asrwt>0</asrwt>
<pdfrwt beam="1">  1       21 0.38895964E-01 0.12500000E+03</pdfrwt>
<pdfrwt beam="2">  1       21 0.23769978E-02 0.12500000E+03</pdfrwt>
<totfact> 0.58199093E+06</totfact>
</mgrwt>
</event>
<event>
 3    1  0.1603864E-001  0.1250000E+03  0.7546771E-02  0.1235069E+00
         21   -1    0    0  502  501  0.00000000000E+00  0.00000000000E+00  0.37650423284E+02  0.37650423284E+02  0.00000000000E+00 0. -1.
         21   -1    0    0  501  502 -0.00000000000E+00 -0.00000000000E+00 -0.10375049360E+03  0.10375049360E+03  0.00000000000E+00 0. -1.
         25    1    1    2    0    0  0.00000000000E+00  0.00000000000E+00 -0.66100070316E+02  0.14140091688E+03  0.12500000000E+03 0.  0.
<mgrwt>
<rscale>  0 0.12500000E+03</rscale>
<asrwt>0</asrwt>
<pdfrwt beam="1">  1       21 0.57923729E-02 0.12500000E+03</pdfrwt>
<pdfrwt beam="2">  1       21 0.15961614E-01 0.12500000E+03</pdfrwt>
<totfact> 0.71856946E+06</totfact>
</mgrwt>
</event>
<event>
 3    1  0.1603864E-001  0.1250000E+03  0.7546771E-02  0.1235069E+00
         21   -1    0    0  502  501  0.00000000000E+00  0.00000000000E+00  0.87706679227E+01  0.87706679227E+01  0.00000000000E+00 0.  1.
         21   -1    0    0  501  502 -0.00000000000E+00 -0.00000000000E+00 -0.44537657045E+03  0.44537657045E+03  0.00000000000E+00 0.  1.
         25    1    1    2    0    0  0.00000000000E+00  0.00000000000E+00 -0.43660590253E+03  0.45414723838E+03  0.12500000000E+03 0.  0.
<mgrwt>
<rscale>  0 0.12500000E+03</rscale>
<asrwt>0</asrwt>
<pdfrwt beam="1">  1       21 0.13493335E-02 0.12500000E+03</pdfrwt>
<pdfrwt beam="2">  1       21 0.68519473E-01 0.12500000E+03</pdfrwt>
<totfact> 0.44645143E+06</totfact>
</mgrwt>
</event>
<event>
 3    1  0.1603864E-001  0.1250000E+03  0.7546771E-02  0.1235069E+00
         21   -1    0    0  502  501  0.00000000000E+00  0.00000000000E+00  0.61626871382E+03  0.61626871382E+03  0.00000000000E+00 0.  1.
         21   -1    0    0  501  502 -0.00000000000E+00 -0.00000000000E+00 -0.63385499091E+01  0.63385499091E+01  0.00000000000E+00 0.  1.
         25    1    1    2    0    0  0.00000000000E+00  0.00000000000E+00  0.60993016391E+03  0.62260726373E+03  0.12500000000E+03 0.  0.
<mgrwt>
<rscale>  0 0.12500000E+03</rscale>
<asrwt>0</asrwt>
<pdfrwt beam="1">  1       21 0.94810524E-01 0.12500000E+03</pdfrwt>
<pdfrwt beam="2">  1       21 0.97516201E-03 0.12500000E+03</pdfrwt>
<totfact> 0.36089814E+06</totfact>
</mgrwt>
</event>
<event>
 3    1  0.1603864E-001  0.1250000E+03  0.7546771E-02  0.1235069E+00
         21   -1    0    0  502  501  0.00000000000E+00  0.00000000000E+00  0.51737184662E+01  0.51737184662E+01  0.00000000000E+00 0.  1.
         21   -1    0    0  501  502 -0.00000000000E+00 -0.00000000000E+00 -0.75501789004E+03  0.75501789004E+03  0.00000000000E+00 0.  1.
         25    1    1    2    0    0  0.00000000000E+00  0.00000000000E+00 -0.74984417158E+03  0.76019160851E+03  0.12500000000E+03 0.  0.
<mgrwt>
<rscale>  0 0.12500000E+03</rscale>
<asrwt>0</asrwt>
<pdfrwt beam="1">  1       21 0.79595649E-03 0.12500000E+03</pdfrwt>
<pdfrwt beam="2">  1       21 0.11615663E+00 0.12500000E+03</pdfrwt>
<totfact> 0.30713603E+06</totfact>
</mgrwt>
</event>
<event>
 3    1  0.1603864E-001  0.1250000E+03  0.7546771E-02  0.1235069E+00
         21   -1    0    0  502  501  0.00000000000E+00  0.00000000000E+00  0.17260933191E+03  0.17260933191E+03  0.00000000000E+00 0. -1.
         21   -1    0    0  501  502 -0.00000000000E+00 -0.00000000000E+00 -0.22630584088E+02  0.22630584088E+02  0.00000000000E+00 0. -1.
         25    1    1    2    0    0  0.00000000000E+00  0.00000000000E+00  0.14997874782E+03  0.19523991599E+03  0.12500000000E+03 0.  0.
<mgrwt>
<rscale>  0 0.12500000E+03</rscale>
<asrwt>0</asrwt>
<pdfrwt beam="1">  1       21 0.26555281E-01 0.12500000E+03</pdfrwt>
<pdfrwt beam="2">  1       21 0.34816284E-02 0.12500000E+03</pdfrwt>
<totfact> 0.65444774E+06</totfact>
</mgrwt>
</event>
<event>
 3    1  0.1603864E-001  0.1250000E+03  0.7546771E-02  0.1235069E+00
         21   -1    0    0  502  501  0.00000000000E+00  0.00000000000E+00  0.18037772816E+04  0.18037772816E+04  0.00000000000E+00 0. -1.
         21   -1    0    0  501  502 -0.00000000000E+00 -0.00000000000E+00 -0.21655944111E+01  0.21655944111E+01  0.00000000000E+00 0. -1.
         25    1    1    2    0    0  0.00000000000E+00  0.00000000000E+00  0.18016116872E+04  0.18059428760E+04  0.12500000000E+03 0.  0.
<mgrwt>
<rscale>  0 0.12500000E+03</rscale>
<asrwt>0</asrwt>
<pdfrwt beam="1">  1       21 0.27750300E+00 0.12500000E+03</pdfrwt>
<pdfrwt beam="2">  1       21 0.33316981E-03 0.12500000E+03</pdfrwt>
<totfact> 0.10001780E+06</totfact>
</mgrwt>
</event>
<event>
 3    1  0.1603864E-001  0.1250000E+03  0.7546771E-02  0.1235069E+00
         21   -1    0    0  502  501  0.00000000000E+00  0.00000000000E+00  0.17171984148E+03  0.17171984148E+03  0.00000000000E+00 0.  1.
         21   -1    0    0  501  502 -0.00000000000E+00 -0.00000000000E+00 -0.22747808094E+02  0.22747808094E+02  0.00000000000E+00 0.  1.
         25    1    1    2    0    0  0.00000000000E+00  0.00000000000E+00  0.14897203339E+03  0.19446764957E+03  0.12500000000E+03 0.  0.
<mgrwt>
<rscale>  0 0.12500000E+03</rscale>
<asrwt>0</asrwt>
<pdfrwt beam="1">  1       21 0.26418436E-01 0.12500000E+03</pdfrwt>
<pdfrwt beam="2">  1       21 0.34996629E-02 0.12500000E+03</pdfrwt>
<totfact> 0.65529334E+06</totfact>
</mgrwt>
</event>
<event>
 3    1  0.1603864E-001  0.1250000E+03  0.7546771E-02  0.1235069E+00
         21   -1    0    0  502  501  0.00000000000E+00  0.00000000000E+00  0.36470824545E+02  0.36470824545E+02  0.00000000000E+00 0. -1.
         21   -1    0    0  501  502 -0.00000000000E+00 -0.00000000000E+00 -0.10710616085E+03  0.10710616085E+03  0.00000000000E+00 0. -1.
         25    1    1    2    0    0  0.00000000000E+00  0.00000000000E+00 -0.70635336302E+02  0.14357698539E+03  0.12500000000E+03 0.  0.
<mgrwt>
<rscale>  0 0.12500000E+03</rscale>
<asrwt>0</asrwt>
<pdfrwt beam="1">  1       21 0.56108963E-02 0.12500000E+03</pdfrwt>
<pdfrwt beam="2">  1       21 0.16477870E-01 0.12500000E+03</pdfrwt>
<totfact> 0.71575711E+06</totfact>
</mgrwt>
</event>
<event>
 3    1  0.1603864E-001  0.1250000E+03  0.7546771E-02  0.1235069E+00
         21   -1    0    0  502  501  0.00000000000E+00  0.00000000000E+00  0.16995555212E+02  0.16995555212E+02  0.00000000000E+00 0. -1.
         21   -1    0    0  501  502 -0.00000000000E+00 -0.00000000000E+00 -0.22983950517E+03  0.22983950517E+03  0.00000000000E+00 0. -1.
         25    1    1    2    0    0  0.00000000000E+00  0.00000000000E+00 -0.21284394996E+03  0.24683506038E+03  0.12500000000E+03 0.  0.
<mgrwt>
<rscale>  0 0.12500000E+03</rscale>
<asrwt>0</asrwt>
<pdfrwt beam="1">  1       21 0.26147010E-02 0.12500000E+03</pdfrwt>
<pdfrwt beam="2">  1       21 0.35359921E-01 0.12500000E+03</pdfrwt>
<totfact> 0.60177451E+06</totfact>
</mgrwt>
</event>
<event>
 3    1  0.1603864E-001  0.1250000E+03  0.7546771E-02  0.1235069E+00
         21   -1    0    0  502  501  0.00000000000E+00  0.00000000000E+00  0.14011771892E+03  0.14011771892E+03  0.00000000000E+00 0.  1.
         21   -1    0    0  501  502 -0.00000000000E+00 -0.00000000000E+00 -0.27878344224E+02  0.27878344224E+02  0.00000000000E+00 0.  1.
         25    1    1    2    0    0  0.00000000000E+00  0.00000000000E+00  0.11223937470E+03  0.16799606315E+03  0.12500000000E+03 0.  0.
<mgrwt>
<rscale>  0 0.12500000E+03</rscale>
<asrwt>0</asrwt>
<pdfrwt beam="1">  1       21 0.21556572E-01 0.12500000E+03</pdfrwt>
<pdfrwt beam="2">  1       21 0.42889761E-02 0.12500000E+03</pdfrwt>
<totfact> 0.68555423E+06</totfact>
</mgrwt>
</event>
<event>
 3    1  0.1603864E-001  0.1250000E+03  0.7546771E-02  0.1235069E+00
         21   -1    0    0  502  501  0.00000000000E+00  0.00000000000E+00  0.10862802371E+02  0.10862802371E+02  0.00000000000E+00 0.  1.
         21   -1    0    0  501  502 -0.00000000000E+00 -0.00000000000E+00 -0.35959873581E+03  0.35959873581E+03  0.00000000000E+00 0.  1.
         25    1    1    2    0    0  0.00000000000E+00  0.00000000000E+00 -0.34873593344E+03  0.37046153819E+03  0.12500000000E+03 0.  0.
<mgrwt>
<rscale>  0 0.12500000E+03</rscale>
<asrwt>0</asrwt>
<pdfrwt beam="1">  1       21 0.16712004E-02 0.12500000E+03</pdfrwt>
<pdfrwt beam="2">  1       21 0.55322880E-01 0.12500000E+03</pdfrwt>
<totfact> 0.50061888E+06</totfact>
</mgrwt>
</event>
<event>
 3    1  0.1603864E-001  0.1250000E+03  0.7546771E-02  0.1235069E+00
         21   -1    0    0  502  501  0.00000000000E+00  0.00000000000E+00  0.21768843682E+02  0.21768843682E+02  0.00000000000E+00 0. -1.
         21   -1    0    0  501  502 -0.00000000000E+00 -0.00000000000E+00 -0.17944223667E+03  0.17944223667E+03  0.00000000000E+00 0. -1.
         25    1    1    2    0    0  0.00000000000E+00  0.00000000000E+00 -0.15767339299E+03  0.20121108035E+03  0.12500000000E+03 0.  0.
<mgrwt>
<rscale>  0 0.12500000E+03</rscale>
<asrwt>0</asrwt>
<pdfrwt beam="1">  1       21 0.33490528E-02 0.12500000E+03</pdfrwt>
<pdfrwt beam="2">  1       21 0.27606499E-01 0.12500000E+03</pdfrwt>
<totfact> 0.64796259E+06</totfact>
</mgrwt>
</event>
<event>
 3    1  0.1603864E-001  0.1250000E+03  0.7546771E-02  0.1235069E+00
         21   -1    0    0  502  501  0.00000000000E+00  0.00000000000E+00  0.18414849745E+02  0.18414849745E+02  0.00000000000E+00 0.  1.
         21   -1    0    0  501  502 -0.00000000000E+00 -0.00000000000E+00 -0.21212499988E+03  0.21212499988E+03  0.00000000000E+00 0.  1.
         25    1    1    2    0    0  0.00000000000E+00  0.00000000000E+00 -0.19371015013E+03  0.23053984962E+03  0.12500000000E+03 0.  0.
<mgrwt>
<rscale>  0 0.12500000E+03</rscale>
<asrwt>0</asrwt>
<pdfrwt beam="1">  1       21 0.28330536E-02 0.12500000E+03</pdfrwt>
<pdfrwt beam="2">  1       21 0.32634618E-01 0.12500000E+03</pdfrwt>
<totfact> 0.61760294E+06</totfact>
</mgrwt>
</event>
<event>
 3    1  0.1603864E-001  0.1250000E+03  0.7546771E-02  0.1235069E+00
         21   -1    0    0  502  501  0.00000000000E+00  0.00000000000E+00  0.31795120818E+02  0.31795120818E+02  0.00000000000E+00 0. -1.
         21   -1    0    0  501  502 -0.00000000000E+00 -0.00000000000E+00 -0.12285690067E+03  0.12285690067E+03  0.00000000000E+00 0. -1.
         25    1    1    2    0    0  0.00000000000E+00  0.00000000000E+00 -0.91061779850E+02  0.15465202149E+03  0.12500000000E+03 0.  0.
<mgrwt>
<rscale>  0 0.12500000E+03</rscale>
<asrwt>0</asrwt>
<pdfrwt beam="1">  1       21 0.48915569E-02 0.12500000E+03</pdfrwt>
<pdfrwt beam="2">  1       21 0.18901062E-01 0.12500000E+03</pdfrwt>
<totfact> 0.70178934E+06</totfact>
</mgrwt>
</event>
<event>
 3    1  0.1603864E-001  0.1250000E+03  0.7546771E-02  0.1235069E+00
         21   -1    0    0  502  501  0.00000000000E+00  0.00000000000E+00  0.32761916754E+01  0.32761916754E+01  0.00000000000E+00 0.  1.
         21   -1    0    0  501  502 -0.00000000000E+00 -0.00000000000E+00 -0.11923142438E+04  0.11923142438E+04  0.00000000000E+00 0.  1.
         25    1    1    2    0    0  0.00000000000E+00  0.00000000000E+00 -0.11890380521E+04  0.11955904355E+04  0.12500000000E+03 0.  0.
<mgrwt>
<rscale>  0 0.12500000E+03</rscale>
<asrwt>0</asrwt>
<pdfrwt beam="1">  1       21 0.50402903E-03 0.12500000E+03</pdfrwt>
<pdfrwt beam="2">  1       21 0.18343313E+00 0.12500000E+03</pdfrwt>
<totfact> 0.19231440E+06</totfact>
</mgrwt>
</event>
<event>
 3    1  0.1603864E-001  0.1250000E+03  0.7546771E-02  0.1235069E+00
         21   -1    0    0  502  501  0.00000000000E+00  0.00000000000E+00  0.39496929878E+03  0.39496929878E+03  0.00000000000E+00 0. -1.
         21   -1    0    0  501  502 -0.00000000000E+00 -0.00000000000E+00 -0.98900092034E+01  0.98900092034E+01  0.00000000000E+00 0. -1.
         25    1    1    2    0    0  0.00000000000E+00  0.00000000000E+00  0.38507928958E+03  0.40485930798E+03  0.12500000000E+03 0.  0.
<mgrwt>
<rscale>  0 0.12500000E+03</rscale>
<asrwt>0</asrwt>
<pdfrwt beam="1">  1       21 0.60764495E-01 0.12500000E+03</pdfrwt>
<pdfrwt beam="2">  1       21 0.15215402E-02 0.12500000E+03</pdfrwt>
<totfact> 0.47720705E+06</totfact>
</mgrwt>
</event>
<event>
 3    1  0.1603864E-001  0.1250000E+03  0.7546771E-02  0.1235069E+00
         21   -1    0    0  502  501  0.00000000000E+00  0.00000000000E+00  0.17746202578E+03  0.17746202578E+03  0.00000000000E+00 0. -1.
         21   -1    0    0  501  502 -0.00000000000E+00 -0.00000000000E+00 -0.22011751431E+02  0.22011751431E+02  0.00000000000E+00 0. -1.
         25    1    1    2    0    0  0.00000000000E+00  0.00000000000E+00  0.15545027435E+03  0.19947377721E+03  0.12500000000E+03 0.  0.
<mgrwt>
<rscale>  0 0.12500000E+03</rscale>
<asrwt>0</asrwt>
<pdfrwt beam="1">  1       21 0.27301849E-01 0.12500000E+03</pdfrwt>
<pdfrwt beam="2">  1       21 0.33864234E-02 0.12500000E+03</pdfrwt>
<totfact> 0.64984317E+06</totfact>
</mgrwt>
</event>
<event>
 3    1  0.1603864E-001  0.1250000E+03  0.7546771E-02  0.1235069E+00
         21   -1    0    0  502  501  0.00000000000E+00  0.00000000000E+00  0.40448579741E+02  0.40448579741E+02  0.00000000000E+00 0. -1.
         21   -1    0    0  501  502 -0.00000000000E+00 -0.00000000000E+00 -0.96573230136E+02  0.96573230136E+02  0.00000000000E+00 0. -1.
         25    1    1    2    0    0  0.00000000000E+00  0.00000000000E+00 -0.56124650394E+02  0.13702180988E+03  0.12500000000E+03 0.  0.
<mgrwt>
<rscale>  0 0.12500000E+03</rscale>
<asrwt>0</asrwt>
<pdfrwt beam="1">  1       21 0.62228585E-02 0.12500000E+03</pdfrwt>
<pdfrwt beam="2">  1       21 0.14857420E-01 0.12500000E+03</pdfrwt>
<totfact> 0.72429862E+06</totfact>
</mgrwt>
</event>
<event>
 3    1  0.1603864E-001  0.1250000E+03  0.7546771E-02  0.1235069E+00
         21   -1    0    0  502  501  0.00000000000E+00  0.00000000000E+00  0.13816225031E+04  0.13816225031E+04  0.00000000000E+00 0. -1.
         21   -1    0    0  501  502 -0.00000000000E+00 -0.00000000000E+00 -0.28272918191E+01  0.28272918191E+01  0.00000000000E+00 0. -1.
         25    1    1    2    0    0  0.00000000000E+00  0.00000000000E+00  0.13787952113E+04  0.13844497949E+04  0.12500000000E+03 0.  0.
<mgrwt>
<rscale>  0 0.12500000E+03</rscale>
<asrwt>0</asrwt>
<pdfrwt beam="1">  1       21 0.21255677E+00 0.12500000E+03</pdfrwt>
<pdfrwt beam="2">  1       21 0.43496908E-03 0.12500000E+03</pdfrwt>
<totfact> 0.15799877E+06</totfact>
</mgrwt>
</event>
<event>
 3    1  0.1603864E-001  0.1250000E+03  0.7546771E-02  0.1235069E+00
         21   -1    0    0  502  501  0.00000000000E+00  0.00000000000E+00  0.75019143837E+02  0.75019143837E+02  0.00000000000E+00 0. -1.
         21   -1    0    0  501  502 -0.00000000000E+00 -0.00000000000E+00 -0.52070042394E+02  0.52070042394E+02  0.00000000000E+00 0. -1.
         25    1    1    2    0    0  0.00000000000E+00  0.00000000000E+00  0.22949101443E+02  0.12708918623E+03  0.12500000000E+03 0.  0.
<mgrwt>
<rscale>  0 0.12500000E+03</rscale>
<asrwt>0</asrwt>
<pdfrwt beam="1">  1       21 0.11541407E-01 0.12500000E+03</pdfrwt>
<pdfrwt beam="2">  1       21 0.80107757E-02 0.12500000E+03</pdfrwt>
<totfact> 0.73757000E+06</totfact>
</mgrwt>
</event>
<event>
 3    1  0.1603864E-001  0.1250000E+03  0.7546771E-02  0.1235069E+00
         21   -1    0    0  502  501  0.00000000000E+00  0.00000000000E+00  0.43865976155E+03  0.43865976155E+03  0.00000000000E+00 0.  1.
         21   -1    0    0  501  502 -0.00000000000E+00 -0.00000000000E+00 -0.89049654024E+01  0.89049654024E+01  0.00000000000E+00 0.  1.
         25    1    1    2    0    0  0.00000000000E+00  0.00000000000E+00  0.42975479614E+03  0.44756472695E+03  0.12500000000E+03 0.  0.
<mgrwt>
<rscale>  0 0.12500000E+03</rscale>
<asrwt>0</asrwt>
<pdfrwt beam="1">  1       21 0.67486100E-01 0.12500000E+03</pdfrwt>
<pdfrwt beam="2">  1       21 0.13699950E-02 0.12500000E+03</pdfrwt>
<totfact> 0.45038356E+06</totfact>
</mgrwt>
</event>
<event>
 3    1  0.1603864E-001  0.1250000E+03  0.7546771E-02  0.1235069E+00
         21   -1    0    0  502  501  0.00000000000E+00  0.00000000000E+00  0.44920517010E+01  0.44920517010E+01  0.00000000000E+00 0.  1.
         21   -1    0    0  501  502 -0.00000000000E+00 -0.00000000000E+00 -0.86959150519E+03  0.86959150519E+03  0.00000000000E+00 0.  1.
         25    1    1    2    0    0  0.00000000000E+00  0.00000000000E+00 -0.86509945348E+03  0.87408355689E+03  0.12500000000E+03 0.  0.
<mgrwt>
<rscale>  0 0.12500000E+03</rscale>
<asrwt>0</asrwt>
<pdfrwt beam="1">  1       21 0.69108536E-03 0.12500000E+03</pdfrwt>
<pdfrwt beam="2">  1       21 0.13378322E+00 0.12500000E+03</pdfrwt>
<totfact> 0.27049854E+06</totfact>
</mgrwt>
</event>
<event>
 3    1  0.1603864E-001  0.1250000E+03  0.7546771E-02  0.1235069E+00
         21   -1    0    0  502  501  0.00000000000E+00  0.00000000000E+00  0.42234696231E+02  0.42234696231E+02  0.00000000000E+00 0.  1.
         21   -1    0    0  501  502 -0.00000000000E+00 -0.00000000000E+00 -0.92489122655E+02  0.92489122655E+02  0.00000000000E+00 0.  1.
         25    1    1    2    0    0  0.00000000000E+00  0.00000000000E+00 -0.50254426424E+02  0.13472381889E+03  0.12500000000E+03 0.  0.
<mgrwt>
<rscale>  0 0.12500000E+03</rscale>
<asrwt>0</asrwt>
<pdfrwt beam="1">  1       21 0.64976456E-02 0.12500000E+03</pdfrwt>
<pdfrwt beam="2">  1       21 0.14229096E-01 0.12500000E+03</pdfrwt>
<totfact> 0.72733061E+06</totfact>
</mgrwt>
</event>
<event>
 3    1  0.1603864E-001  0.1250000E+03  0.7546771E-02  0.1235069E+00
         21   -1    0    0  502  501  0.00000000000E+00  0.00000000000E+00  0.32448558630E+02  0.32448558630E+02  0.00000000000E+00 0. -1.
         21   -1    0    0  501  502 -0.00000000000E+00 -0.00000000000E+00 -0.12038285104E+03  0.12038285104E+03  0.00000000000E+00 0. -1.
         25    1    1    2    0    0  0.00000000000E+00  0.00000000000E+00 -0.87934292409E+02  0.15283140967E+03  0.12500000000E+03 0.  0.
<mgrwt>
<rscale>  0 0.12500000E+03</rscale>
<asrwt>0</asrwt>
<pdfrwt beam="1">  1       21 0.49920860E-02 0.12500000E+03</pdfrwt>
<pdfrwt beam="2">  1       21 0.18520438E-01 0.12500000E+03</pdfrwt>
<totfact> 0.70405310E+06</totfact>
</mgrwt>
</event>
<event>
 3    1  0.1603864E-001  0.1250000E+03  0.7546771E-02  0.1235069E+00
         21   -1    0    0  502  501  0.00000000000E+00  0.00000000000E+00  0.28587702055E+02  0.28587702055E+02  0.00000000000E+00 0.  1.
         21   -1    0    0  501  502 -0.00000000000E+00 -0.00000000000E+00 -0.13664092317E+03  0.13664092317E+03  0.00000000000E+00 0.  1.
         25    1    1    2    0    0  0.00000000000E+00  0.00000000000E+00 -0.10805322111E+03  0.16522862522E+03  0.12500000000E+03 0.  0.
<mgrwt>
<rscale>  0 0.12500000E+03</rscale>
<asrwt>0</asrwt>
<pdfrwt beam="1">  1       21 0.43981080E-02 0.12500000E+03</pdfrwt>
<pdfrwt beam="2">  1       21 0.21021681E-01 0.12500000E+03</pdfrwt>
<totfact> 0.68886191E+06</totfact>
</mgrwt>
</event>
<event>
 3    1  0.1603864E-001  0.1250000E+03  0.7546771E-02  0.1235069E+00
         21   -1    0    0  502  501  0.00000000000E+00  0.00000000000E+00  0.70049229603E+01  0.70049229603E+01  0.00000000000E+00 0. -1.
         21   -1    0    0  501  502 -0.00000000000E+00 -0.00000000000E+00 -0.55764353472E+03  0.55764353472E+03  0.00000000000E+00 0. -1.
         25    1    1    2    0    0  0.00000000000E+00  0.00000000000E+00 -0.55063861176E+03  0.56464845768E+03  0.12500000000E+03 0.  0.
<mgrwt>
<rscale>  0 0.12500000E+03</rscale>
<asrwt>0</asrwt>
<pdfrwt beam="1">  1       21 0.10776805E-02 0.12500000E+03</pdfrwt>
<pdfrwt beam="2">  1       21 0.85791313E-01 0.12500000E+03</pdfrwt>
<totfact> 0.38741774E+06</totfact>
</mgrwt>
</event>
<event>
 3    1  0.1603864E-001  0.1250000E+03  0.7546771E-02  0.1235069E+00
         21   -1    0    0  502  501  0.00000000000E+00  0.00000000000E+00  0.33956724992E+03  0.33956724992E+03  0.00000000000E+00 0.  1.
         21   -1    0    0  501  502 -0.00000000000E+00 -0.00000000000E+00 -0.11503612321E+02  0.11503612321E+02  0.00000000000E+00 0.  1.
         25    1    1    2    0    0  0.00000000000E+00  0.00000000000E+00  0.32806363760E+03  0.35107086224E+03  0.12500000000E+03 0.  0.
<mgrwt>
<rscale>  0 0.12500000E+03</rscale>
<asrwt>0</asrwt>
<pdfrwt beam="1">  1       21 0.52241108E-01 0.12500000E+03</pdfrwt>
<pdfrwt beam="2">  1       21 0.17697868E-02 0.12500000E+03</pdfrwt>
<totfact> 0.51459446E+06</totfact>
</mgrwt>
</event>
<event>
 3    1  0.1603864E-001  0.1250000E+03  0.7546771E-02  0.1235069E+00
         21   -1    0    0  502  501  0.00000000000E+00  0.00000000000E+00  0.26666484497E+01  0.26666484497E+01  0.00000000000E+00 0.  1.
         21   -1    0    0  501  502 -0.00000000000E+00 -0.00000000000E+00 -0.14648537570E+04  0.14648537570E+04  0.00000000000E+00 0.  1.
         25    1    1    2    0    0  0.00000000000E+00  0.00000000000E+00 -0.14621871085E+04  0.14675204054E+04  0.12500000000E+03 0.  0.
<mgrwt>
<rscale>  0 0.12500000E+03</rscale>
<asrwt>0</asrwt>
<pdfrwt beam="1">  1       21 0.41025268E-03 0.12500000E+03</pdfrwt>
<pdfrwt beam="2">  1       21 0.22536263E+00 0.12500000E+03</pdfrwt>
<totfact> 0.14481321E+06</totfact>
</mgrwt>
</event>
<event>
 3    1  0.1603864E-001  0.1250000E+03  0.7546771E-02  0.1235069E+00
         21   -1    0    0  502  501  0.00000000000E+00  0.00000000000E+00  0.85727802461E+01  0.85727802461E+01  0.00000000000E+00 0.  1.
         21   -1    0    0  501  502 -0.00000000000E+00 -0.00000000000E+00 -0.45565731162E+03  0.45565731162E+03  0.00000000000E+00 0.  1.
         25    1    1    2    0    0  0.00000000000E+00  0.00000000000E+00 -0.44708453137E+03  0.46423009186E+03  0.12500000000E+03 0.  0.
<mgrwt>
<rscale>  0 0.12500000E+03</rscale>
<asrwt>0</asrwt>
<pdfrwt beam="1">  1       21 0.13188890E-02 0.12500000E+03</pdfrwt>
<pdfrwt beam="2">  1       21 0.70101138E-01 0.12500000E+03</pdfrwt>
<totfact> 0.44052832E+06</totfact>
</mgrwt>
</event>
<event>
 3    1  0.1603864E-001  0.1250000E+03  0.7546771E-02  0.1235069E+00
         21   -1    0    0  502  501  0.00000000000E+00  0.00000000000E+00  0.12604273037E+03  0.12604273037E+03  0.00000000000E+00 0.  1.
         21   -1    0    0  501  502 -0.00000000000E+00 -0.00000000000E+00 -0.30991473991E+02  0.30991473991E+02  0.00000000000E+00 0.  1.
         25    1    1    2    0    0  0.00000000000E+00  0.00000000000E+00  0.95051256377E+02  0.15703420436E+03  0.12500000000E+03 0.  0.
<mgrwt>
<rscale>  0 0.12500000E+03</rscale>
<asrwt>0</asrwt>
<pdfrwt beam="1">  1       21 0.19391189E-01 0.12500000E+03</pdfrwt>
<pdfrwt beam="2">  1       21 0.47679192E-02 0.12500000E+03</pdfrwt>
<totfact> 0.69883712E+06</totfact>
</mgrwt>
</event>
<event>
 3    1  0.1603864E-001  0.1250000E+03  0.7546771E-02  0.1235069E+00
         21   -1    0    0  502  501  0.00000000000E+00  0.00000000000E+00  0.22354785120E+03  0.22354785120E+03  0.00000000000E+00 0.  1.
         21   -1    0    0  501  502 -0.00000000000E+00 -0.00000000000E+00 -0.17473887488E+02  0.17473887488E+02  0.00000000000E+00 0.  1.
         25    1    1    2    0    0  0.00000000000E+00  0.00000000000E+00  0.20607396371E+03  0.24102173869E+03  0.12500000000E+03 0.  0.
<mgrwt>
<rscale>  0 0.12500000E+03</rscale>
<asrwt>0</asrwt>
<pdfrwt beam="1">  1       21 0.34391975E-01 0.12500000E+03</pdfrwt>
<pdfrwt beam="2">  1       21 0.26882905E-02 0.12500000E+03</pdfrwt>
<totfact> 0.60733932E+06</totfact>
</mgrwt>
</event>
<event>
 3    1  0.1603864E-001  0.1250000E+03  0.7546771E-02  0.1235069E+00
         21   -1    0    0  502  501  0.00000000000E+00  0.00000000000E+00  0.81456325823E+03  0.81456325823E+03  0.00000000000E+00 0. -1.
         21   -1    0    0  501  502 -0.00000000000E+00 -0.00000000000E+00 -0.47955146031E+01  0.47955146031E+01  0.00000000000E+00 0. -1.
         25    1    1    2    0    0  0.00000000000E+00  0.00000000000E+00  0.80976774363E+03  0.81935877284E+03  0.12500000000E+03 0.  0.
<mgrwt>
<rscale>  0 0.12500000E+03</rscale>
<asrwt>0</asrwt>
<pdfrwt beam="1">  1       21 0.12531731E+00 0.12500000E+03</pdfrwt>
<pdfrwt beam="2">  1       21 0.73777212E-03 0.12500000E+03</pdfrwt>
<totfact> 0.28731402E+06</totfact>
</mgrwt>
</event>
<event>
 3    1  0.1603864E-001  0.1250000E+03  0.7546771E-02  0.1235069E+00
         21   -1    0    0  502  501  0.00000000000E+00  0.00000000000E+00  0.18815563344E+02  0.18815563344E+02  0.00000000000E+00 0. -1.
         21   -1    0    0  501  502 -0.00000000000E+00 -0.00000000000E+00 -0.20760739014E+03  0.20760739014E+03  0.00000000000E+00 0. -1.
         25    1    1    2    0    0  0.00000000000E+00  0.00000000000E+00 -0.18879182680E+03  0.22642295349E+03  0.12500000000E+03 0.  0.
<mgrwt>
<rscale>  0 0.12500000E+03</rscale>
<asrwt>0</asrwt>
<pdfrwt beam="1">  1       21 0.28947019E-02 0.12500000E+03</pdfrwt>
<pdfrwt beam="2">  1       21 0.31939600E-01 0.12500000E+03</pdfrwt>
<totfact> 0.62171768E+06</totfact>
</mgrwt>
</event>
<event>
 3    1  0.1603864E-001  0.1250000E+03  0.7546771E-02  0.1235069E+00
         21   -1    0    0  502  501  0.00000000000E+00  0.00000000000E+00  0.25449965858E+02  0.25449965858E+02  0.00000000000E+00 0. -1.
         21   -1    0    0  501  502 -0.00000000000E+00 -0.00000000000E+00 -0.15348743577E+03  0.15348743577E+03  0.00000000000E+00 0. -1.
         25    1    1    2    0    0  0.00000000000E+00  0.00000000000E+00 -0.12803746991E+03  0.17893740163E+03  0.12500000000E+03 0.  0.
<mgrwt>
<rscale>  0 0.12500000E+03</rscale>
<asrwt>0</asrwt>
<pdfrwt beam="1">  1       21 0.39153795E-02 0.12500000E+03</pdfrwt>
<pdfrwt beam="2">  1       21 0.23613451E-01 0.12500000E+03</pdfrwt>
<totfact> 0.67273644E+06</totfact>
</mgrwt>
</event>
<event>
 3    1  0.1603864E-001  0.1250000E+03  0.7546771E-02  0.1235069E+00
         21   -1    0    0  502  501  0.00000000000E+00  0.00000000000E+00  0.54750999216E+01  0.54750999216E+01  0.00000000000E+00 0.  1.
         21   -1    0    0  501  502 -0.00000000000E+00 -0.00000000000E+00 -0.71345729866E+03  0.71345729866E+03  0.00000000000E+00 0.  1.
         25    1    1    2    0    0  0.00000000000E+00  0.00000000000E+00 -0.70798219874E+03  0.71893239859E+03  0.12500000000E+03 0.  0.
<mgrwt>
<rscale>  0 0.12500000E+03</rscale>
<asrwt>0</asrwt>
<pdfrwt beam="1">  1       21 0.84232330E-03 0.12500000E+03</pdfrwt>
<pdfrwt beam="2">  1       21 0.10976263E+00 0.12500000E+03</pdfrwt>
<totfact> 0.32192903E+06</totfact>
</mgrwt>
</event>
<event>
 3    1  0.1603864E-001  0.1250000E+03  0.7546771E-02  0.1235069E+00
         21   -1    0    0  502  501  0.00000000000E+00  0.00000000000E+00  0.21188492657E+03  0.21188492657E+03  0.00000000000E+00 0. -1.
         21   -1    0    0  501  502 -0.00000000000E+00 -0.00000000000E+00 -0.18435714438E+02  0.18435714438E+02  0.00000000000E+00 0. -1.
         25    1    1    2    0    0  0.00000000000E+00  0.00000000000E+00  0.19344921213E+03  0.23032064101E+03  0.12500000000E+03 0.  0.
<mgrwt>
<rscale>  0 0.12500000E+03</rscale>
<asrwt>0</asrwt>
<pdfrwt beam="1">  1       21 0.32597679E-01 0.12500000E+03</pdfrwt>
<pdfrwt beam="2">  1       21 0.28362639E-02 0.12500000E+03</pdfrwt>
<totfact> 0.61782085E+06</totfact>
</mgrwt>
</event>
<event>
 3    1  0.1603864E-001  0.1250000E+03  0.7546771E-02  0.1235069E+00
         21   -1    0    0  502  501  0.00000000000E+00  0.00000000000E+00  0.93209646566E+02  0.93209646566E+02  0.00000000000E+00 0.  1.
         21   -1    0    0  501  502 -0.00000000000E+00 -0.00000000000E+00 -0.41908215983E+02  0.41908215983E+02  0.00000000000E+00 0.  1.
         25    1    1    2    0    0  0.00000000000E+00  0.00000000000E+00  0.51301430583E+02  0.13511786255E+03  0.12500000000E+03 0.  0.
<mgrwt>
<rscale>  0 0.12500000E+03</rscale>
<asrwt>0</asrwt>
<pdfrwt beam="1">  1       21 0.14339946E-01 0.12500000E+03</pdfrwt>
<pdfrwt beam="2">  1       21 0.64474179E-02 0.12500000E+03</pdfrwt>
<totfact> 0.72680870E+06</totfact>
</mgrwt>
</event>
<event>
 3    1  0.1603864E-001  0.1250000E+03  0.7546771E-02  0.1235069E+00
         21   -1    0    0  502  501  0.00000000000E+00  0.00000000000E+00  0.45721513073E+03  0.45721513073E+03  0.00000000000E+00 0. -1.
         21   -1    0    0  501  502 -0.00000000000E+00 -0.00000000000E+00 -0.85435711495E+01  0.85435711495E+01  0.00000000000E+00 0. -1.
         25    1    1    2    0    0  0.00000000000E+00  0.00000000000E+00  0.44867155958E+03  0.46575870187E+03  0.12500000000E+03 0.  0.
<mgrwt>
<rscale>  0 0.12500000E+03</rscale>
<asrwt>0</asrwt>
<pdfrwt beam="1">  1       21 0.70340771E-01 0.12500000E+03</pdfrwt>
<pdfrwt beam="2">  1       21 0.13143959E-02 0.12500000E+03</pdfrwt>
<totfact> 0.43964083E+06</totfact>
</mgrwt>
</event>
<event>
 3    1  0.1603864E-001  0.1250000E+03  0.7546771E-02  0.1235069E+00
         21   -1    0    0  502  501  0.00000000000E+00  0.00000000000E+00  0.14341043070E+02  0.14341043070E+02  0.00000000000E+00 0.  1.
         21   -1    0    0  501  502 -0.00000000000E+00 -0.00000000000E+00 -0.27238255830E+03  0.27238255830E+03  0.00000000000E+00 0.  1.
         25    1    1    2    0    0  0.00000000000E+00  0.00000000000E+00 -0.25804151523E+03  0.28672360137E+03  0.12500000000E+03 0.  0.
<mgrwt>
<rscale>  0 0.12500000E+03</rscale>
<asrwt>0</asrwt>
<pdfrwt beam="1">  1       21 0.22063144E-02 0.12500000E+03</pdfrwt>
<pdfrwt beam="2">  1       21 0.41905008E-01 0.12500000E+03</pdfrwt>
<totfact> 0.56577863E+06</totfact>
</mgrwt>
</event>
<event>
 3    1  0.1603864E-001  0.1250000E+03  0.7546771E-02  0.1235069E+00
         21   -1    0    0  502  501  0.00000000000E+00  0.00000000000E+00  0.23756045958E+02  0.23756045958E+02  0.00000000000E+00 0. -1.
         21   -1    0    0  501  502 -0.00000000000E+00 -0.00000000000E+00 -0.16443182535E+03  0.16443182535E+03  0.00000000000E+00 0. -1.
         25    1    1    2    0    0  0.00000000000E+00  0.00000000000E+00 -0.14067577940E+03  0.18818787131E+03  0.12500000000E+03 0.  0.
<mgrwt>
<rscale>  0 0.12500000E+03</rscale>
<asrwt>0</asrwt>
<pdfrwt beam="1">  1       21 0.36547763E-02 0.12500000E+03</pdfrwt>
<pdfrwt beam="2">  1       21 0.25297204E-01 0.12500000E+03</pdfrwt>
<totfact> 0.66224433E+06</totfact>
</mgrwt>
</event>
<event>
 3    1  0.1603864E-001  0.1250000E+03  0.7546771E-02  0.1235069E+00
         21   -1    0    0  502  501  0.00000000000E+00  0.00000000000E+00  0.43597365683E+03  0.43597365683E+03  0.00000000000E+00 0. -1.
         21   -1    0    0  501  502 -0.00000000000E+00 -0.00000000000E+00 -0.89598303447E+01  0.89598303447E+01  0.00000000000E+00 0. -1.
         25    1    1    2    0    0  0.00000000000E+00  0.00000000000E+00  0.42701382649E+03  0.44493348718E+03  0.12500000000E+03 0.  0.
<mgrwt>
<rscale>  0 0.12500000E+03</rscale>
<asrwt>0</asrwt>
<pdfrwt beam="1">  1       21 0.67072854E-01 0.12500000E+03</pdfrwt>
<pdfrwt beam="2">  1       21 0.13784358E-02 0.12500000E+03</pdfrwt>
<totfact> 0.45197003E+06</totfact>
</mgrwt>
</event>
