<event>
11    0  0.3396091E-009  0.9118800E+02  0.7816531E-02  0.1126479E+00
         25   -1    0    0    0    0  0.00000000000E+00  0.00000000000E+00  0.99999998245E-14  0.12500000000E+03  0.12500000000E+03 0.  0.
    3000001    1    3    3    0    0  0.77828999056E+01  0.69625792250E+01  0.55105933628E+02  0.56095587718E+02  0.10000000000E+01 0.  1.
    1000022    2    1    0    0    0  0.54929868059E+01  0.67498942350E+01  0.61077952174E+02  0.62499995730E+02  0.99999624064E+01 0.  0.
    3000022    2    3    3    0    0 -0.22899130997E+01 -0.21268498998E+00  0.59720185467E+01  0.64044080118E+01  0.24999910115E+00 0.  0.
    1000022    2    1    0    0    0 -0.54929868059E+01 -0.67498942350E+01 -0.61077952174E+02  0.62500004270E+02  0.10000015787E+02 0.  0.
    3000022    2    5    5    0    0 -0.22054143383E+01 -0.89066863162E+01 -0.40724833794E+02  0.41746466919E+02  0.24999817085E+00 0.  0.
        -13    1    4    4    0    0 -0.88944968187E+00 -0.26483082397E-01  0.23860972365E+01  0.25487854190E+01  0.10500000000E+00 0. -1.
         13    1    4    4    0    0 -0.14004634178E+01 -0.18620190759E+00  0.35859213102E+01  0.38556225928E+01  0.10500000000E+00 0.  1.
    3000001    1    5    5    0    0 -0.32875724677E+01  0.21567920813E+01 -0.20353118380E+02  0.20753537352E+02  0.10000000000E+01 0. -1.
        -13    1    6    6    0    0 -0.16420762298E+01 -0.65015023852E+01 -0.29832902577E+02  0.30577427112E+02  0.10500000000E+00 0. -1.
         13    1    6    6    0    0 -0.56333810843E+00 -0.24051839310E+01 -0.10891931217E+02  0.11169039807E+02  0.10500000000E+00 0.  1.
</event>
<event>
11    0  0.3396091E-009  0.9118800E+02  0.7816531E-02  0.1126479E+00
         25   -1    0    0    0    0  0.00000000000E+00  0.00000000000E+00  0.99999998245E-14  0.12500000000E+03  0.12500000000E+03 0.  0.
    3000001    1    3    3    0    0 -0.23627933814E+02 -0.18485138703E+02 -0.60909133549E+01  0.30628072657E+02  0.10000000000E+01 0.  1.
    1000022    2    1    0    0    0 -0.51007809142E+02 -0.29724884910E+02 -0.17913282656E+02  0.62500009895E+02  0.10000008250E+02 0.  0.
    3000022    2    3    3    0    0 -0.27379875328E+02 -0.11239746207E+02 -0.11822369301E+02  0.31871937239E+02  0.24999928477E+00 0.  0.
    1000022    2    1    0    0    0  0.51007809142E+02  0.29724884910E+02  0.17913282656E+02  0.62499990105E+02  0.99998845584E+01 0.  0.
    3000022    2    5    5    0    0  0.36695962516E+02  0.18015873804E+02  0.15933832355E+02  0.43876131256E+02  0.25001311228E+00 0.  0.
        -13    1    4    4    0    0 -0.20698573649E+02 -0.85145430514E+01 -0.89234108586E+01  0.24094951355E+02  0.10500000000E+00 0.  1.
         13    1    4    4    0    0 -0.66813016798E+01 -0.27252031555E+01 -0.28989584426E+01  0.77769858832E+01  0.10500000000E+00 0. -1.
    3000001    1    5    5    0    0  0.14311846626E+02  0.11709011106E+02  0.19794503012E+01  0.18623858849E+02  0.10000000000E+01 0. -1.
        -13    1    6    6    0    0  0.22828690326E+02  0.11194716072E+02  0.98463702906E+01  0.27265964183E+02  0.10500000000E+00 0. -1.
         13    1    6    6    0    0  0.13867272190E+02  0.68211577317E+01  0.60874620642E+01  0.16610167073E+02  0.10500000000E+00 0.  1.
</event>
<event>
11    0  0.3396091E-009  0.9118800E+02  0.7816531E-02  0.1126479E+00
         25   -1    0    0    0    0  0.00000000000E+00  0.00000000000E+00  0.99999998245E-14  0.12500000000E+03  0.12500000000E+03 0.  0.
    3000001    1    3    3    0    0  0.31966803554E+01  0.37511990016E+02 -0.13823549967E+02  0.40118059449E+02  0.10000000000E+01 0.  1.
    1000022    2    1    0    0    0  0.33968856742E+00  0.55667022979E+02 -0.26595436113E+02  0.62499998588E+02  0.99999882924E+01 0.  0.
    3000022    2    3    3    0    0 -0.28569917880E+01  0.18155032963E+02 -0.12771886146E+02  0.22381939140E+02  0.24999990898E+00 0.  0.
    1000022    2    1    0    0    0 -0.33968856742E+00 -0.55667022979E+02  0.26595436113E+02  0.62500001412E+02  0.10000005942E+02 0.  0.
    3000022    2    5    5    0    0 -0.20635782416E+01 -0.30950424597E+01  0.32386338449E+01  0.49385113038E+01  0.25000345981E+00 0.  0.
        -13    1    4    4    0    0 -0.82517788322E+00  0.50009577288E+01 -0.35299668113E+01  0.61775551340E+01  0.10500000000E+00 0.  1.
         13    1    4    4    0    0 -0.20318139048E+01  0.13154075234E+02 -0.92419193347E+01  0.16204384006E+02  0.10500000000E+00 0. -1.
    3000001    1    5    5    0    0  0.17238896742E+01 -0.52571980519E+02  0.23356802268E+02  0.57561490108E+02  0.10000000000E+01 0.  1.
        -13    1    6    6    0    0 -0.72453297866E+00 -0.99312158006E+00  0.10858184456E+01  0.16435526176E+01  0.10500000000E+00 0.  1.
         13    1    6    6    0    0 -0.13390452630E+01 -0.21019208796E+01  0.21528153992E+01  0.32949586862E+01  0.10500000000E+00 0. -1.
</event>
<event>
11    0  0.3396091E-009  0.9118800E+02  0.7816531E-02  0.1126479E+00
         25   -1    0    0    0    0  0.00000000000E+00  0.00000000000E+00  0.99999998245E-14  0.12500000000E+03  0.12500000000E+03 0.  0.
    3000001    1    3    3    0    0 -0.12286795394E+02 -0.23314677717E+02 -0.61515401390E+01  0.27081007813E+02  0.10000000000E+01 0. -1.
    1000022    2    1    0    0    0 -0.19139487756E+02 -0.57935305474E+02 -0.91340134116E+01  0.62499998562E+02  0.10000000364E+02 0.  0.
    3000022    2    3    3    0    0 -0.68526923621E+01 -0.34620627757E+02 -0.29824732726E+01  0.35418990749E+02  0.24999984226E+00 0.  0.
    1000022    2    1    0    0    0  0.19139487756E+02  0.57935305474E+02  0.91340134116E+01  0.62500001438E+02  0.10000018339E+02 0.  0.
    3000022    2    5    5    0    0  0.18545177361E+02  0.57019309398E+02  0.77238884390E+01  0.60455323934E+02  0.24998348343E+00 0.  0.
        -13    1    4    4    0    0 -0.22101180071E+01 -0.11335880408E+02 -0.10167195077E+01  0.11594462031E+02  0.10500000000E+00 0.  1.
         13    1    4    4    0    0 -0.46425743550E+01 -0.23284747350E+02 -0.19657537649E+01  0.23824528718E+02  0.10500000000E+00 0. -1.
    3000001    1    5    5    0    0  0.59431039476E+00  0.91599607613E+00  0.14101249726E+01  0.20446775039E+01  0.10000000000E+01 0.  1.
        -13    1    6    6    0    0  0.42626793059E+01  0.13111881736E+02  0.17822694776E+01  0.13902495712E+02  0.10500000000E+00 0. -1.
         13    1    6    6    0    0  0.14282498055E+02  0.43907427662E+02  0.59416189614E+01  0.46552828222E+02  0.10500000000E+00 0.  1.
</event>
<event>
11    0  0.3396091E-009  0.9118800E+02  0.7816531E-02  0.1126479E+00
         25   -1    0    0    0    0  0.00000000000E+00  0.00000000000E+00  0.99999998245E-14  0.12500000000E+03  0.12500000000E+03 0.  0.
    3000001    1    3    3    0    0 -0.20450610878E+02 -0.62467252535E+01  0.42150305867E+02  0.47274700912E+02  0.10000000000E+01 0. -1.
    1000022    2    1    0    0    0 -0.21636584733E+02 -0.91437119792E+01  0.57048230919E+02  0.62500000085E+02  0.10000004598E+02 0.  0.
    3000022    2    3    3    0    0 -0.11859738546E+01 -0.28969867257E+01  0.14897925053E+02  0.15225299173E+02  0.24999591777E+00 0.  0.
    1000022    2    1    0    0    0  0.21636584733E+02  0.91437119792E+01 -0.57048230919E+02  0.62499999915E+02  0.10000003534E+02 0.  0.
    3000022    2    5    5    0    0  0.10131897552E+02  0.40345438783E+00 -0.31967655983E+02  0.33538211831E+02  0.25000061851E+00 0.  0.
        -13    1    4    4    0    0 -0.53319889632E+00 -0.11580072301E+01  0.59122077707E+01  0.60490088057E+01  0.10500000000E+00 0. -1.
         13    1    4    4    0    0 -0.65277495823E+00 -0.17389794957E+01  0.89857172819E+01  0.91762903672E+01  0.10500000000E+00 0.  1.
    3000001    1    5    5    0    0  0.11504687181E+02  0.87402575914E+01 -0.25080574936E+02  0.28961788084E+02  0.10000000000E+01 0.  1.
        -13    1    6    6    0    0  0.64661761956E+01  0.20998536260E+00 -0.20505622157E+02  0.21502257870E+02  0.10500000000E+00 0.  1.
         13    1    6    6    0    0  0.36657213564E+01  0.19346902522E+00 -0.11462033826E+02  0.12035953961E+02  0.10500000000E+00 0. -1.
</event>
<event>
11    0  0.3396091E-009  0.9118800E+02  0.7816531E-02  0.1126479E+00
         25   -1    0    0    0    0  0.00000000000E+00  0.00000000000E+00  0.99999998245E-14  0.12500000000E+03  0.12500000000E+03 0.  0.
    3000001    1    3    3    0    0  0.35351762531E+01 -0.46601528243E+01 -0.55961649663E+01  0.81566879195E+01  0.10000000000E+01 0. -1.
    1000022    2    1    0    0    0  0.74852425277E+01 -0.49361179777E+02 -0.36244942991E+02  0.62499994077E+02  0.99999221291E+01 0.  0.
    3000022    2    3    3    0    0  0.39500662746E+01 -0.44701026952E+02 -0.30648778025E+02  0.54343306158E+02  0.24999114365E+00 0.  0.
    1000022    2    1    0    0    0 -0.74852425277E+01  0.49361179777E+02  0.36244942991E+02  0.62500005923E+02  0.99999961613E+01 0.  0.
    3000022    2    5    5    0    0 -0.75963580119E+00  0.33132994900E+02  0.26132360891E+02  0.42205866695E+02  0.25000037705E+00 0.  0.
        -13    1    4    4    0    0  0.16152856389E+01 -0.19015604231E+02 -0.13025384682E+02  0.23105714078E+02  0.10500000000E+00 0.  1.
         13    1    4    4    0    0  0.23347806358E+01 -0.25685422722E+02 -0.17623393343E+02  0.31237592080E+02  0.10500000000E+00 0. -1.
    3000001    1    5    5    0    0 -0.67256067265E+01  0.16228184876E+02  0.10112582101E+02  0.20294139227E+02  0.10000000000E+01 0.  1.
        -13    1    6    6    0    0 -0.53366951591E+00  0.21241527582E+02  0.16797779153E+02  0.27086227250E+02  0.10500000000E+00 0.  1.
         13    1    6    6    0    0 -0.22596628528E+00  0.11891467318E+02  0.93345817375E+01  0.15119639445E+02  0.10500000000E+00 0. -1.
</event>
<event>
11    0  0.3396091E-009  0.9118800E+02  0.7816531E-02  0.1126479E+00
         25   -1    0    0    0    0  0.00000000000E+00  0.00000000000E+00  0.99999998245E-14  0.12500000000E+03  0.12500000000E+03 0.  0.
    3000001    1    3    3    0    0 -0.19784704254E+01  0.38502559294E+01 -0.34827520398E+02  0.35109756379E+02  0.10000000000E+01 0.  1.
    1000022    2    1    0    0    0 -0.22909794261E+01  0.15216033619E+02 -0.59745072206E+02  0.62499999999E+02  0.10000004057E+02 0.  0.
    3000022    2    3    3    0    0 -0.31250900070E+00  0.11365777690E+02 -0.24917551808E+02  0.27390243620E+02  0.24998613877E+00 0.  0.
    1000022    2    1    0    0    0  0.22909794261E+01 -0.15216033619E+02  0.59745072206E+02  0.62500000001E+02  0.10000004069E+02 0.  0.
    3000022    2    5    5    0    0  0.43309203397E+01 -0.20493004249E+01  0.12087678796E+02  0.13005036938E+02  0.25000773780E+00 0.  0.
        -13    1    4    4    0    0 -0.16543505957E+00  0.56709434030E+01 -0.12271471812E+02  0.13519874750E+02  0.10500000000E+00 0. -1.
         13    1    4    4    0    0 -0.14707394113E+00  0.56948342866E+01 -0.12646079996E+02  0.13870368869E+02  0.10500000000E+00 0.  1.
    3000001    1    5    5    0    0 -0.20399409136E+01 -0.13166733194E+02  0.47657393410E+02  0.49494963063E+02  0.10000000000E+01 0.  1.
        -13    1    6    6    0    0  0.18526736116E+01 -0.80588563770E+00  0.51274238603E+01  0.55121095431E+01  0.10500000000E+00 0.  1.
         13    1    6    6    0    0  0.24782467281E+01 -0.12434147872E+01  0.69602549358E+01  0.74929273952E+01  0.10500000000E+00 0. -1.
</event>
<event>
11    0  0.3396091E-009  0.9118800E+02  0.7816531E-02  0.1126479E+00
         25   -1    0    0    0    0  0.00000000000E+00  0.00000000000E+00  0.99999998245E-14  0.12500000000E+03  0.12500000000E+03 0.  0.
    3000001    1    3    3    0    0  0.24493500800E+02 -0.18928385381E+01 -0.18958180513E+02  0.31047174228E+02  0.10000000000E+01 0. -1.
    1000022    2    1    0    0    0  0.53947813763E+02 -0.52328926029E+01 -0.29470327050E+02  0.62500000144E+02  0.10000003341E+02 0.  0.
    3000022    2    3    3    0    0  0.29454312962E+02 -0.33400540648E+01 -0.10512146537E+02  0.31452825916E+02  0.25004010038E+00 0.  0.
    1000022    2    1    0    0    0 -0.53947813763E+02  0.52328926029E+01  0.29470327050E+02  0.62499999856E+02  0.10000001538E+02 0.  0.
    3000022    2    5    5    0    0 -0.32892373888E+02  0.58164311799E+00  0.22339908584E+02  0.39766576498E+02  0.25004418761E+00 0.  0.
        -13    1    4    4    0    0  0.11404113395E+02 -0.13444624804E+01 -0.41092471476E+01  0.12196651951E+02  0.10500000000E+00 0. -1.
         13    1    4    4    0    0  0.18050199567E+02 -0.19955915844E+01 -0.64028993898E+01  0.19256173965E+02  0.10500000000E+00 0.  1.
    3000001    1    5    5    0    0 -0.21055439874E+02  0.46512494849E+01  0.71304184667E+01  0.22733423358E+02  0.10000000000E+01 0. -1.
        -13    1    6    6    0    0 -0.19259173786E+02  0.30238377513E+00  0.13142622557E+02  0.23318378236E+02  0.10500000000E+00 0. -1.
         13    1    6    6    0    0 -0.13633200102E+02  0.27925934286E+00  0.91972860267E+01  0.16448198262E+02  0.10500000000E+00 0.  1.
</event>
<event>
11    0  0.3396091E-009  0.9118800E+02  0.7816531E-02  0.1126479E+00
         25   -1    0    0    0    0  0.00000000000E+00  0.00000000000E+00  0.99999998245E-14  0.12500000000E+03  0.12500000000E+03 0.  0.
    3000001    1    3    3    0    0  0.30696503622E+01 -0.54935688867E+02  0.20617464248E+02  0.58765912710E+02  0.10000000000E+01 0. -1.
    1000022    2    1    0    0    0  0.16226782624E+01 -0.57114797669E+02  0.23270513489E+02  0.62499999724E+02  0.99999984965E+01 0.  0.
    3000022    2    3    3    0    0 -0.14469720998E+01 -0.21791088020E+01  0.26530492416E+01  0.37340870140E+01  0.24998424148E+00 0.  0.
    1000022    2    1    0    0    0 -0.16226782624E+01  0.57114797669E+02 -0.23270513489E+02  0.62500000276E+02  0.10000001941E+02 0.  0.
    3000022    2    5    5    0    0 -0.57431935868E+01  0.27983066254E+02 -0.11540259696E+02  0.30810328837E+02  0.24999933852E+00 0.  0.
        -13    1    4    4    0    0 -0.92824351916E+00 -0.12935146828E+01  0.16440718638E+01  0.22910289301E+01  0.10500000000E+00 0.  1.
         13    1    4    4    0    0 -0.51872858062E+00 -0.88559411925E+00  0.10089773778E+01  0.14430580838E+01  0.10500000000E+00 0. -1.
    3000001    1    5    5    0    0  0.41205153243E+01  0.29131731416E+02 -0.11730253793E+02  0.31689671439E+02  0.10000000000E+01 0. -1.
        -13    1    6    6    0    0 -0.36305018814E+01  0.17891316784E+02 -0.74199061324E+01  0.19706491118E+02  0.10500000000E+00 0.  1.
         13    1    6    6    0    0 -0.21126917054E+01  0.10091749469E+02 -0.41203535636E+01  0.11103837719E+02  0.10500000000E+00 0. -1.
</event>
<event>
11    0  0.3396091E-009  0.9118800E+02  0.7816531E-02  0.1126479E+00
         25   -1    0    0    0    0  0.00000000000E+00  0.00000000000E+00  0.99999998245E-14  0.12500000000E+03  0.12500000000E+03 0.  0.
    3000001    1    3    3    0    0 -0.18986822447E+01  0.53672395621E+01  0.18876481020E+02  0.19741676486E+02  0.10000000000E+01 0.  1.
    1000022    2    1    0    0    0 -0.32160716527E+01  0.29014228256E+01  0.61542578311E+02  0.62499998783E+02  0.99999765689E+01 0.  0.
    3000022    2    3    3    0    0 -0.13173894081E+01 -0.24658167365E+01  0.42666097291E+02  0.42758322296E+02  0.25000108505E+00 0.  0.
    1000022    2    1    0    0    0  0.32160716527E+01 -0.29014228256E+01 -0.61542578311E+02  0.62500001217E+02  0.99999917865E+01 0.  0.
    3000022    2    5    5    0    0 -0.99621227374E+00  0.10222935969E+01 -0.43722176179E+02  0.43746185110E+02  0.24999753999E+00 0.  0.
        -13    1    4    4    0    0 -0.44888226592E+00 -0.75975890562E+00  0.13024120905E+02  0.13054404591E+02  0.10500000000E+00 0.  1.
         13    1    4    4    0    0 -0.86850714215E+00 -0.17060578309E+01  0.29641976386E+02  0.29703917705E+02  0.10500000000E+00 0. -1.
    3000001    1    5    5    0    0  0.42122839265E+01 -0.39237164226E+01 -0.17820402132E+02  0.18753816107E+02  0.10000000000E+01 0. -1.
        -13    1    6    6    0    0 -0.24747444718E+00  0.30467968470E+00 -0.12741289496E+02  0.12747766719E+02  0.10500000000E+00 0. -1.
         13    1    6    6    0    0 -0.74873782655E+00  0.71761391223E+00 -0.30980886683E+02  0.30998418391E+02  0.10500000000E+00 0.  1.
</event>
<event>
11    0  0.3396091E-009  0.9118800E+02  0.7816531E-02  0.1126479E+00
         25   -1    0    0    0    0  0.00000000000E+00  0.00000000000E+00  0.99999998245E-14  0.12500000000E+03  0.12500000000E+03 0.  0.
    3000001    1    3    3    0    0 -0.30783557365E+02  0.12010095039E+02 -0.43227059169E+02  0.54419191755E+02  0.10000000000E+01 0. -1.
    1000022    2    1    0    0    0 -0.34998905715E+02  0.17137182506E+02 -0.47829315945E+02  0.62499999568E+02  0.10000002843E+02 0.  0.
    3000022    2    3    3    0    0 -0.42153483496E+01  0.51270874666E+01 -0.46022567762E+01  0.80808078135E+01  0.24999977192E+00 0.  0.
    1000022    2    1    0    0    0  0.34998905715E+02 -0.17137182506E+02  0.47829315945E+02  0.62500000432E+02  0.10000008238E+02 0.  0.
    3000022    2    5    5    0    0  0.12023235500E+02 -0.84916465591E+01  0.11682122279E+02  0.18793635637E+02  0.25001271076E+00 0.  0.
        -13    1    4    4    0    0 -0.21156167108E+01  0.24822737777E+01 -0.23043461928E+01  0.39948158344E+01  0.10500000000E+00 0. -1.
         13    1    4    4    0    0 -0.20997316388E+01  0.26448136889E+01 -0.22979105834E+01  0.40859919791E+01  0.10500000000E+00 0.  1.
    3000001    1    5    5    0    0  0.22975670215E+02 -0.86455359467E+01  0.36147193666E+02  0.43706364794E+02  0.10000000000E+01 0. -1.
        -13    1    6    6    0    0  0.55340713968E+01 -0.39203214988E+01  0.52977841030E+01  0.86065328838E+01  0.10500000000E+00 0.  1.
         13    1    6    6    0    0  0.64891641030E+01 -0.45713250604E+01  0.63843381758E+01  0.10187102753E+02  0.10500000000E+00 0. -1.
</event>
<event>
11    0  0.3396091E-009  0.9118800E+02  0.7816531E-02  0.1126479E+00
         25   -1    0    0    0    0  0.00000000000E+00  0.00000000000E+00  0.99999998245E-14  0.12500000000E+03  0.12500000000E+03 0.  0.
    3000001    1    3    3    0    0  0.42197031688E+01  0.47100247666E+02 -0.98999903660E+01  0.48324414474E+02  0.10000000000E+01 0. -1.
    1000022    2    1    0    0    0  0.10396186709E+02  0.59809601795E+02 -0.10999126373E+02  0.62500000097E+02  0.10000003305E+02 0.  0.
    3000022    2    3    3    0    0  0.61764835401E+01  0.12709354129E+02 -0.10991360074E+01  0.14175585622E+02  0.24999293512E+00 0.  0.
    1000022    2    1    0    0    0 -0.10396186709E+02 -0.59809601795E+02  0.10999126373E+02  0.62499999903E+02  0.10000002097E+02 0.  0.
    3000022    2    5    5    0    0 -0.16178832966E+01 -0.30712785081E+01 -0.14053433737E+01  0.37533675747E+01  0.24996023105E+00 0.  0.
        -13    1    4    4    0    0  0.22539901247E+01  0.47283658234E+01 -0.45227756723E+00  0.52586590344E+01  0.10500000000E+00 0. -1.
         13    1    4    4    0    0  0.39224934154E+01  0.79809883059E+01 -0.64685844021E+00  0.89169265880E+01  0.10500000000E+00 0.  1.
    3000001    1    5    5    0    0 -0.87783034123E+01 -0.56738323287E+02  0.12404469747E+02  0.58746632329E+02  0.10000000000E+01 0.  1.
        -13    1    6    6    0    0 -0.10964752057E+01 -0.20110187681E+01 -0.97341937754E+00  0.24909886886E+01  0.10500000000E+00 0.  1.
         13    1    6    6    0    0 -0.52140809089E+00 -0.10602597400E+01 -0.43192399619E+00  0.12623788861E+01  0.10500000000E+00 0. -1.
</event>
<event>
11    0  0.3396091E-009  0.9118800E+02  0.7816531E-02  0.1126479E+00
         25   -1    0    0    0    0  0.00000000000E+00  0.00000000000E+00  0.99999998245E-14  0.12500000000E+03  0.12500000000E+03 0.  0.
    3000001    1    3    3    0    0 -0.37047146592E+01 -0.28265625936E+00 -0.86324605121E+00  0.39433487053E+01  0.10000000000E+01 0.  1.
    1000022    2    1    0    0    0 -0.56647174276E+02 -0.13383452830E+02  0.20450679466E+02  0.62499994970E+02  0.99999958761E+01 0.  0.
    3000022    2    3    3    0    0 -0.52942459617E+02 -0.13100796570E+02  0.21313925517E+02  0.58556646264E+02  0.24999950199E+00 0.  0.
    1000022    2    1    0    0    0  0.56647174276E+02  0.13383452830E+02 -0.20450679466E+02  0.62500005030E+02  0.10000058755E+02 0.  0.
    3000022    2    5    5    0    0  0.40212829151E+02  0.64156769928E+01 -0.17735080336E+02  0.44416529744E+02  0.25000077295E+00 0.  0.
        -13    1    4    4    0    0 -0.22840828133E+02 -0.56279014875E+01  0.91273765593E+01  0.25232850271E+02  0.10500000000E+00 0. -1.
         13    1    4    4    0    0 -0.30101631484E+02 -0.74728950829E+01  0.12186548958E+02  0.33323795993E+02  0.10500000000E+00 0.  1.
    3000001    1    5    5    0    0  0.16434345125E+02  0.69677758369E+01 -0.27155991301E+01  0.18083475286E+02  0.10000000000E+01 0. -1.
        -13    1    6    6    0    0  0.22698427520E+02  0.36838261645E+01 -0.10040173639E+02  0.25091936928E+02  0.10500000000E+00 0. -1.
         13    1    6    6    0    0  0.17514401631E+02  0.27318508283E+01 -0.76949066969E+01  0.19324592816E+02  0.10500000000E+00 0.  1.
</event>
<event>
11    0  0.3396091E-009  0.9118800E+02  0.7816531E-02  0.1126479E+00
         25   -1    0    0    0    0  0.00000000000E+00  0.00000000000E+00  0.99999998245E-14  0.12500000000E+03  0.12500000000E+03 0.  0.
    3000001    1    3    3    0    0 -0.18510281436E+02  0.31011616424E+01  0.11110365167E+02  0.21833184296E+02  0.10000000000E+01 0. -1.
    1000022    2    1    0    0    0 -0.56866866570E+02 -0.12752902170E+01  0.23891067879E+02  0.62499998980E+02  0.99999934743E+01 0.  0.
    3000022    2    3    3    0    0 -0.38356585135E+02 -0.43764518594E+01  0.12780702712E+02  0.40666814684E+02  0.25000138835E+00 0.  0.
    1000022    2    1    0    0    0  0.56866866570E+02  0.12752902170E+01 -0.23891067879E+02  0.62500001020E+02  0.10000006220E+02 0.  0.
    3000022    2    5    5    0    0  0.44122955014E+02  0.22217717424E+01 -0.14115742404E+02  0.46379824310E+02  0.24998102636E+00 0.  0.
        -13    1    4    4    0    0 -0.25087322918E+02 -0.29097306853E+01  0.83292590423E+01  0.26593756505E+02  0.10500000000E+00 0.  1.
         13    1    4    4    0    0 -0.13269262217E+02 -0.14667211741E+01  0.44514436698E+01  0.14073058179E+02  0.10500000000E+00 0. -1.
    3000001    1    5    5    0    0  0.12743911556E+02 -0.94648152538E+00 -0.97753254745E+01  0.16120176710E+02  0.10000000000E+01 0.  1.
        -13    1    6    6    0    0  0.26355110529E+02  0.12645921216E+01 -0.84193784944E+01  0.27696353613E+02  0.10500000000E+00 0.  1.
         13    1    6    6    0    0  0.17767844486E+02  0.95717962080E+00 -0.56963639100E+01  0.18683470697E+02  0.10500000000E+00 0. -1.
</event>
<event>
11    0  0.3396091E-009  0.9118800E+02  0.7816531E-02  0.1126479E+00
         25   -1    0    0    0    0  0.00000000000E+00  0.00000000000E+00  0.99999998245E-14  0.12500000000E+03  0.12500000000E+03 0.  0.
    3000001    1    3    3    0    0  0.15787421465E+02 -0.22700048251E+02  0.40920837061E+01  0.27969269139E+02  0.10000000000E+01 0.  1.
    1000022    2    1    0    0    0  0.41254670044E+02 -0.45853481141E+02  0.13268179133E+01  0.62500000481E+02  0.10000004060E+02 0.  0.
    3000022    2    3    3    0    0  0.25467248579E+02 -0.23153432890E+02 -0.27652657928E+01  0.34530731342E+02  0.25001470646E+00 0.  0.
    1000022    2    1    0    0    0 -0.41254670044E+02  0.45853481141E+02 -0.13268179133E+01  0.62499999519E+02  0.99999980447E+01 0.  0.
    3000022    2    5    5    0    0 -0.21822761301E+02  0.31072755214E+02  0.73369983316E+00  0.37978281191E+02  0.24999890803E+00 0.  0.
        -13    1    4    4    0    0  0.18723411697E+02 -0.16978504015E+02 -0.20196618132E+01  0.25355981602E+02  0.10500000000E+00 0. -1.
         13    1    4    4    0    0  0.67438368819E+01 -0.61749288750E+01 -0.74560397958E+00  0.91747497402E+01  0.10500000000E+00 0.  1.
    3000001    1    5    5    0    0 -0.19431908743E+02  0.14780725927E+02 -0.20605177465E+01  0.24521718327E+02  0.10000000000E+01 0. -1.
        -13    1    6    6    0    0 -0.67045903970E+01  0.94984193414E+01  0.26326995335E+00  0.11629782390E+02  0.10500000000E+00 0.  1.
         13    1    6    6    0    0 -0.15118170904E+02  0.21574335872E+02  0.47042987981E+00  0.26348498801E+02  0.10500000000E+00 0. -1.
</event>
<event>
11    0  0.3396091E-009  0.9118800E+02  0.7816531E-02  0.1126479E+00
         25   -1    0    0    0    0  0.00000000000E+00  0.00000000000E+00  0.99999998245E-14  0.12500000000E+03  0.12500000000E+03 0.  0.
    3000001    1    3    3    0    0  0.11691793942E+02 -0.26518056903E+01  0.11973806122E+02  0.16973572166E+02  0.10000000000E+01 0. -1.
    1000022    2    1    0    0    0  0.30950937520E+02 -0.43883319523E+01  0.53188645623E+02  0.62500000012E+02  0.99999993785E+01 0.  0.
    3000022    2    3    3    0    0  0.19259143578E+02 -0.17365262620E+01  0.41214839501E+02  0.45526427846E+02  0.25000512836E+00 0.  0.
    1000022    2    1    0    0    0 -0.30950937520E+02  0.43883319523E+01 -0.53188645623E+02  0.62499999988E+02  0.99999992291E+01 0.  0.
    3000022    2    5    5    0    0 -0.21409987596E+02  0.32164818212E+01 -0.44569677881E+02  0.49550499491E+02  0.24997840273E+00 0.  0.
        -13    1    4    4    0    0  0.11151273607E+02 -0.10420885469E+01  0.23996654102E+02  0.26481829330E+02  0.10500000000E+00 0.  1.
         13    1    4    4    0    0  0.81078699710E+01 -0.69443771507E+00  0.17218185399E+02  0.19044598516E+02  0.10500000000E+00 0. -1.
    3000001    1    5    5    0    0 -0.95409499246E+01  0.11718501311E+01 -0.86189677420E+01  0.12949500497E+02  0.10000000000E+01 0.  1.
        -13    1    6    6    0    0 -0.72633827559E+01  0.10435954627E+01 -0.15169853946E+02  0.16851745141E+02  0.10500000000E+00 0.  1.
         13    1    6    6    0    0 -0.14146604840E+02  0.21728863585E+01 -0.29399823935E+02  0.32698754350E+02  0.10500000000E+00 0. -1.
</event>
<event>
11    0  0.3396091E-009  0.9118800E+02  0.7816531E-02  0.1126479E+00
         25   -1    0    0    0    0  0.00000000000E+00  0.00000000000E+00  0.99999998245E-14  0.12500000000E+03  0.12500000000E+03 0.  0.
    3000001    1    3    3    0    0 -0.26578961730E+02 -0.34710680633E+02 -0.34932827000E+02  0.55969410921E+02  0.10000000000E+01 0.  1.
    1000022    2    1    0    0    0 -0.26830594208E+02 -0.40379437673E+02 -0.38155866997E+02  0.62500000102E+02  0.10000002706E+02 0.  0.
    3000022    2    3    3    0    0 -0.25163247817E+00 -0.56687570400E+01 -0.32230399966E+01  0.65305891808E+01  0.24996588886E+00 0.  0.
    1000022    2    1    0    0    0  0.26830594208E+02  0.40379437673E+02  0.38155866997E+02  0.62499999898E+02  0.10000001434E+02 0.  0.
    3000022    2    5    5    0    0  0.22490423854E+02  0.32612985721E+02  0.35410511982E+02  0.53135608366E+02  0.25002956315E+00 0.  0.
        -13    1    4    4    0    0 -0.21071612631E+00 -0.38583566134E+01 -0.22299571768E+01  0.44626282674E+01  0.10500000000E+00 0. -1.
         13    1    4    4    0    0 -0.40916351855E-01 -0.18104004266E+01 -0.99308281978E+00  0.20679609134E+01  0.10500000000E+00 0.  1.
    3000001    1    5    5    0    0  0.43401703541E+01  0.77664519514E+01  0.27453550146E+01  0.93643915325E+01  0.10000000000E+01 0. -1.
        -13    1    6    6    0    0  0.81713602209E+01  0.11764022382E+02  0.12759250128E+02  0.19182618156E+02  0.10500000000E+00 0. -1.
         13    1    6    6    0    0  0.14319063633E+02  0.20848963339E+02  0.22651261854E+02  0.33952990210E+02  0.10500000000E+00 0.  1.
</event>
<event>
11    0  0.3396091E-009  0.9118800E+02  0.7816531E-02  0.1126479E+00
         25   -1    0    0    0    0  0.00000000000E+00  0.00000000000E+00  0.99999998245E-14  0.12500000000E+03  0.12500000000E+03 0.  0.
    3000001    1    3    3    0    0 -0.27852892602E+02 -0.16907876692E+02  0.33740617958E+02  0.46915767294E+02  0.10000000000E+01 0. -1.
    1000022    2    1    0    0    0 -0.40255019698E+02 -0.18127219736E+02  0.43095095943E+02  0.62499999920E+02  0.99999994705E+01 0.  0.
    3000022    2    3    3    0    0 -0.12402127096E+02 -0.12193430438E+01  0.93544779851E+01  0.15584232626E+02  0.24998844996E+00 0.  0.
    1000022    2    1    0    0    0  0.40255019698E+02  0.18127219736E+02 -0.43095095943E+02  0.62500000080E+02  0.10000000468E+02 0.  0.
    3000022    2    5    5    0    0  0.13345945935E+02  0.10668084399E+02 -0.13305264812E+02  0.21656751071E+02  0.24999519143E+00 0.  0.
        -13    1    4    4    0    0 -0.82667653437E+01 -0.83959758768E+00  0.61787188488E+01  0.10355284881E+02  0.10500000000E+00 0.  1.
         13    1    4    4    0    0 -0.41353617519E+01 -0.37974545612E+00  0.31757591363E+01  0.52289477452E+01  0.10500000000E+00 0. -1.
    3000001    1    5    5    0    0  0.26909073763E+02  0.74591353376E+01 -0.29789831131E+02  0.40843249009E+02  0.10000000000E+01 0. -1.
        -13    1    6    6    0    0  0.58675978244E+01  0.46096780180E+01 -0.57857874956E+01  0.94426795775E+01  0.10500000000E+00 0. -1.
         13    1    6    6    0    0  0.74783481109E+01  0.60584063806E+01 -0.75194773165E+01  0.12214071494E+02  0.10500000000E+00 0.  1.
</event>
<event>
11    0  0.3396091E-009  0.9118800E+02  0.7816531E-02  0.1126479E+00
         25   -1    0    0    0    0  0.00000000000E+00  0.00000000000E+00  0.99999998245E-14  0.12500000000E+03  0.12500000000E+03 0.  0.
    3000001    1    3    3    0    0 -0.96379410225E+01  0.73480167723E+01  0.40226939861E+01  0.12808798716E+02  0.10000000000E+01 0.  1.
    1000022    2    1    0    0    0 -0.54361711017E+02  0.18369516199E+02  0.22663079527E+02  0.62500000427E+02  0.10000006485E+02 0.  0.
    3000022    2    3    3    0    0 -0.44723769995E+02  0.11021499427E+02  0.18640385540E+02  0.49691201712E+02  0.25000455457E+00 0.  0.
    1000022    2    1    0    0    0  0.54361711017E+02 -0.18369516199E+02 -0.22663079527E+02  0.62499999573E+02  0.10000001141E+02 0.  0.
    3000022    2    5    5    0    0  0.38097113367E+02 -0.82515101363E+01 -0.13599863703E+02  0.41285545432E+02  0.25000493382E+00 0.  0.
        -13    1    4    4    0    0 -0.23186312457E+02  0.56477194271E+01  0.96802399581E+01  0.25753055949E+02  0.10500000000E+00 0. -1.
         13    1    4    4    0    0 -0.21537457538E+02  0.53737799994E+01  0.89601455824E+01  0.23938145763E+02  0.10500000000E+00 0.  1.
    3000001    1    5    5    0    0  0.16264597651E+02 -0.10118006062E+02 -0.90632158240E+01  0.21214454141E+02  0.10000000000E+01 0. -1.
        -13    1    6    6    0    0  0.18658759918E+02 -0.40346857627E+01 -0.65888420280E+01  0.20195342908E+02  0.10500000000E+00 0.  1.
         13    1    6    6    0    0  0.19438353448E+02 -0.42168243736E+01 -0.70110216746E+01  0.21090202524E+02  0.10500000000E+00 0. -1.
</event>
<event>
11    0  0.3396091E-009  0.9118800E+02  0.7816531E-02  0.1126479E+00
         25   -1    0    0    0    0  0.00000000000E+00  0.00000000000E+00  0.99999998245E-14  0.12500000000E+03  0.12500000000E+03 0.  0.
    3000001    1    3    3    0    0 -0.25994005488E+02  0.26236981678E+02  0.14344436375E+02  0.39633702625E+02  0.10000000000E+01 0.  1.
    1000022    2    1    0    0    0 -0.43049977856E+02  0.35308043185E+02  0.26576146053E+02  0.62500000129E+02  0.99999985083E+01 0.  0.
    3000022    2    3    3    0    0 -0.17055972368E+02  0.90710615072E+01  0.12231709678E+02  0.22866297504E+02  0.24997921239E+00 0.  0.
    1000022    2    1    0    0    0  0.43049977856E+02 -0.35308043185E+02 -0.26576146053E+02  0.62499999871E+02  0.99999968933E+01 0.  0.
    3000022    2    5    5    0    0  0.29323813125E+02 -0.26984529093E+02 -0.23039857961E+02  0.46032036471E+02  0.25000052279E+00 0.  0.
        -13    1    4    4    0    0 -0.68399128074E+01  0.36661782869E+01  0.48452622806E+01  0.91494733188E+01  0.10500000000E+00 0.  1.
         13    1    4    4    0    0 -0.10216059561E+02  0.54048832203E+01  0.73864473973E+01  0.13716824185E+02  0.10500000000E+00 0. -1.
    3000001    1    5    5    0    0  0.13726164731E+02 -0.83235140922E+01 -0.35362880922E+01  0.16467963400E+02  0.10000000000E+01 0. -1.
        -13    1    6    6    0    0  0.16140216614E+02 -0.14807774266E+02 -0.12596918050E+02  0.25267966685E+02  0.10500000000E+00 0. -1.
         13    1    6    6    0    0  0.13183596511E+02 -0.12176754827E+02 -0.10442939911E+02  0.20764069786E+02  0.10500000000E+00 0.  1.
</event>
<event>
11    0  0.3396091E-009  0.9118800E+02  0.7816531E-02  0.1126479E+00
         25   -1    0    0    0    0  0.00000000000E+00  0.00000000000E+00  0.99999998245E-14  0.12500000000E+03  0.12500000000E+03 0.  0.
    3000001    1    3    3    0    0  0.97932945104E+01 -0.26267955645E+01  0.27031297064E+02  0.28887708343E+02  0.10000000000E+01 0. -1.
    1000022    2    1    0    0    0  0.17202791601E+02 -0.15488246234E+02  0.57187657814E+02  0.62500000045E+02  0.99999994523E+01 0.  0.
    3000022    2    3    3    0    0  0.74094970905E+01 -0.12861450670E+02  0.30156360750E+02  0.33612291702E+02  0.24999866415E+00 0.  0.
    1000022    2    1    0    0    0 -0.17202791601E+02  0.15488246234E+02 -0.57187657814E+02  0.62499999955E+02  0.99999988960E+01 0.  0.
    3000022    2    5    5    0    0 -0.52495630144E+01 -0.20652378393E+00 -0.90569516449E+01  0.10473368738E+02  0.25003139511E+00 0.  0.
        -13    1    4    4    0    0  0.38401369573E+01 -0.67897719944E+01  0.15908325035E+02  0.17718168246E+02  0.10500000000E+00 0.  1.
         13    1    4    4    0    0  0.35693601332E+01 -0.60716786755E+01  0.14248035715E+02  0.15894123456E+02  0.10500000000E+00 0. -1.
    3000001    1    5    5    0    0 -0.11953228587E+02  0.15694770018E+02 -0.48130706169E+02  0.52026631218E+02  0.10000000000E+01 0.  1.
        -13    1    6    6    0    0 -0.12577183425E+01 -0.55693517283E-01 -0.22122139309E+01  0.25475228504E+01  0.10500000000E+00 0.  1.
         13    1    6    6    0    0 -0.39918446719E+01 -0.15083026665E+00 -0.68447377140E+01  0.79258458872E+01  0.10500000000E+00 0. -1.
</event>
<event>
11    0  0.3396091E-009  0.9118800E+02  0.7816531E-02  0.1126479E+00
         25   -1    0    0    0    0  0.00000000000E+00  0.00000000000E+00  0.99999998245E-14  0.12500000000E+03  0.12500000000E+03 0.  0.
    3000001    1    3    3    0    0 -0.59410563705E+01  0.49603337200E+02  0.55465318589E+01  0.50274757362E+02  0.10000000000E+01 0. -1.
    1000022    2    1    0    0    0 -0.75228394001E+01  0.61200890672E+02  0.20267652832E+01  0.62499999111E+02  0.99999989858E+01 0.  0.
    3000022    2    3    3    0    0 -0.15817830297E+01  0.11597553472E+02 -0.35197665757E+01  0.12225241749E+02  0.24998997334E+00 0.  0.
    1000022    2    1    0    0    0  0.75228394001E+01 -0.61200890672E+02 -0.20267652832E+01  0.62500000889E+02  0.10000010092E+02 0.  0.
    3000022    2    5    5    0    0  0.83068541354E+01 -0.32971905765E+02 -0.36339558069E+01  0.34196762039E+02  0.25000747975E+00 0.  0.
        -13    1    4    4    0    0 -0.72533719170E+00  0.58078779413E+01 -0.17753688363E+01  0.61172313777E+01  0.10500000000E+00 0. -1.
         13    1    4    4    0    0 -0.85644583796E+00  0.57896755307E+01 -0.17443977393E+01  0.61080103714E+01  0.10500000000E+00 0.  1.
    3000001    1    5    5    0    0 -0.78401473533E+00 -0.28228984907E+02  0.16071905237E+01  0.28303238849E+02  0.10000000000E+01 0. -1.
        -13    1    6    6    0    0  0.40544607042E+01 -0.16275274773E+02 -0.17411034789E+01  0.16863145818E+02  0.10500000000E+00 0. -1.
         13    1    6    6    0    0  0.42523934312E+01 -0.16696630992E+02 -0.18928523280E+01  0.17333616222E+02  0.10500000000E+00 0.  1.
</event>
<event>
11    0  0.3396091E-009  0.9118800E+02  0.7816531E-02  0.1126479E+00
         25   -1    0    0    0    0  0.00000000000E+00  0.00000000000E+00  0.99999998245E-14  0.12500000000E+03  0.12500000000E+03 0.  0.
    3000001    1    3    3    0    0 -0.45908570552E+02 -0.38746163443E+02 -0.24342506091E+01  0.60131419472E+02  0.10000000000E+01 0.  1.
    1000022    2    1    0    0    0 -0.47547934452E+02 -0.39098982300E+02 -0.40882235120E+01  0.62499999035E+02  0.99999910119E+01 0.  0.
    3000022    2    3    3    0    0 -0.16393638999E+01 -0.35281885718E+00 -0.16539729028E+01  0.23685795623E+01  0.25009525626E+00 0.  0.
    1000022    2    1    0    0    0  0.47547934452E+02  0.39098982300E+02  0.40882235120E+01  0.62500000965E+02  0.10000003080E+02 0.  0.
    3000022    2    5    5    0    0  0.65145022822E+01  0.92852303813E+01 -0.15752069829E+01  0.11454170537E+02  0.25000487439E+00 0.  0.
        -13    1    4    4    0    0 -0.67654187307E+00 -0.80577217752E-01 -0.67754571019E+00  0.96658925270E+00  0.10500000000E+00 0.  1.
         13    1    4    4    0    0 -0.96282202686E+00 -0.27224163943E+00 -0.97642719265E+00  0.14019903096E+01  0.10500000000E+00 0. -1.
    3000001    1    5    5    0    0  0.41033432170E+02  0.29813751919E+02  0.56634304949E+01  0.51045830428E+02  0.10000000000E+01 0.  1.
        -13    1    6    6    0    0  0.42126413356E+01  0.59217216266E+01 -0.10427810409E+01  0.73424485932E+01  0.10500000000E+00 0. -1.
         13    1    6    6    0    0  0.23018609466E+01  0.33635087548E+01 -0.53242594199E+00  0.41117219440E+01  0.10500000000E+00 0.  1.
</event>
<event>
11    0  0.3396091E-009  0.9118800E+02  0.7816531E-02  0.1126479E+00
         25   -1    0    0    0    0  0.00000000000E+00  0.00000000000E+00  0.99999998245E-14  0.12500000000E+03  0.12500000000E+03 0.  0.
    3000001    1    3    3    0    0 -0.26393165517E+02  0.21016245453E+02  0.46160894366E+02  0.57184874990E+02  0.10000000000E+01 0. -1.
    1000022    2    1    0    0    0 -0.28722494549E+02  0.19973663902E+02  0.50816556543E+02  0.62499988173E+02  0.99998579960E+01 0.  0.
    3000022    2    3    3    0    0 -0.23293290320E+01 -0.10425815509E+01  0.46556621767E+01  0.53151131828E+01  0.24997562288E+00 0.  0.
    1000022    2    1    0    0    0  0.28722494549E+02 -0.19973663902E+02 -0.50816556543E+02  0.62500011827E+02  0.10000005840E+02 0.  0.
    3000022    2    5    5    0    0  0.14154679406E+02 -0.95679797626E+01 -0.16353941595E+02  0.23651957443E+02  0.24999871090E+00 0.  0.
        -13    1    4    4    0    0 -0.14949102032E+01 -0.63248548980E+00  0.30547834944E+01  0.34608556179E+01  0.10500000000E+00 0. -1.
         13    1    4    4    0    0 -0.83441882884E+00 -0.41009606114E+00  0.16008786823E+01  0.18542575648E+01  0.10500000000E+00 0.  1.
    3000001    1    5    5    0    0  0.14567815142E+02 -0.10405684139E+02 -0.34462614948E+02  0.38848054384E+02  0.10000000000E+01 0. -1.
        -13    1    6    6    0    0  0.38684570935E+01 -0.26604667306E+01 -0.44911678168E+01  0.64980502358E+01  0.10500000000E+00 0. -1.
         13    1    6    6    0    0  0.10286222313E+02 -0.69075130321E+01 -0.11862773778E+02  0.17153907207E+02  0.10500000000E+00 0.  1.
</event>
<event>
11    0  0.3396091E-009  0.9118800E+02  0.7816531E-02  0.1126479E+00
         25   -1    0    0    0    0  0.00000000000E+00  0.00000000000E+00  0.99999998245E-14  0.12500000000E+03  0.12500000000E+03 0.  0.
    3000001    1    3    3    0    0 -0.42237911422E+02 -0.61195537643E+01  0.30123575621E+02  0.52248635463E+02  0.10000000000E+01 0.  1.
    1000022    2    1    0    0    0 -0.47238381090E+02 -0.80405129192E+01  0.38860462973E+02  0.62500000336E+02  0.99999981778E+01 0.  0.
    3000022    2    3    3    0    0 -0.50004696677E+01 -0.19209591550E+01  0.87368873518E+01  0.10251364873E+02  0.25000037023E+00 0.  0.
    1000022    2    1    0    0    0  0.47238381090E+02  0.80405129192E+01 -0.38860462973E+02  0.62499999664E+02  0.99999939785E+01 0.  0.
    3000022    2    5    5    0    0  0.17567011757E+02  0.41819165965E+01 -0.20758605091E+02  0.27514914521E+02  0.25001461589E+00 0.  0.
        -13    1    4    4    0    0 -0.22134573570E+01 -0.86276121271E+00  0.40005921951E+01  0.46539782222E+01  0.10500000000E+00 0. -1.
         13    1    4    4    0    0 -0.27870123107E+01 -0.10581979423E+01  0.47362951567E+01  0.55973866506E+01  0.10500000000E+00 0.  1.
    3000001    1    5    5    0    0  0.29671369333E+02  0.38585963227E+01 -0.18101857882E+02  0.34985085143E+02  0.10000000000E+01 0. -1.
        -13    1    6    6    0    0  0.11507771539E+02  0.27929068940E+01 -0.13641995702E+02  0.18064999487E+02  0.10500000000E+00 0.  1.
         13    1    6    6    0    0  0.60592402174E+01  0.13890097026E+01 -0.71166093891E+01  0.94499150347E+01  0.10500000000E+00 0. -1.
</event>
<event>
11    0  0.3396091E-009  0.9118800E+02  0.7816531E-02  0.1126479E+00
         25   -1    0    0    0    0  0.00000000000E+00  0.00000000000E+00  0.99999998245E-14  0.12500000000E+03  0.12500000000E+03 0.  0.
    3000001    1    3    3    0    0 -0.34227991149E+02 -0.26826789661E+02 -0.34794992730E+02  0.55703891612E+02  0.10000000000E+01 0.  1.
    1000022    2    1    0    0    0 -0.35476056191E+02 -0.31948971481E+02 -0.39076368128E+02  0.62499999633E+02  0.10000003323E+02 0.  0.
    3000022    2    3    3    0    0 -0.12480650423E+01 -0.51221818195E+01 -0.42813753983E+01  0.67961080211E+01  0.24999198240E+00 0.  0.
    1000022    2    1    0    0    0  0.35476056191E+02  0.31948971481E+02  0.39076368128E+02  0.62500000367E+02  0.10000007910E+02 0.  0.
    3000022    2    5    5    0    0  0.10147971552E+02  0.38679559422E+01  0.10298125831E+02  0.14968510438E+02  0.24999860020E+00 0.  0.
        -13    1    4    4    0    0 -0.49951803656E+00 -0.19820339654E+01 -0.15841951101E+01  0.25881800664E+01  0.10500000000E+00 0.  1.
         13    1    4    4    0    0 -0.74854700571E+00 -0.31401478540E+01 -0.26971802882E+01  0.42079279547E+01  0.10500000000E+00 0. -1.
    3000001    1    5    5    0    0  0.25328084639E+02  0.28081015538E+02  0.28778242298E+02  0.47531489929E+02  0.10000000000E+01 0.  1.
        -13    1    6    6    0    0  0.41516607536E+01  0.16418686216E+01  0.42776750763E+01  0.61839751489E+01  0.10500000000E+00 0.  1.
         13    1    6    6    0    0  0.59963107986E+01  0.22260873207E+01  0.60204507544E+01  0.87845352888E+01  0.10500000000E+00 0. -1.
</event>
<event>
11    0  0.3396091E-009  0.9118800E+02  0.7816531E-02  0.1126479E+00
         25   -1    0    0    0    0  0.00000000000E+00  0.00000000000E+00  0.99999998245E-14  0.12500000000E+03  0.12500000000E+03 0.  0.
    3000001    1    3    3    0    0 -0.18509020363E+02  0.74525336870E+01 -0.30196663487E+02  0.36207217221E+02  0.10000000000E+01 0. -1.
    1000022    2    1    0    0    0 -0.25569312899E+02  0.84889928512E+01 -0.55501325046E+02  0.62499998997E+02  0.10000001551E+02 0.  0.
    3000022    2    3    3    0    0 -0.70602925361E+01  0.10364591642E+01 -0.25304661558E+02  0.26292781775E+02  0.24999722580E+00 0.  0.
    1000022    2    1    0    0    0  0.25569312899E+02 -0.84889928512E+01  0.55501325046E+02  0.62500001003E+02  0.10000014093E+02 0.  0.
    3000022    2    5    5    0    0  0.10748946562E+02  0.11532104008E+01  0.24845172023E+02  0.27096398643E+02  0.25000034514E+00 0.  0.
        -13    1    4    4    0    0 -0.40954377933E+01  0.60879055273E+00 -0.14442815502E+02  0.15024951956E+02  0.10500000000E+00 0.  1.
         13    1    4    4    0    0 -0.29648547427E+01  0.42766861148E+00 -0.10861846056E+02  0.11267829819E+02  0.10500000000E+00 0. -1.
    3000001    1    5    5    0    0  0.14820366337E+02 -0.96422032520E+01  0.30656153023E+02  0.35403602360E+02  0.10000000000E+01 0.  1.
        -13    1    6    6    0    0  0.56087110201E+01  0.64507210865E+00  0.12843827471E+02  0.14030277490E+02  0.10500000000E+00 0. -1.
         13    1    6    6    0    0  0.51402355418E+01  0.50813829212E+00  0.12001344552E+02  0.13066121154E+02  0.10500000000E+00 0.  1.
</event>
<event>
11    0  0.3396091E-009  0.9118800E+02  0.7816531E-02  0.1126479E+00
         25   -1    0    0    0    0  0.00000000000E+00  0.00000000000E+00  0.99999998245E-14  0.12500000000E+03  0.12500000000E+03 0.  0.
    3000001    1    3    3    0    0 -0.19190172033E+02 -0.53262126736E+02  0.28508869643E+01  0.56694306624E+02  0.10000000000E+01 0.  1.
    1000022    2    1    0    0    0 -0.18849131774E+02 -0.58504424122E+02  0.53096708625E+01  0.62499999615E+02  0.99999968384E+01 0.  0.
    3000022    2    3    3    0    0  0.34104025950E+00 -0.52422973858E+01  0.24587838982E+01  0.58056929909E+01  0.24992500293E+00 0.  0.
    1000022    2    1    0    0    0  0.18849131774E+02  0.58504424122E+02 -0.53096708625E+01  0.62500000385E+02  0.10000001651E+02 0.  0.
    3000022    2    5    5    0    0  0.13199215059E+02  0.34253951253E+02 -0.75543313822E+01  0.37479099241E+02  0.25000523831E+00 0.  0.
        -13    1    4    4    0    0  0.17952088110E+00 -0.18832743789E+01  0.87310869817E+00  0.20862152171E+01  0.10500000000E+00 0.  1.
         13    1    4    4    0    0  0.16151937840E+00 -0.33590230068E+01  0.15856752001E+01  0.37194777738E+01  0.10500000000E+00 0. -1.
    3000001    1    5    5    0    0  0.56499167141E+01  0.24250472868E+02  0.22446605197E+01  0.25020901144E+02  0.10000000000E+01 0. -1.
        -13    1    6    6    0    0  0.62138971158E+01  0.15976515295E+02 -0.35691084627E+01  0.17510314634E+02  0.10500000000E+00 0. -1.
         13    1    6    6    0    0  0.69853179436E+01  0.18277435958E+02 -0.39852229195E+01  0.19968784607E+02  0.10500000000E+00 0.  1.
</event>
<event>
11    0  0.3396091E-009  0.9118800E+02  0.7816531E-02  0.1126479E+00
         25   -1    0    0    0    0  0.00000000000E+00  0.00000000000E+00  0.99999998245E-14  0.12500000000E+03  0.12500000000E+03 0.  0.
    3000001    1    3    3    0    0 -0.21136121789E+01 -0.27223933222E+01 -0.17058553329E+02  0.17431954094E+02  0.10000000000E+01 0.  1.
    1000022    2    1    0    0    0  0.33002390158E+00  0.38897532173E+01 -0.61571185588E+02  0.62500000084E+02  0.10000000996E+02 0.  0.
    3000022    2    3    3    0    0  0.24436360805E+01  0.66121465396E+01 -0.44512632259E+02  0.45068045990E+02  0.24999922648E+00 0.  0.
    1000022    2    1    0    0    0 -0.33002390158E+00 -0.38897532173E+01  0.61571185588E+02  0.62499999916E+02  0.99999999465E+01 0.  0.
    3000022    2    5    5    0    0  0.34103938599E+00  0.15927881355E+01  0.44482404941E+02  0.44512920953E+02  0.25000105399E+00 0.  0.
        -13    1    4    4    0    0  0.10679198404E+01  0.28606006389E+01 -0.18869611031E+02  0.19115353365E+02  0.10500000000E+00 0.  1.
         13    1    4    4    0    0  0.13757162401E+01  0.37515459007E+01 -0.25643021227E+02  0.25952692625E+02  0.10500000000E+00 0. -1.
    3000001    1    5    5    0    0 -0.67106328757E+00 -0.54825413528E+01  0.17088780647E+02  0.17987078963E+02  0.10000000000E+01 0.  1.
        -13    1    6    6    0    0  0.24308529172E+00  0.98021754628E+00  0.28838281517E+02  0.28856150518E+02  0.10500000000E+00 0.  1.
         13    1    6    6    0    0  0.97954094271E-01  0.61257058921E+00  0.15644123424E+02  0.15656770435E+02  0.10500000000E+00 0. -1.
</event>
<event>
11    0  0.3396091E-009  0.9118800E+02  0.7816531E-02  0.1126479E+00
         25   -1    0    0    0    0  0.00000000000E+00  0.00000000000E+00  0.99999998245E-14  0.12500000000E+03  0.12500000000E+03 0.  0.
    3000001    1    3    3    0    0 -0.68848711290E+01 -0.13634703514E+02  0.24226552306E+02  0.28657153156E+02  0.10000000000E+01 0. -1.
    1000022    2    1    0    0    0 -0.58892528401E+01 -0.25077488765E+02  0.56059667413E+02  0.62500000435E+02  0.10000000107E+02 0.  0.
    3000022    2    3    3    0    0  0.99561828894E+00 -0.11442785251E+02  0.31833115107E+02  0.33842847279E+02  0.25000888965E+00 0.  0.
    1000022    2    1    0    0    0  0.58892528401E+01  0.25077488765E+02 -0.56059667413E+02  0.62499999565E+02  0.99999946707E+01 0.  0.
    3000022    2    5    5    0    0  0.72911266997E+00  0.10317173268E+02 -0.33287796371E+02  0.34858507729E+02  0.25000876030E+00 0.  0.
        -13    1    4    4    0    0  0.71606324235E+00 -0.83442383620E+01  0.23104308174E+02  0.24575580189E+02  0.10500000000E+00 0. -1.
         13    1    4    4    0    0  0.27955504659E+00 -0.30985468889E+01  0.87288069325E+01  0.92672670897E+01  0.10500000000E+00 0.  1.
    3000001    1    5    5    0    0  0.51601401701E+01  0.14760315496E+02 -0.22771871043E+02  0.27641491836E+02  0.10000000000E+01 0.  1.
        -13    1    6    6    0    0  0.35506917138E+00  0.42631111345E+01 -0.13887934247E+02  0.14532237726E+02  0.10500000000E+00 0.  1.
         13    1    6    6    0    0  0.37404349859E+00  0.60540621340E+01 -0.19399862123E+02  0.20326270004E+02  0.10500000000E+00 0. -1.
</event>
<event>
11    0  0.3396091E-009  0.9118800E+02  0.7816531E-02  0.1126479E+00
         25   -1    0    0    0    0  0.00000000000E+00  0.00000000000E+00  0.99999998245E-14  0.12500000000E+03  0.12500000000E+03 0.  0.
    3000001    1    3    3    0    0  0.77379786264E+00  0.35479329402E+02 -0.37076801074E+02  0.51332940261E+02  0.10000000000E+01 0.  1.
    1000022    2    1    0    0    0 -0.25575280491E+01  0.40483629183E+02 -0.46484241372E+02  0.62499998260E+02  0.99999952494E+01 0.  0.
    3000022    2    3    3    0    0 -0.33313259117E+01  0.50042997806E+01 -0.94074402978E+01  0.11167057998E+02  0.25000551902E+00 0.  0.
    1000022    2    1    0    0    0  0.25575280491E+01 -0.40483629183E+02  0.46484241372E+02  0.62500001740E+02  0.10000017004E+02 0.  0.
    3000022    2    5    5    0    0  0.56727651265E+01 -0.29962541738E+02  0.30901212371E+02  0.43415223095E+02  0.24999775014E+00 0.  0.
        -13    1    4    4    0    0 -0.15245003685E+01  0.22919169960E+01 -0.44324902170E+01  0.52187143449E+01  0.10500000000E+00 0.  1.
         13    1    4    4    0    0 -0.18068255432E+01  0.27123827846E+01 -0.49749500809E+01  0.59483436536E+01  0.10500000000E+00 0. -1.
    3000001    1    5    5    0    0 -0.31152370774E+01 -0.10521087445E+02  0.15583029001E+02  0.19084778645E+02  0.10000000000E+01 0. -1.
        -13    1    6    6    0    0  0.38777403107E+01 -0.20697575545E+02  0.21375978248E+02  0.30006165607E+02  0.10500000000E+00 0. -1.
         13    1    6    6    0    0  0.17950248158E+01 -0.92649661921E+01  0.95252341234E+01  0.13409057489E+02  0.10500000000E+00 0.  1.
</event>
<event>
11    0  0.3396091E-009  0.9118800E+02  0.7816531E-02  0.1126479E+00
         25   -1    0    0    0    0  0.00000000000E+00  0.00000000000E+00  0.99999998245E-14  0.12500000000E+03  0.12500000000E+03 0.  0.
    3000001    1    3    3    0    0  0.17264203010E+02  0.99098869558E+01  0.32301303158E+02  0.37955668230E+02  0.10000000000E+01 0.  1.
    1000022    2    1    0    0    0  0.23895072550E+02  0.10364095734E+02  0.55927285629E+02  0.62500001276E+02  0.99999954543E+01 0.  0.
    3000022    2    3    3    0    0  0.66308695408E+01  0.45420877797E+00  0.23625982471E+02  0.24544333046E+02  0.25000099327E+00 0.  0.
    1000022    2    1    0    0    0 -0.23895072550E+02 -0.10364095734E+02 -0.55927285629E+02  0.62499998724E+02  0.99999795024E+01 0.  0.
    3000022    2    5    5    0    0 -0.22689935504E+02 -0.72956497921E+01 -0.52416392522E+02  0.57581250285E+02  0.25000048573E+00 0.  0.
        -13    1    4    4    0    0  0.28893759262E+01  0.13645652647E+00  0.10370830370E+02  0.10767184460E+02  0.10500000000E+00 0. -1.
         13    1    4    4    0    0  0.37414936147E+01  0.31775225150E+00  0.13255152101E+02  0.13777148587E+02  0.10500000000E+00 0.  1.
    3000001    1    5    5    0    0 -0.12051370463E+01 -0.30684459416E+01 -0.35108931069E+01  0.49187484389E+01  0.10000000000E+01 0.  1.
        -13    1    6    6    0    0 -0.12690058833E+02 -0.40512081445E+01 -0.29440825349E+02  0.32314441089E+02  0.10500000000E+00 0.  1.
         13    1    6    6    0    0 -0.99998766707E+01 -0.32444416476E+01 -0.22975567173E+02  0.25266809196E+02  0.10500000000E+00 0. -1.
</event>
<event>
11    0  0.3396091E-009  0.9118800E+02  0.7816531E-02  0.1126479E+00
         25   -1    0    0    0    0  0.00000000000E+00  0.00000000000E+00  0.99999998245E-14  0.12500000000E+03  0.12500000000E+03 0.  0.
    3000001    1    3    3    0    0  0.87420972756E+01  0.84576373608E+01  0.42178570678E+02  0.43908856953E+02  0.10000000000E+01 0. -1.
    1000022    2    1    0    0    0  0.14940148746E+02  0.17321629512E+02  0.57297496695E+02  0.62500000467E+02  0.10000001868E+02 0.  0.
    3000022    2    3    3    0    0  0.61980514703E+01  0.88639921513E+01  0.15118926017E+02  0.18591143514E+02  0.24998871149E+00 0.  0.
    1000022    2    1    0    0    0 -0.14940148746E+02 -0.17321629512E+02 -0.57297496695E+02  0.62499999533E+02  0.99999960324E+01 0.  0.
    3000022    2    5    5    0    0 -0.18896535546E+01 -0.45141803126E+00 -0.82471885108E+00  0.21253848550E+01  0.25006159890E+00 0.  0.
        -13    1    4    4    0    0  0.31351500396E+01  0.45062123879E+01  0.77877046250E+01  0.95286139697E+01  0.10500000000E+00 0. -1.
         13    1    4    4    0    0  0.30629014307E+01  0.43577797634E+01  0.73312213920E+01  0.90625295441E+01  0.10500000000E+00 0.  1.
    3000001    1    5    5    0    0 -0.13050495191E+02 -0.16870211481E+02 -0.56472777844E+02  0.60374614678E+02  0.10000000000E+01 0.  1.
        -13    1    6    6    0    0 -0.13023488084E+01 -0.35449317185E+00 -0.54571549560E+00  0.14596603131E+01  0.10500000000E+00 0.  1.
         13    1    6    6    0    0 -0.58730474622E+00 -0.96924859407E-01 -0.27900335549E+00  0.66572454190E+00  0.10500000000E+00 0. -1.
</event>
<event>
11    0  0.3396091E-009  0.9118800E+02  0.7816531E-02  0.1126479E+00
         25   -1    0    0    0    0  0.00000000000E+00  0.00000000000E+00  0.99999998245E-14  0.12500000000E+03  0.12500000000E+03 0.  0.
    3000001    1    3    3    0    0 -0.34555995210E+01  0.76076120440E+01 -0.37631442387E+01  0.92183612222E+01  0.10000000000E+01 0. -1.
    1000022    2    1    0    0    0 -0.14468552117E+02  0.40768893307E+02 -0.43986456516E+02  0.62500000171E+02  0.10000000135E+02 0.  0.
    3000022    2    3    3    0    0 -0.11012952596E+02  0.33161281263E+02 -0.40223312277E+02  0.53281638949E+02  0.24999727050E+00 0.  0.
    1000022    2    1    0    0    0  0.14468552117E+02 -0.40768893307E+02  0.43986456516E+02  0.62499999829E+02  0.99999979990E+01 0.  0.
    3000022    2    5    5    0    0  0.15823569580E+01 -0.10711575832E+02  0.60594044224E+01  0.12410503525E+02  0.25001090783E+00 0.  0.
        -13    1    4    4    0    0 -0.29102883166E+01  0.88730557819E+01 -0.10743907612E+02  0.14235289697E+02  0.10500000000E+00 0.  1.
         13    1    4    4    0    0 -0.81026642795E+01  0.24288225481E+02 -0.29479404665E+02  0.39046349251E+02  0.10500000000E+00 0. -1.
    3000001    1    5    5    0    0  0.12886195159E+02 -0.30057317476E+02  0.37927052093E+02  0.50089496304E+02  0.10000000000E+01 0. -1.
        -13    1    6    6    0    0  0.90237909500E+00 -0.57221882660E+01  0.32834236189E+01  0.66595512044E+01  0.10500000000E+00 0. -1.
         13    1    6    6    0    0  0.67997786300E+00 -0.49893875655E+01  0.27759808034E+01  0.57509523206E+01  0.10500000000E+00 0.  1.
</event>
<event>
11    0  0.3396091E-009  0.9118800E+02  0.7816531E-02  0.1126479E+00
         25   -1    0    0    0    0  0.00000000000E+00  0.00000000000E+00  0.99999998245E-14  0.12500000000E+03  0.12500000000E+03 0.  0.
    3000001    1    3    3    0    0  0.30893493779E+02  0.24262394612E+02  0.89893730318E+01  0.40309807463E+02  0.10000000000E+01 0. -1.
    1000022    2    1    0    0    0  0.42319442679E+02  0.42240206572E+02  0.15201304252E+02  0.62499999488E+02  0.10000000257E+02 0.  0.
    3000022    2    3    3    0    0  0.11425948900E+02  0.17977811960E+02  0.62119312206E+01  0.22190192025E+02  0.25000300961E+00 0.  0.
    1000022    2    1    0    0    0 -0.42319442679E+02 -0.42240206572E+02 -0.15201304252E+02  0.62500000512E+02  0.10000006654E+02 0.  0.
    3000022    2    5    5    0    0 -0.66669703465E+01 -0.10674858916E+02 -0.28875740914E+00  0.12591544220E+02  0.24999705665E+00 0.  0.
        -13    1    4    4    0    0  0.31860359092E+01  0.50378641626E+01  0.16995896887E+01  0.61992362630E+01  0.10500000000E+00 0. -1.
         13    1    4    4    0    0  0.82399129909E+01  0.12939947797E+02  0.45123415320E+01  0.15990955762E+02  0.10500000000E+00 0.  1.
    3000001    1    5    5    0    0 -0.35652472333E+02 -0.31565347656E+02 -0.14912546843E+02  0.49908456292E+02  0.10000000000E+01 0.  1.
        -13    1    6    6    0    0 -0.25208192345E+01 -0.39757511502E+01 -0.57190799040E-01  0.47090787432E+01  0.10500000000E+00 0. -1.
         13    1    6    6    0    0 -0.41461511120E+01 -0.66991077653E+01 -0.23156661010E+00  0.78824654766E+01  0.10500000000E+00 0.  1.
</event>
<event>
11    0  0.3396091E-009  0.9118800E+02  0.7816531E-02  0.1126479E+00
         25   -1    0    0    0    0  0.00000000000E+00  0.00000000000E+00  0.99999998245E-14  0.12500000000E+03  0.12500000000E+03 0.  0.
    3000001    1    3    3    0    0 -0.11030120137E+02  0.27012461678E+02 -0.56757863011E+00  0.29200321602E+02  0.10000000000E+01 0.  1.
    1000022    2    1    0    0    0 -0.13691554683E+02  0.60135985575E+02  0.15666782425E+01  0.62500000606E+02  0.10000008211E+02 0.  0.
    3000022    2    3    3    0    0 -0.26614345462E+01  0.33123523897E+02  0.21342568726E+01  0.33299679004E+02  0.25000028307E+00 0.  0.
    1000022    2    1    0    0    0  0.13691554683E+02 -0.60135985575E+02 -0.15666782425E+01  0.62499999394E+02  0.10000000641E+02 0.  0.
    3000022    2    5    5    0    0  0.43424370488E+01 -0.55047902842E+01 -0.78975376891E+00  0.70601481038E+01  0.25000927030E+00 0.  0.
        -13    1    4    4    0    0 -0.12931822671E+01  0.16845384671E+02  0.11164612350E+01  0.16932123782E+02  0.10500000000E+00 0.  1.
         13    1    4    4    0    0 -0.13682522790E+01  0.16278139226E+02  0.10177956375E+01  0.16367555221E+02  0.10500000000E+00 0. -1.
    3000001    1    5    5    0    0  0.93491176342E+01 -0.54631195291E+02 -0.77692447355E+00  0.55439851291E+02  0.10000000000E+01 0.  1.
        -13    1    6    6    0    0  0.23657507308E+01 -0.29432275240E+01 -0.48322758691E+00  0.38083984401E+01  0.10500000000E+00 0. -1.
         13    1    6    6    0    0  0.19766863181E+01 -0.25615627603E+01 -0.30652618199E+00  0.32517496637E+01  0.10500000000E+00 0.  1.
</event>
<event>
11    0  0.3396091E-009  0.9118800E+02  0.7816531E-02  0.1126479E+00
         25   -1    0    0    0    0  0.00000000000E+00  0.00000000000E+00  0.99999998245E-14  0.12500000000E+03  0.12500000000E+03 0.  0.
    3000001    1    3    3    0    0 -0.34900639586E+01 -0.89394923581E+01 -0.15465153926E+02  0.18228166557E+02  0.10000000000E+01 0. -1.
    1000022    2    1    0    0    0 -0.19947989348E+02 -0.17842381730E+02 -0.55587563325E+02  0.62499996982E+02  0.99999780765E+01 0.  0.
    3000022    2    3    3    0    0 -0.16457925389E+02 -0.89028893716E+01 -0.40122409399E+02  0.44271830425E+02  0.24997193481E+00 0.  0.
    1000022    2    1    0    0    0  0.19947989348E+02  0.17842381730E+02  0.55587563325E+02  0.62500003018E+02  0.10000015802E+02 0.  0.
    3000022    2    5    5    0    0  0.25799499247E+01 -0.10321783099E+01  0.72756080863E+01  0.77922080608E+01  0.24999952198E+00 0.  0.
        -13    1    4    4    0    0 -0.75561380327E+01 -0.40251986869E+01 -0.18266600085E+02  0.20173674680E+02  0.10500000000E+00 0.  1.
         13    1    4    4    0    0 -0.89017873565E+01 -0.48776906847E+01 -0.21855809314E+02  0.24098155745E+02  0.10500000000E+00 0. -1.
    3000001    1    5    5    0    0  0.17368039423E+02  0.18874560040E+02  0.48311955239E+02  0.54707794957E+02  0.10000000000E+01 0.  1.
        -13    1    6    6    0    0  0.13619198098E+01 -0.47200690246E+00  0.37733449533E+01  0.40406401994E+01  0.10500000000E+00 0.  1.
         13    1    6    6    0    0  0.12180301149E+01 -0.56017140743E+00  0.35022631330E+01  0.37515678614E+01  0.10500000000E+00 0. -1.
</event>
<event>
11    0  0.3396091E-009  0.9118800E+02  0.7816531E-02  0.1126479E+00
         25   -1    0    0    0    0  0.00000000000E+00  0.00000000000E+00  0.99999998245E-14  0.12500000000E+03  0.12500000000E+03 0.  0.
    3000001    1    3    3    0    0  0.36160764534E+02 -0.17431143849E+02  0.15158764194E+02  0.42921251141E+02  0.10000000000E+01 0. -1.
    1000022    2    1    0    0    0  0.48859646084E+02 -0.30878221235E+02  0.21575905182E+02  0.62500006954E+02  0.10000081138E+02 0.  0.
    3000022    2    3    3    0    0  0.12698881549E+02 -0.13447077387E+02  0.64171409878E+01  0.19578755814E+02  0.24999581043E+00 0.  0.
    1000022    2    1    0    0    0 -0.48859646084E+02  0.30878221235E+02 -0.21575905182E+02  0.62499993046E+02  0.99999942114E+01 0.  0.
    3000022    2    5    5    0    0 -0.47848440900E+02  0.29632066223E+02 -0.19206020630E+02  0.59468196380E+02  0.25001393554E+00 0.  0.
        -13    1    4    4    0    0  0.91312275316E+01 -0.96832312823E+01  0.45766662777E+01  0.14074842220E+02  0.10500000000E+00 0.  1.
         13    1    4    4    0    0  0.35676540179E+01 -0.37638461042E+01  0.18404747100E+01  0.55039135936E+01  0.10500000000E+00 0. -1.
    3000001    1    5    5    0    0 -0.10112051835E+01  0.12461550123E+01 -0.23698845514E+01  0.30317966661E+01  0.10000000000E+01 0.  1.
        -13    1    6    6    0    0 -0.32402887854E+02  0.20106229128E+02 -0.12972293679E+02  0.40280255949E+02  0.10500000000E+00 0. -1.
         13    1    6    6    0    0 -0.15445553046E+02  0.95258370952E+01 -0.62337269510E+01  0.19187940431E+02  0.10500000000E+00 0.  1.
</event>
<event>
11    0  0.3396091E-009  0.9118800E+02  0.7816531E-02  0.1126479E+00
         25   -1    0    0    0    0  0.00000000000E+00  0.00000000000E+00  0.99999998245E-14  0.12500000000E+03  0.12500000000E+03 0.  0.
    3000001    1    3    3    0    0  0.14356510204E+02  0.29207789316E+02  0.11437926155E+02  0.34511309692E+02  0.10000000000E+01 0. -1.
    1000022    2    1    0    0    0  0.20627970218E+02  0.51165908774E+02  0.27618596346E+02  0.62500000476E+02  0.99999909671E+01 0.  0.
    3000022    2    3    3    0    0  0.62714600143E+01  0.21958119458E+02  0.16180670192E+02  0.27988690783E+02  0.25000615660E+00 0.  0.
    1000022    2    1    0    0    0 -0.20627970218E+02 -0.51165908774E+02 -0.27618596346E+02  0.62499999524E+02  0.99999850225E+01 0.  0.
    3000022    2    5    5    0    0 -0.10120750678E+02 -0.13060871421E+02 -0.83636231283E+01  0.18521032645E+02  0.25000371836E+00 0.  0.
        -13    1    4    4    0    0  0.19927293703E+01  0.69052683394E+01  0.51484685480E+01  0.88414622417E+01  0.10500000000E+00 0.  1.
         13    1    4    4    0    0  0.42787306440E+01  0.15052851119E+02  0.11032201644E+02  0.19147228542E+02  0.10500000000E+00 0. -1.
    3000001    1    5    5    0    0 -0.10507219540E+02 -0.38105037353E+02 -0.19254973218E+02  0.43978966879E+02  0.10000000000E+01 0. -1.
        -13    1    6    6    0    0 -0.77725800918E+01 -0.10011126836E+02 -0.64166013433E+01  0.14206317595E+02  0.10500000000E+00 0. -1.
         13    1    6    6    0    0 -0.23481705860E+01 -0.30497445847E+01 -0.19470217851E+01  0.43147150502E+01  0.10500000000E+00 0.  1.
</event>
<event>
11    0  0.3396091E-009  0.9118800E+02  0.7816531E-02  0.1126479E+00
         25   -1    0    0    0    0  0.00000000000E+00  0.00000000000E+00  0.99999998245E-14  0.12500000000E+03  0.12500000000E+03 0.  0.
    3000001    1    3    3    0    0  0.25740429348E+02  0.12146628195E+02 -0.14768542609E+02  0.32081460851E+02  0.10000000000E+01 0.  1.
    1000022    2    1    0    0    0  0.51907991052E+02  0.26803647389E+02 -0.19833679905E+02  0.62500001454E+02  0.10000013734E+02 0.  0.
    3000022    2    3    3    0    0  0.26167561704E+02  0.14657019194E+02 -0.50651372954E+01  0.30418540603E+02  0.24999873813E+00 0.  0.
    1000022    2    1    0    0    0 -0.51907991052E+02 -0.26803647389E+02  0.19833679905E+02  0.62499998546E+02  0.99999955648E+01 0.  0.
    3000022    2    5    5    0    0 -0.29796269886E+02 -0.16793927959E+02  0.16513441816E+02  0.37981705845E+02  0.25000579363E+00 0.  0.
        -13    1    4    4    0    0  0.11803053873E+02  0.65589811491E+01 -0.22309678817E+01  0.13686510042E+02  0.10500000000E+00 0.  1.
         13    1    4    4    0    0  0.14364507832E+02  0.80980380448E+01 -0.28341694136E+01  0.16732030561E+02  0.10500000000E+00 0. -1.
    3000001    1    5    5    0    0 -0.22111721167E+02 -0.10009719430E+02  0.33202380885E+01  0.24518292701E+02  0.10000000000E+01 0.  1.
        -13    1    6    6    0    0 -0.13797700498E+02 -0.78486926941E+01  0.76369608129E+01  0.17615695033E+02  0.10500000000E+00 0. -1.
         13    1    6    6    0    0 -0.15998569388E+02 -0.89452352652E+01  0.88764810033E+01  0.20366010812E+02  0.10500000000E+00 0.  1.
</event>
<event>
11    0  0.3396091E-009  0.9118800E+02  0.7816531E-02  0.1126479E+00
         25   -1    0    0    0    0  0.00000000000E+00  0.00000000000E+00  0.99999998245E-14  0.12500000000E+03  0.12500000000E+03 0.  0.
    3000001    1    3    3    0    0  0.19034409076E+02  0.50399461383E+02 -0.37041227347E+01  0.54010507883E+02  0.10000000000E+01 0.  1.
    1000022    2    1    0    0    0  0.22524424881E+02  0.57433982491E+02 -0.48787018913E+00  0.62500000115E+02  0.99999968011E+01 0.  0.
    3000022    2    3    3    0    0  0.34900158046E+01  0.70345211081E+01  0.32162525455E+01  0.84894922314E+01  0.25000074931E+00 0.  0.
    1000022    2    1    0    0    0 -0.22524424881E+02 -0.57433982491E+02  0.48787018913E+00  0.62499999885E+02  0.99999953657E+01 0.  0.
    3000022    2    5    5    0    0 -0.11959460597E+02 -0.42520789148E+02 -0.42916258418E+00  0.44173441149E+02  0.25002973389E+00 0.  0.
        -13    1    4    4    0    0  0.16098984443E+01  0.31071856571E+01  0.14053399813E+01  0.37725828250E+01  0.10500000000E+00 0. -1.
         13    1    4    4    0    0  0.18801173603E+01  0.39273354510E+01  0.18109125642E+01  0.47169094064E+01  0.10500000000E+00 0.  1.
    3000001    1    5    5    0    0 -0.10564964284E+02 -0.14913193343E+02  0.91703277331E+00  0.18326558736E+02  0.10000000000E+01 0. -1.
        -13    1    6    6    0    0 -0.72198882888E+01 -0.25543513038E+02 -0.20498500381E+00  0.26545261142E+02  0.10500000000E+00 0. -1.
         13    1    6    6    0    0 -0.47395723086E+01 -0.16977276110E+02 -0.22417758037E+00  0.17628180007E+02  0.10500000000E+00 0.  1.
</event>
<event>
11    0  0.3396091E-009  0.9118800E+02  0.7816531E-02  0.1126479E+00
         25   -1    0    0    0    0  0.00000000000E+00  0.00000000000E+00  0.99999998245E-14  0.12500000000E+03  0.12500000000E+03 0.  0.
    3000001    1    3    3    0    0  0.88278968671E+01 -0.40716823891E+02  0.36954977570E+02  0.55699747559E+02  0.10000000000E+01 0.  1.
    1000022    2    1    0    0    0  0.68640768066E+01 -0.46465048192E+02  0.40001670760E+02  0.62500000583E+02  0.10000007766E+02 0.  0.
    3000022    2    3    3    0    0 -0.19638200605E+01 -0.57482243012E+01  0.30466931900E+01  0.68002530242E+01  0.24985986618E+00 0.  0.
    1000022    2    1    0    0    0 -0.68640768066E+01  0.46465048192E+02 -0.40001670760E+02  0.62499999417E+02  0.10000000482E+02 0.  0.
    3000022    2    5    5    0    0 -0.49609252164E+01  0.39467831140E+02 -0.37753269550E+02  0.54842431889E+02  0.24999969928E+00 0.  0.
        -13    1    4    4    0    0 -0.93557386343E+00 -0.28193923282E+01  0.14201481104E+01  0.32942551829E+01  0.10500000000E+00 0.  1.
         13    1    4    4    0    0 -0.10282461971E+01 -0.29288319729E+01  0.16265450796E+01  0.35059978413E+01  0.10500000000E+00 0. -1.
    3000001    1    5    5    0    0 -0.19031515902E+01  0.69972170525E+01 -0.22484012101E+01  0.76575675287E+01  0.10000000000E+01 0. -1.
        -13    1    6    6    0    0 -0.36803931062E+01  0.29015263999E+02 -0.27748766984E+02  0.40316695456E+02  0.10500000000E+00 0.  1.
         13    1    6    6    0    0 -0.12805321102E+01  0.10452567141E+02 -0.10004502566E+02  0.14525736433E+02  0.10500000000E+00 0. -1.
</event>
<event>
11    0  0.3396091E-009  0.9118800E+02  0.7816531E-02  0.1126479E+00
         25   -1    0    0    0    0  0.00000000000E+00  0.00000000000E+00  0.99999998245E-14  0.12500000000E+03  0.12500000000E+03 0.  0.
    3000001    1    3    3    0    0 -0.54892416763E+02 -0.22744408078E+02  0.15234430834E+02  0.61347969809E+02  0.10000000000E+01 0. -1.
    1000022    2    1    0    0    0 -0.55559090520E+02 -0.21882192715E+02  0.15511516043E+02  0.62500000364E+02  0.10000000908E+02 0.  0.
    3000022    2    3    3    0    0 -0.66667375665E+00  0.86221536294E+00  0.27708520909E+00  0.11520305547E+01  0.25005790518E+00 0.  0.
    1000022    2    1    0    0    0  0.55559090520E+02  0.21882192715E+02 -0.15511516043E+02  0.62499999636E+02  0.99999963576E+01 0.  0.
    3000022    2    5    5    0    0  0.14099174334E+02  0.10260208610E+02 -0.35005570889E+01  0.17786933317E+02  0.24999853644E+00 0.  0.
        -13    1    4    4    0    0 -0.22142886400E+00  0.38910969552E+00  0.12623136620E+00  0.47686104346E+00  0.10500000000E+00 0.  1.
         13    1    4    4    0    0 -0.44524489265E+00  0.47310566742E+00  0.15085384289E+00  0.67516951123E+00  0.10500000000E+00 0. -1.
    3000001    1    5    5    0    0  0.41459916186E+02  0.11621984105E+02 -0.12010958954E+02  0.44713066319E+02  0.10000000000E+01 0. -1.
        -13    1    6    6    0    0  0.59014694126E+01  0.43640020470E+01 -0.15066831330E+01  0.74935288188E+01  0.10500000000E+00 0. -1.
         13    1    6    6    0    0  0.81977049215E+01  0.58962065626E+01 -0.19938739558E+01  0.10293404498E+02  0.10500000000E+00 0.  1.
</event>
<event>
11    0  0.3396091E-009  0.9118800E+02  0.7816531E-02  0.1126479E+00
         25   -1    0    0    0    0  0.00000000000E+00  0.00000000000E+00  0.99999998245E-14  0.12500000000E+03  0.12500000000E+03 0.  0.
    3000001    1    3    3    0    0  0.25004269661E+01 -0.23989454386E+02 -0.35977237366E+02  0.43325600575E+02  0.10000000000E+01 0.  1.
    1000022    2    1    0    0    0 -0.22723172212E+01 -0.31764509963E+02 -0.52840348866E+02  0.62500000350E+02  0.10000002838E+02 0.  0.
    3000022    2    3    3    0    0 -0.47727441872E+01 -0.77750555769E+01 -0.16863111500E+02  0.19174399774E+02  0.25000191039E+00 0.  0.
    1000022    2    1    0    0    0  0.22723172212E+01  0.31764509963E+02  0.52840348866E+02  0.62499999650E+02  0.99999984665E+01 0.  0.
    3000022    2    5    5    0    0  0.42675929279E+01  0.11536250652E+02  0.26474876708E+02  0.29193818213E+02  0.24999321697E+00 0.  0.
        -13    1    4    4    0    0 -0.23753068727E+01 -0.39949587713E+01 -0.85543751013E+01  0.97360226324E+01  0.10500000000E+00 0.  1.
         13    1    4    4    0    0 -0.23974373145E+01 -0.37800968056E+01 -0.83087363984E+01  0.94383771420E+01  0.10500000000E+00 0. -1.
    3000001    1    5    5    0    0 -0.19952757067E+01  0.20228259311E+02  0.26365472157E+02  0.33306181438E+02  0.10000000000E+01 0. -1.
        -13    1    6    6    0    0  0.27472942799E+01  0.75574901395E+01  0.17383254833E+02  0.19153377161E+02  0.10500000000E+00 0.  1.
         13    1    6    6    0    0  0.15202986480E+01  0.39787605125E+01  0.90916218749E+01  0.10040441052E+02  0.10500000000E+00 0. -1.
</event>
<event>
11    0  0.3396091E-009  0.9118800E+02  0.7816531E-02  0.1126479E+00
         25   -1    0    0    0    0  0.00000000000E+00  0.00000000000E+00  0.99999998245E-14  0.12500000000E+03  0.12500000000E+03 0.  0.
    3000001    1    3    3    0    0 -0.16176904378E+02  0.99092854703E+01  0.31395472849E+02  0.36695529553E+02  0.10000000000E+01 0.  1.
    1000022    2    1    0    0    0 -0.21701765205E+02  0.11831976109E+02  0.56526874639E+02  0.62499999768E+02  0.10000007144E+02 0.  0.
    3000022    2    3    3    0    0 -0.55248608271E+01  0.19226906387E+01  0.25131401791E+02  0.25804470215E+02  0.25000134104E+00 0.  0.
    1000022    2    1    0    0    0  0.21701765205E+02 -0.11831976109E+02 -0.56526874639E+02  0.62500000232E+02  0.10000010040E+02 0.  0.
    3000022    2    5    5    0    0  0.47206403247E+01 -0.50897273324E+01 -0.25974536770E+02  0.26887335770E+02  0.24999001705E+00 0.  0.
        -13    1    4    4    0    0 -0.16734699076E+01  0.58956252514E+00  0.78353004782E+01  0.80343664396E+01  0.10500000000E+00 0.  1.
         13    1    4    4    0    0 -0.38513909194E+01  0.13331281136E+01  0.17296101312E+02  0.17770103775E+02  0.10500000000E+00 0. -1.
    3000001    1    5    5    0    0  0.16981124880E+02 -0.67422487766E+01 -0.30552337870E+02  0.35612664462E+02  0.10000000000E+01 0. -1.
        -13    1    6    6    0    0  0.19238406414E+01 -0.19966114100E+01 -0.10508854424E+02  0.10868977240E+02  0.10500000000E+00 0.  1.
         13    1    6    6    0    0  0.27967996832E+01 -0.30931159224E+01 -0.15465682346E+02  0.16018358530E+02  0.10500000000E+00 0. -1.
</event>
<event>
11    0  0.3396091E-009  0.9118800E+02  0.7816531E-02  0.1126479E+00
         25   -1    0    0    0    0  0.00000000000E+00  0.00000000000E+00  0.99999998245E-14  0.12500000000E+03  0.12500000000E+03 0.  0.
    3000001    1    3    3    0    0  0.32356072827E+02 -0.15895196203E+02  0.15710464452E+02  0.39336896222E+02  0.10000000000E+01 0. -1.
    1000022    2    1    0    0    0  0.53574193034E+02 -0.24972393936E+02  0.17675842553E+02  0.62499999218E+02  0.99999937058E+01 0.  0.
    3000022    2    3    3    0    0  0.21218120207E+02 -0.90771977335E+01  0.19653781007E+01  0.23163102996E+02  0.24997096205E+00 0.  0.
    1000022    2    1    0    0    0 -0.53574193034E+02  0.24972393936E+02 -0.17675842553E+02  0.62500000782E+02  0.10000003482E+02 0.  0.
    3000022    2    5    5    0    0 -0.37284084221E+02  0.13703037939E+02 -0.15115507288E+02  0.42501967218E+02  0.24994386228E+00 0.  0.
        -13    1    4    4    0    0  0.50139357862E+01 -0.21302772689E+01  0.45616442217E+00  0.54677915369E+01  0.10500000000E+00 0.  1.
         13    1    4    4    0    0  0.16204184421E+02 -0.69469204646E+01  0.15092136785E+01  0.17695311459E+02  0.10500000000E+00 0. -1.
    3000001    1    5    5    0    0 -0.16290108814E+02  0.11269355997E+02 -0.25603352648E+01  0.19998033564E+02  0.10000000000E+01 0. -1.
        -13    1    6    6    0    0 -0.13954706734E+02  0.51757854966E+01 -0.56200204336E+01  0.15909690450E+02  0.10500000000E+00 0. -1.
         13    1    6    6    0    0 -0.23329377487E+02  0.85272524427E+01 -0.94954868544E+01  0.26592276768E+02  0.10500000000E+00 0.  1.
</event>
<event>
11    0  0.3396091E-009  0.9118800E+02  0.7816531E-02  0.1126479E+00
         25   -1    0    0    0    0  0.00000000000E+00  0.00000000000E+00  0.99999998245E-14  0.12500000000E+03  0.12500000000E+03 0.  0.
    3000001    1    3    3    0    0 -0.45320655500E+02 -0.48429535461E+01  0.17286173864E+02  0.48756823326E+02  0.10000000000E+01 0. -1.
    1000022    2    1    0    0    0 -0.59029920151E+02 -0.57288282117E+01  0.16997028687E+02  0.62499996783E+02  0.99999833983E+01 0.  0.
    3000022    2    3    3    0    0 -0.13709264652E+02 -0.88587466568E+00 -0.28914517666E+00  0.13743173458E+02  0.25000107458E+00 0.  0.
    1000022    2    1    0    0    0  0.59029920151E+02  0.57288282117E+01 -0.16997028687E+02  0.62500003217E+02  0.10000023605E+02 0.  0.
    3000022    2    5    5    0    0  0.33842906533E+02  0.28535063574E+01 -0.46368712261E+01  0.34278971640E+02  0.25000157678E+00 0.  0.
        -13    1    4    4    0    0 -0.62658669267E+01 -0.38352298868E+00 -0.68636598976E-01  0.62788465667E+01  0.10500000000E+00 0. -1.
         13    1    4    4    0    0 -0.74433977251E+01 -0.50235167700E+00 -0.22050857768E+00  0.74643268909E+01  0.10500000000E+00 0.  1.
    3000001    1    5    5    0    0  0.25187013619E+02  0.28753218544E+01 -0.12360157461E+02  0.28221031577E+02  0.10000000000E+01 0.  1.
        -13    1    6    6    0    0  0.12572732496E+02  0.10093556074E+01 -0.17541504141E+01  0.12735009612E+02  0.10500000000E+00 0. -1.
         13    1    6    6    0    0  0.21270174037E+02  0.18441507499E+01 -0.28827208121E+01  0.21543962027E+02  0.10500000000E+00 0.  1.
</event>
<event>
11    0  0.3396091E-009  0.9118800E+02  0.7816531E-02  0.1126479E+00
         25   -1    0    0    0    0  0.00000000000E+00  0.00000000000E+00  0.99999998245E-14  0.12500000000E+03  0.12500000000E+03 0.  0.
    3000001    1    3    3    0    0  0.98289548027E+01  0.13029304218E+02  0.16276130764E+02  0.23071271174E+02  0.10000000000E+01 0. -1.
    1000022    2    1    0    0    0  0.15738864944E+02  0.32167378073E+02  0.50237424164E+02  0.62500002548E+02  0.99999725030E+01 0.  0.
    3000022    2    3    3    0    0  0.59099101411E+01  0.19138073855E+02  0.33961293400E+02  0.39428731374E+02  0.24999928983E+00 0.  0.
    1000022    2    1    0    0    0 -0.15738864944E+02 -0.32167378073E+02 -0.50237424164E+02  0.62499997452E+02  0.99999406530E+01 0.  0.
    3000022    2    5    5    0    0 -0.13137521985E+02 -0.18902989824E+02 -0.36844271030E+02  0.43445141596E+02  0.25002482436E+00 0.  0.
        -13    1    4    4    0    0  0.40218278661E+01  0.13093060905E+02  0.23312107493E+02  0.27038282564E+02  0.10500000000E+00 0.  1.
         13    1    4    4    0    0  0.18880822749E+01  0.60450129498E+01  0.10649185906E+02  0.12390448810E+02  0.10500000000E+00 0. -1.
    3000001    1    5    5    0    0 -0.26013429587E+01 -0.13264388249E+02 -0.13393153134E+02  0.19054855856E+02  0.10000000000E+01 0. -1.
        -13    1    6    6    0    0 -0.73239886043E+01 -0.10435498231E+02 -0.20464379833E+02  0.24111041026E+02  0.10500000000E+00 0. -1.
         13    1    6    6    0    0 -0.58135333808E+01 -0.84674915926E+01 -0.16379891196E+02  0.19334100570E+02  0.10500000000E+00 0.  1.
</event>
<event>
11    0  0.3396091E-009  0.9118800E+02  0.7816531E-02  0.1126479E+00
         25   -1    0    0    0    0  0.00000000000E+00  0.00000000000E+00  0.99999998245E-14  0.12500000000E+03  0.12500000000E+03 0.  0.
    3000001    1    3    3    0    0 -0.16587171160E+00  0.25230564191E+02 -0.51060249521E+02  0.56962777004E+02  0.10000000000E+01 0. -1.
    1000022    2    1    0    0    0 -0.88435100667E+00  0.29880656632E+02 -0.53968642849E+02  0.62499998444E+02  0.99999838515E+01 0.  0.
    3000022    2    3    3    0    0 -0.71847929507E+00  0.46500924410E+01 -0.29083933276E+01  0.55372214396E+01  0.24999463274E+00 0.  0.
    1000022    2    1    0    0    0  0.88435100667E+00 -0.29880656632E+02  0.53968642849E+02  0.62500001556E+02  0.10000003306E+02 0.  0.
    3000022    2    5    5    0    0  0.95005946429E+00 -0.79923579606E+00  0.94901890453E-01  0.12699981241E+01  0.24999604614E+00 0.  0.
        -13    1    4    4    0    0 -0.54856559457E+00  0.35523049366E+01 -0.22006976630E+01  0.42159091283E+01  0.10500000000E+00 0. -1.
         13    1    4    4    0    0 -0.16991370049E+00  0.10977875044E+01 -0.70769566459E+00  0.13213123113E+01  0.10500000000E+00 0. -1.
    3000001    1    5    5    0    0 -0.65708457617E-01 -0.29081420836E+02  0.53873740959E+02  0.61230003432E+02  0.10000000000E+01 0. -1.
        -13    1    6    6    0    0  0.52081111119E+00 -0.36452533577E+00  0.86165079278E-01  0.65005565519E+00  0.10500000000E+00 0. -1.
         13    1    6    6    0    0  0.42924835310E+00 -0.43471046029E+00  0.87368111744E-02  0.61994246893E+00  0.10500000000E+00 0.  1.
</event>
<event>
11    0  0.3396091E-009  0.9118800E+02  0.7816531E-02  0.1126479E+00
         25   -1    0    0    0    0  0.00000000000E+00  0.00000000000E+00  0.99999998245E-14  0.12500000000E+03  0.12500000000E+03 0.  0.
    3000001    1    3    3    0    0 -0.63341141288E+01  0.80332417213E+01 -0.12311498814E+02  0.16038297210E+02  0.10000000000E+01 0. -1.
    1000022    2    1    0    0    0 -0.15022117452E+02  0.20493669362E+02 -0.56219172103E+02  0.62500001157E+02  0.10000016797E+02 0.  0.
    3000022    2    3    3    0    0 -0.86880033236E+01  0.12460427641E+02 -0.43907673290E+02  0.46461703947E+02  0.25000241362E+00 0.  0.
    1000022    2    1    0    0    0  0.15022117452E+02 -0.20493669362E+02  0.56219172103E+02  0.62499998843E+02  0.10000002340E+02 0.  0.
    3000022    2    5    5    0    0  0.28365935276E+00 -0.16473566942E+01  0.36498017268E+00  0.17291472406E+01  0.24998589337E+00 0.  0.
        -13    1    4    4    0    0 -0.30574732188E+01  0.42872730800E+01 -0.15226826400E+02  0.16111986847E+02  0.10500000000E+00 0. -1.
         13    1    4    4    0    0 -0.56305301048E+01  0.81731545608E+01 -0.28680846890E+02  0.30349717100E+02  0.10500000000E+00 0.  1.
    3000001    1    5    5    0    0  0.14738458100E+02 -0.18846312668E+02  0.55854191930E+02  0.60770851603E+02  0.10000000000E+01 0. -1.
        -13    1    6    6    0    0  0.19349528703E+00 -0.83105586729E+00  0.13874321214E+00  0.87084382042E+00  0.10500000000E+00 0.  1.
         13    1    6    6    0    0  0.90164065733E-01 -0.81630082696E+00  0.22623696054E+00  0.85830342022E+00  0.10500000000E+00 0. -1.
</event>
<event>
11    0  0.3396091E-009  0.9118800E+02  0.7816531E-02  0.1126479E+00
         25   -1    0    0    0    0  0.00000000000E+00  0.00000000000E+00  0.99999998245E-14  0.12500000000E+03  0.12500000000E+03 0.  0.
    3000001    1    3    3    0    0 -0.59482614281E+02 -0.14765598581E+02  0.12050586283E+01  0.61307882605E+02  0.10000000000E+01 0.  1.
    1000022    2    1    0    0    0 -0.59780605097E+02 -0.15247769912E+02  0.18654954425E+00  0.62500000179E+02  0.99999994273E+01 0.  0.
    3000022    2    3    3    0    0 -0.29799081599E+00 -0.48217133083E+00 -0.10185090841E+01  0.11921175740E+01  0.24999167447E+00 0.  0.
    1000022    2    1    0    0    0  0.59780605097E+02  0.15247769912E+02 -0.18654954425E+00  0.62499999821E+02  0.99999971912E+01 0.  0.
    3000022    2    5    5    0    0 -0.11804175284E+00 -0.47784610161E+00 -0.11221262645E+00  0.56335138533E+00  0.25000471510E+00 0.  0.
        -13    1    4    4    0    0 -0.54262769651E-01 -0.10680797997E+00 -0.28340614983E+00  0.32510988683E+00  0.10500000000E+00 0. -1.
         13    1    4    4    0    0 -0.24372804634E+00 -0.37536335087E+00 -0.73510293423E+00  0.86700768720E+00  0.10500000000E+00 0.  1.
    3000001    1    5    5    0    0  0.59898646850E+02  0.15725616013E+02 -0.74336917794E-01  0.61936648436E+02  0.10000000000E+01 0.  1.
        -13    1    6    6    0    0 -0.56834010413E-01 -0.13094955087E+00  0.57900033798E-02  0.17730316904E+00  0.10500000000E+00 0. -1.
         13    1    6    6    0    0 -0.61207742431E-01 -0.34689655075E+00 -0.11800262983E+00  0.38604821629E+00  0.10500000000E+00 0.  1.
</event>
<event>
11    0  0.3396091E-009  0.9118800E+02  0.7816531E-02  0.1126479E+00
         25   -1    0    0    0    0  0.00000000000E+00  0.00000000000E+00  0.99999998245E-14  0.12500000000E+03  0.12500000000E+03 0.  0.
    3000001    1    3    3    0    0 -0.31819614567E+00  0.26108095535E+00 -0.23511973598E+01  0.25879607951E+01  0.10000000000E+01 0. -1.
    1000022    2    1    0    0    0  0.57282520946E+01 -0.33057956279E+02 -0.51774594613E+02  0.62500000283E+02  0.10000002128E+02 0.  0.
    3000022    2    3    3    0    0  0.60464482403E+01 -0.33319037234E+02 -0.49423397253E+02  0.59912039487E+02  0.25000187687E+00 0.  0.
    1000022    2    1    0    0    0 -0.57282520946E+01  0.33057956279E+02  0.51774594613E+02  0.62499999717E+02  0.99999985969E+01 0.  0.
    3000022    2    5    5    0    0 -0.23301511575E+01  0.27539092776E+02  0.35768847275E+02  0.45202922155E+02  0.25000128824E+00 0.  0.
        -13    1    4    4    0    0  0.36204085406E+01 -0.19594045732E+02 -0.29066934433E+02  0.35241051183E+02  0.10500000000E+00 0. -1.
         13    1    4    4    0    0  0.24260396997E+01 -0.13724991502E+02 -0.20356462820E+02  0.24670988304E+02  0.10500000000E+00 0.  1.
    3000001    1    5    5    0    0 -0.33981009370E+01  0.55188635026E+01  0.16005747338E+02  0.17297077562E+02  0.10000000000E+01 0.  1.
        -13    1    6    6    0    0 -0.16256155706E+01  0.18695835224E+02  0.24243854588E+02  0.30658643007E+02  0.10500000000E+00 0.  1.
         13    1    6    6    0    0 -0.70453558696E+00  0.88432575520E+01  0.11524992687E+02  0.14544279149E+02  0.10500000000E+00 0. -1.
</event>
<event>
11    0  0.3396091E-009  0.9118800E+02  0.7816531E-02  0.1126479E+00
         25   -1    0    0    0    0  0.00000000000E+00  0.00000000000E+00  0.99999998245E-14  0.12500000000E+03  0.12500000000E+03 0.  0.
    3000001    1    3    3    0    0  0.25789889583E+02  0.13013951632E+02 -0.43692583920E+01  0.29233059379E+02  0.10000000000E+01 0. -1.
    1000022    2    1    0    0    0  0.52751800898E+02  0.25481551042E+02 -0.19343943256E+02  0.62500000747E+02  0.10000000558E+02 0.  0.
    3000022    2    3    3    0    0  0.26961911315E+02  0.12467599410E+02 -0.14974684864E+02  0.33266941368E+02  0.25000870986E+00 0.  0.
    1000022    2    1    0    0    0 -0.52751800898E+02 -0.25481551042E+02  0.19343943256E+02  0.62499999253E+02  0.99999912240E+01 0.  0.
    3000022    2    5    5    0    0 -0.52476353271E+02 -0.24699932617E+02  0.19505208228E+02  0.61191257435E+02  0.25002894038E+00 0.  0.
        -13    1    4    4    0    0  0.13549202669E+02  0.63082120063E+01 -0.75965370623E+01  0.16765823333E+02  0.10500000000E+00 0.  1.
         13    1    4    4    0    0  0.13412708646E+02  0.61593874040E+01 -0.73781478020E+01  0.16501118035E+02  0.10500000000E+00 0. -1.
    3000001    1    5    5    0    0 -0.27544762645E+00 -0.78161842489E+00 -0.16126497116E+00  0.13087418187E+01  0.10000000000E+01 0.  1.
        -13    1    6    6    0    0 -0.13496173977E+02 -0.63269881430E+01  0.49923193813E+01  0.15719789082E+02  0.10500000000E+00 0.  1.
         13    1    6    6    0    0 -0.38980179294E+02 -0.18372944474E+02  0.14512888846E+02  0.45471468352E+02  0.10500000000E+00 0. -1.
</event>
<event>
11    0  0.3396091E-009  0.9118800E+02  0.7816531E-02  0.1126479E+00
         25   -1    0    0    0    0  0.00000000000E+00  0.00000000000E+00  0.99999998245E-14  0.12500000000E+03  0.12500000000E+03 0.  0.
    3000001    1    3    3    0    0 -0.30720558440E+02  0.44219808516E+02  0.10508116998E+02  0.54868613058E+02  0.10000000000E+01 0. -1.
    1000022    2    1    0    0    0 -0.36413751213E+02  0.49012326598E+02  0.88363269838E+01  0.62499999730E+02  0.99999927884E+01 0.  0.
    3000022    2    3    3    0    0 -0.56931927725E+01  0.47925180824E+01 -0.16717900140E+01  0.76313866724E+01  0.25001435646E+00 0.  0.
    1000022    2    1    0    0    0  0.36413751213E+02 -0.49012326598E+02 -0.88363269838E+01  0.62500000270E+02  0.99999961607E+01 0.  0.
    3000022    2    5    5    0    0  0.11920774925E+02 -0.13519875619E+02 -0.69626783096E+01  0.19324422413E+02  0.25000155493E+00 0.  0.
        -13    1    4    4    0    0 -0.25406107638E+01  0.20550427404E+01 -0.75106771068E+00  0.33545538338E+01  0.10500000000E+00 0. -1.
         13    1    4    4    0    0 -0.31525820087E+01  0.27374753420E+01 -0.92072230328E+00  0.42768328386E+01  0.10500000000E+00 0.  1.
    3000001    1    5    5    0    0  0.24492976288E+02 -0.35492450979E+02 -0.18736486742E+01  0.43175577857E+02  0.10000000000E+01 0. -1.
        -13    1    6    6    0    0  0.69555848758E+01 -0.79793596692E+01 -0.41133280070E+01  0.11356972924E+02  0.10500000000E+00 0.  1.
         13    1    6    6    0    0  0.49651900491E+01 -0.55405159499E+01 -0.28493503026E+01  0.79674494892E+01  0.10500000000E+00 0. -1.
</event>
<event>
11    0  0.3396091E-009  0.9118800E+02  0.7816531E-02  0.1126479E+00
         25   -1    0    0    0    0  0.00000000000E+00  0.00000000000E+00  0.99999998245E-14  0.12500000000E+03  0.12500000000E+03 0.  0.
    3000001    1    3    3    0    0  0.17091170231E+02  0.29167345577E+01  0.70456449392E+01  0.18741839637E+02  0.10000000000E+01 0. -1.
    1000022    2    1    0    0    0  0.49017224350E+02  0.95886162984E+01  0.36216297952E+02  0.62499998237E+02  0.99999848341E+01 0.  0.
    3000022    2    3    3    0    0  0.31926054119E+02  0.66718817407E+01  0.29170653013E+02  0.43758158600E+02  0.25001855667E+00 0.  0.
    1000022    2    1    0    0    0 -0.49017224350E+02 -0.95886162984E+01 -0.36216297952E+02  0.62500001763E+02  0.10000006874E+02 0.  0.
    3000022    2    5    5    0    0 -0.17834202411E+02 -0.67399116415E+01 -0.18207320796E+02  0.26363880863E+02  0.24999801813E+00 0.  0.
        -13    1    4    4    0    0  0.90375054709E+01  0.19085517837E+01  0.82134384684E+01  0.12360852378E+02  0.10500000000E+00 0. -1.
         13    1    4    4    0    0  0.22888548648E+02  0.47633299571E+01  0.20957214545E+02  0.31397306222E+02  0.10500000000E+00 0.  1.
    3000001    1    5    5    0    0 -0.31183021940E+02 -0.28487046568E+01 -0.18008977156E+02  0.36136120900E+02  0.10000000000E+01 0. -1.
        -13    1    6    6    0    0 -0.63201337171E+01 -0.23292863019E+01 -0.64516693770E+01  0.93276324771E+01  0.10500000000E+00 0. -1.
         13    1    6    6    0    0 -0.11514068694E+02 -0.44106253396E+01 -0.11755651419E+02  0.17036248386E+02  0.10500000000E+00 0.  1.
</event>
<event>
11    0  0.3396091E-009  0.9118800E+02  0.7816531E-02  0.1126479E+00
         25   -1    0    0    0    0  0.00000000000E+00  0.00000000000E+00  0.99999998245E-14  0.12500000000E+03  0.12500000000E+03 0.  0.
    3000001    1    3    3    0    0  0.21782879242E+02 -0.57011413007E+01 -0.30973538070E+02  0.38306094826E+02  0.10000000000E+01 0. -1.
    1000022    2    1    0    0    0  0.41101513490E+02 -0.69409317971E+01 -0.45483393312E+02  0.62500000984E+02  0.10000005526E+02 0.  0.
    3000022    2    3    3    0    0  0.19318634247E+02 -0.12397904964E+01 -0.14509855241E+02  0.24193906158E+02  0.24997282913E+00 0.  0.
    1000022    2    1    0    0    0 -0.41101513490E+02  0.69409317971E+01  0.45483393312E+02  0.62499999016E+02  0.99999932219E+01 0.  0.
    3000022    2    5    5    0    0 -0.34977316003E+02  0.91664768885E+01  0.36733229518E+02  0.51544442790E+02  0.24999662401E+00 0.  0.
        -13    1    4    4    0    0  0.12192790019E+02 -0.83620444980E+00 -0.91917716481E+01  0.15292581776E+02  0.10500000000E+00 0. -1.
         13    1    4    4    0    0  0.71258442283E+01 -0.40358604662E+00 -0.53180835933E+01  0.89013243828E+01  0.10500000000E+00 0.  1.
    3000001    1    5    5    0    0 -0.61241974864E+01 -0.22255450913E+01  0.87501637937E+01  0.10955556226E+02  0.10000000000E+01 0.  1.
        -13    1    6    6    0    0 -0.26152084170E+02  0.68282593529E+01  0.27476434718E+02  0.38542471665E+02  0.10500000000E+00 0.  1.
         13    1    6    6    0    0 -0.88252318336E+01  0.23382175355E+01  0.92567947996E+01  0.13001971125E+02  0.10500000000E+00 0. -1.
</event>
<event>
11    0  0.3396091E-009  0.9118800E+02  0.7816531E-02  0.1126479E+00
         25   -1    0    0    0    0  0.00000000000E+00  0.00000000000E+00  0.99999998245E-14  0.12500000000E+03  0.12500000000E+03 0.  0.
    3000001    1    3    3    0    0 -0.19259595985E+01  0.29557779632E+01 -0.48541003025E+01  0.60834392813E+01  0.10000000000E+01 0. -1.
    1000022    2    1    0    0    0  0.12711528314E+01  0.47224542521E+02 -0.39679676948E+02  0.62500000103E+02  0.10000000219E+02 0.  0.
    3000022    2    3    3    0    0  0.31971124299E+01  0.44268764558E+02 -0.34825576645E+02  0.56416560822E+02  0.25000584050E+00 0.  0.
    1000022    2    1    0    0    0 -0.12711528314E+01 -0.47224542521E+02  0.39679676948E+02  0.62499999897E+02  0.99999989259E+01 0.  0.
    3000022    2    5    5    0    0 -0.75156750009E+00  0.21991034875E+00  0.83523616885E+00  0.11718933182E+01  0.25000044556E+00 0.  0.
        -13    1    4    4    0    0  0.19080108303E+01  0.25531614441E+02 -0.20073649448E+02  0.32534078571E+02  0.10500000000E+00 0. -1.
         13    1    4    4    0    0  0.12891015996E+01  0.18737150117E+02 -0.14751927197E+02  0.23882482251E+02  0.10500000000E+00 0.  1.
    3000001    1    5    5    0    0 -0.51958533129E+00 -0.47444452870E+02  0.38844440779E+02  0.61328106578E+02  0.10000000000E+01 0.  1.
        -13    1    6    6    0    0 -0.58781632521E+00  0.15472988613E+00  0.63054682330E+00  0.88209050909E+00  0.10500000000E+00 0. -1.
         13    1    6    6    0    0 -0.16375117488E+00  0.65180462621E-01  0.20468934555E+00  0.28980280910E+00  0.10500000000E+00 0.  1.
</event>
<event>
11    0  0.3396091E-009  0.9118800E+02  0.7816531E-02  0.1126479E+00
         25   -1    0    0    0    0  0.00000000000E+00  0.00000000000E+00  0.99999998245E-14  0.12500000000E+03  0.12500000000E+03 0.  0.
    3000001    1    3    3    0    0  0.54113924891E+01  0.36713574838E+01 -0.88966803819E+00  0.66748440928E+01  0.10000000000E+01 0.  1.
    1000022    2    1    0    0    0  0.30585329612E+02  0.53137197530E+02 -0.68720832697E+01  0.62500001812E+02  0.10000027458E+02 0.  0.
    3000022    2    3    3    0    0  0.25173937122E+02  0.49465840047E+02 -0.59824152315E+01  0.55825157719E+02  0.25000113903E+00 0.  0.
    1000022    2    1    0    0    0 -0.30585329612E+02 -0.53137197530E+02  0.68720832697E+01  0.62499998188E+02  0.10000004812E+02 0.  0.
    3000022    2    5    5    0    0 -0.14302992876E+02 -0.23340823791E+02  0.79708339802E+01  0.28512564765E+02  0.24998934580E+00 0.  0.
        -13    1    4    4    0    0  0.13152213987E+02  0.25919875982E+02 -0.30744837031E+01  0.29228140186E+02  0.10500000000E+00 0. -1.
         13    1    4    4    0    0  0.12021723135E+02  0.23545964065E+02 -0.29079315284E+01  0.26597017533E+02  0.10500000000E+00 0.  1.
    3000001    1    5    5    0    0 -0.16282336735E+02 -0.29796373740E+02 -0.10987507105E+01  0.33987433424E+02  0.10000000000E+01 0.  1.
        -13    1    6    6    0    0 -0.10914551078E+02 -0.17797291319E+02  0.60947959778E+01  0.21749219907E+02  0.10500000000E+00 0.  1.
         13    1    6    6    0    0 -0.33884417985E+01 -0.55435324713E+01  0.18760380024E+01  0.67633448580E+01  0.10500000000E+00 0. -1.
</event>
<event>
11    0  0.3396091E-009  0.9118800E+02  0.7816531E-02  0.1126479E+00
         25   -1    0    0    0    0  0.00000000000E+00  0.00000000000E+00  0.99999998245E-14  0.12500000000E+03  0.12500000000E+03 0.  0.
    3000001    1    3    3    0    0 -0.49854337076E+00 -0.44956520337E-01 -0.19669069144E+01  0.22625846705E+01  0.10000000000E+01 0. -1.
    1000022    2    1    0    0    0 -0.13626677684E+02  0.41333837269E+02 -0.43727309143E+02  0.62499999796E+02  0.99999980761E+01 0.  0.
    3000022    2    3    3    0    0 -0.13128134313E+02  0.41378793789E+02 -0.41760402229E+02  0.60237415126E+02  0.25000138766E+00 0.  0.
    1000022    2    1    0    0    0  0.13626677684E+02 -0.41333837269E+02  0.43727309143E+02  0.62500000204E+02  0.10000000624E+02 0.  0.
    3000022    2    5    5    0    0  0.25718904497E+01 -0.19691272405E+02  0.15187920465E+02  0.25001925042E+02  0.24999669619E+00 0.  0.
        -13    1    4    4    0    0 -0.84595532344E+01  0.26478201401E+02 -0.26718788881E+02  0.38555983902E+02  0.10500000000E+00 0. -1.
         13    1    4    4    0    0 -0.46685810790E+01  0.14900592388E+02 -0.15041613348E+02  0.21681431224E+02  0.10500000000E+00 0.  1.
    3000001    1    5    5    0    0  0.11054787234E+02 -0.21642564864E+02  0.28539388679E+02  0.37498075162E+02  0.10000000000E+01 0.  1.
        -13    1    6    6    0    0  0.18600018806E+01 -0.14190206960E+02  0.10994037182E+02  0.18047200866E+02  0.10500000000E+00 0. -1.
         13    1    6    6    0    0  0.71188856903E+00 -0.55010654455E+01  0.41938832824E+01  0.69547241755E+01  0.10500000000E+00 0.  1.
</event>
<event>
11    0  0.3396091E-009  0.9118800E+02  0.7816531E-02  0.1126479E+00
         25   -1    0    0    0    0  0.00000000000E+00  0.00000000000E+00  0.99999998245E-14  0.12500000000E+03  0.12500000000E+03 0.  0.
    3000001    1    3    3    0    0  0.45218707510E+01 -0.15211663652E+02  0.15231912838E+01  0.15973795349E+02  0.10000000000E+01 0.  1.
    1000022    2    1    0    0    0  0.17672292431E+02 -0.54855489249E+02  0.22018541584E+02  0.62500007106E+02  0.10000004712E+02 0.  0.
    3000022    2    3    3    0    0  0.13150421680E+02 -0.39643825597E+02  0.20495350300E+02  0.46526211758E+02  0.24999646756E+00 0.  0.
    1000022    2    1    0    0    0 -0.17672292431E+02  0.54855489249E+02 -0.22018541584E+02  0.62499992894E+02  0.99999158844E+01 0.  0.
    3000022    2    5    5    0    0 -0.78872731788E+01  0.29492052231E+02 -0.16638840203E+02  0.34769292829E+02  0.24999505580E+00 0.  0.
        -13    1    4    4    0    0  0.63956084911E+01 -0.19320232314E+02  0.99121227796E+01  0.22637057840E+02  0.10500000000E+00 0. -1.
         13    1    4    4    0    0  0.67548131885E+01 -0.20323593284E+02  0.10583227521E+02  0.23889153918E+02  0.10500000000E+00 0.  1.
    3000001    1    5    5    0    0 -0.97850192517E+01  0.25363437018E+02 -0.53797013812E+01  0.27730700065E+02  0.10000000000E+01 0. -1.
        -13    1    6    6    0    0 -0.57546551144E+01  0.21377561213E+02 -0.12053439832E+02  0.25207392084E+02  0.10500000000E+00 0. -1.
         13    1    6    6    0    0 -0.21326180644E+01  0.81144910185E+01 -0.45854003710E+01  0.95619007452E+01  0.10500000000E+00 0.  1.
</event>
<event>
11    0  0.3396091E-009  0.9118800E+02  0.7816531E-02  0.1126479E+00
         25   -1    0    0    0    0  0.00000000000E+00  0.00000000000E+00  0.99999998245E-14  0.12500000000E+03  0.12500000000E+03 0.  0.
    3000001    1    3    3    0    0  0.15021850022E+02  0.84444428790E+01  0.71211078670E+01  0.18672835106E+02  0.10000000000E+01 0. -1.
    1000022    2    1    0    0    0  0.40469309080E+02  0.30734314048E+02  0.34984097557E+02  0.62499998175E+02  0.99999826300E+01 0.  0.
    3000022    2    3    3    0    0  0.25447459058E+02  0.22289871169E+02  0.27862989690E+02  0.43827163069E+02  0.24999805321E+00 0.  0.
    1000022    2    1    0    0    0 -0.40469309080E+02 -0.30734314048E+02 -0.34984097557E+02  0.62500001825E+02  0.10000005439E+02 0.  0.
    3000022    2    5    5    0    0 -0.82271901486E+00 -0.32971703123E+01 -0.36285861591E+01  0.49776839368E+01  0.25000243011E+00 0.  0.
        -13    1    4    4    0    0  0.18059988047E+02  0.15812587595E+02  0.19715014295E+02  0.31062741482E+02  0.10500000000E+00 0.  1.
         13    1    4    4    0    0  0.73874710104E+01  0.64772835741E+01  0.81479753948E+01  0.12764421587E+02  0.10500000000E+00 0. -1.
    3000001    1    5    5    0    0 -0.39646590065E+02 -0.27437143736E+02 -0.31355511398E+02  0.57522317888E+02  0.10000000000E+01 0.  1.
        -13    1    6    6    0    0 -0.19843714392E+00 -0.96773243248E+00 -0.10415184364E+01  0.14393293627E+01  0.10500000000E+00 0.  1.
         13    1    6    6    0    0 -0.62428187094E+00 -0.23294378798E+01 -0.25870677226E+01  0.35383545740E+01  0.10500000000E+00 0. -1.
</event>
<event>
11    0  0.3396091E-009  0.9118800E+02  0.7816531E-02  0.1126479E+00
         25   -1    0    0    0    0  0.00000000000E+00  0.00000000000E+00  0.99999998245E-14  0.12500000000E+03  0.12500000000E+03 0.  0.
    3000001    1    3    3    0    0  0.98328284109E+01  0.11647905919E+02  0.16216780493E+02  0.22278738663E+02  0.10000000000E+01 0. -1.
    1000022    2    1    0    0    0  0.30750280037E+02  0.40312126037E+02  0.35151142120E+02  0.62499999821E+02  0.99999978691E+01 0.  0.
    3000022    2    3    3    0    0  0.20917451626E+02  0.28664220118E+02  0.18934361627E+02  0.40221261159E+02  0.25000291283E+00 0.  0.
    1000022    2    1    0    0    0 -0.30750280037E+02 -0.40312126037E+02 -0.35151142120E+02  0.62500000179E+02  0.10000000103E+02 0.  0.
    3000022    2    5    5    0    0 -0.48542414722E+01 -0.12127336481E+02 -0.12105034112E+02  0.17810960472E+02  0.25002333379E+00 0.  0.
        -13    1    4    4    0    0  0.11439343565E+02  0.15737001000E+02  0.10317432081E+02  0.22022084630E+02  0.10500000000E+00 0.  1.
         13    1    4    4    0    0  0.94781080607E+01  0.12927219118E+02  0.86169295453E+01  0.18199176529E+02  0.10500000000E+00 0. -1.
    3000001    1    5    5    0    0 -0.25896038565E+02 -0.28184789556E+02 -0.23046108007E+02  0.44689039707E+02  0.10000000000E+01 0. -1.
        -13    1    6    6    0    0 -0.23522252776E+01 -0.58521766544E+01 -0.57533774316E+01  0.85377580325E+01  0.10500000000E+00 0. -1.
         13    1    6    6    0    0 -0.25020161946E+01 -0.62751598267E+01 -0.63516566808E+01  0.92732024392E+01  0.10500000000E+00 0.  1.
</event>
<event>
11    0  0.3396091E-009  0.9118800E+02  0.7816531E-02  0.1126479E+00
         25   -1    0    0    0    0  0.00000000000E+00  0.00000000000E+00  0.99999998245E-14  0.12500000000E+03  0.12500000000E+03 0.  0.
    3000001    1    3    3    0    0 -0.37821661853E+02  0.29368872060E+02  0.18200778191E+02  0.51237457765E+02  0.10000000000E+01 0. -1.
    1000022    2    1    0    0    0 -0.48151936125E+02  0.31635063772E+02  0.22064989156E+02  0.62500000825E+02  0.10000007210E+02 0.  0.
    3000022    2    3    3    0    0 -0.10330274272E+02  0.22661917117E+01  0.38642109647E+01  0.11262543060E+02  0.25011676211E+00 0.  0.
    1000022    2    1    0    0    0  0.48151936125E+02 -0.31635063772E+02 -0.22064989156E+02  0.62499999175E+02  0.99999968972E+01 0.  0.
    3000022    2    5    5    0    0  0.99127869923E+01 -0.21845473101E+01 -0.29073452282E+01  0.10561759244E+02  0.25001828450E+00 0.  0.
        -13    1    4    4    0    0 -0.46588118272E+01  0.96771146826E+00  0.16954029965E+01  0.50523667174E+01  0.10500000000E+00 0.  1.
         13    1    4    4    0    0 -0.56714624448E+01  0.12984802434E+01  0.21688079681E+01  0.62101763428E+01  0.10500000000E+00 0. -1.
    3000001    1    5    5    0    0  0.38239149133E+02 -0.29450516462E+02 -0.19157643928E+02  0.51938239931E+02  0.10000000000E+01 0. -1.
        -13    1    6    6    0    0  0.32700357585E+01 -0.76216643303E+00 -0.92637932898E+00  0.34847145069E+01  0.10500000000E+00 0. -1.
         13    1    6    6    0    0  0.66427512338E+01 -0.14223808771E+01 -0.19809658992E+01  0.70770447368E+01  0.10500000000E+00 0.  1.
</event>
<event>
11    0  0.3396091E-009  0.9118800E+02  0.7816531E-02  0.1126479E+00
         25   -1    0    0    0    0  0.00000000000E+00  0.00000000000E+00  0.99999998245E-14  0.12500000000E+03  0.12500000000E+03 0.  0.
    3000001    1    3    3    0    0 -0.57448851927E+01 -0.32894993479E+01  0.26942196088E+01  0.72168782127E+01  0.10000000000E+01 0. -1.
    1000022    2    1    0    0    0 -0.59138178518E+02 -0.46033613888E+01  0.16962751340E+02  0.62499999550E+02  0.99999958158E+01 0.  0.
    3000022    2    3    3    0    0 -0.53393293325E+02 -0.13138620409E+01  0.14268531731E+02  0.55283121338E+02  0.25000304144E+00 0.  0.
    1000022    2    1    0    0    0  0.59138178518E+02  0.46033613888E+01 -0.16962751340E+02  0.62500000450E+02  0.10000001436E+02 0.  0.
    3000022    2    5    5    0    0  0.10441605036E+02 -0.25713282887E+01 -0.48504723211E+01  0.11799509881E+02  0.25001361411E+00 0.  0.
        -13    1    4    4    0    0 -0.34943884058E+02 -0.82738733265E+00  0.92910306637E+01  0.36167580493E+02  0.10500000000E+00 0. -1.
         13    1    4    4    0    0 -0.18449409267E+02 -0.48647470822E+00  0.49775010671E+01  0.19115540845E+02  0.10500000000E+00 0.  1.
    3000001    1    5    5    0    0  0.48696573482E+02  0.71746896775E+01 -0.12112279019E+02  0.50700490568E+02  0.10000000000E+01 0. -1.
        -13    1    6    6    0    0  0.38431828945E+01 -0.88622459355E+00 -0.17887311104E+01  0.43319779289E+01  0.10500000000E+00 0.  1.
         13    1    6    6    0    0  0.65984221413E+01 -0.16851036951E+01 -0.30617412106E+01  0.74675319524E+01  0.10500000000E+00 0. -1.
</event>
<event>
11    0  0.3396091E-009  0.9118800E+02  0.7816531E-02  0.1126479E+00
         25   -1    0    0    0    0  0.00000000000E+00  0.00000000000E+00  0.99999998245E-14  0.12500000000E+03  0.12500000000E+03 0.  0.
    3000001    1    3    3    0    0  0.25032342611E+02 -0.22650302361E+02 -0.11072632973E+02  0.35542334962E+02  0.10000000000E+01 0.  1.
    1000022    2    1    0    0    0  0.37572530231E+02 -0.42267186578E+02 -0.24658462116E+02  0.62500000022E+02  0.10000007985E+02 0.  0.
    3000022    2    3    3    0    0  0.12540187620E+02 -0.19616884217E+02 -0.13585829143E+02  0.26957665060E+02  0.25000010389E+00 0.  0.
    1000022    2    1    0    0    0 -0.37572530231E+02  0.42267186578E+02  0.24658462116E+02  0.62499999978E+02  0.10000007704E+02 0.  0.
    3000022    2    5    5    0    0 -0.73832911337E+01  0.52377295506E+01  0.73912214640E+01  0.11689288068E+02  0.25000399358E+00 0.  0.
        -13    1    4    4    0    0  0.83802039278E+01 -0.13196527069E+02 -0.91489225251E+01  0.18113253516E+02  0.10500000000E+00 0. -1.
         13    1    4    4    0    0  0.41599836922E+01 -0.64203571486E+01 -0.44369066178E+01  0.88444115446E+01  0.10500000000E+00 0.  1.
    3000001    1    5    5    0    0 -0.30189239097E+02  0.37029457028E+02  0.17267240652E+02  0.50810711909E+02  0.10000000000E+01 0.  1.
        -13    1    6    6    0    0 -0.25593345122E+01  0.18583930491E+01  0.25259249420E+01  0.40490912169E+01  0.10500000000E+00 0. -1.
         13    1    6    6    0    0 -0.48239566215E+01  0.33793365015E+01  0.48652965220E+01  0.76401968511E+01  0.10500000000E+00 0.  1.
</event>
<event>
11    0  0.3396091E-009  0.9118800E+02  0.7816531E-02  0.1126479E+00
         25   -1    0    0    0    0  0.00000000000E+00  0.00000000000E+00  0.99999998245E-14  0.12500000000E+03  0.12500000000E+03 0.  0.
    3000001    1    3    3    0    0 -0.12325250219E+01 -0.98449724992E-01  0.10582116885E+01  0.19101367112E+01  0.10000000000E+01 0. -1.
    1000022    2    1    0    0    0 -0.38766684850E+01 -0.17758348767E+02  0.58956436890E+02  0.62499991585E+02  0.99999993979E+01 0.  0.
    3000022    2    3    3    0    0 -0.26441434631E+01 -0.17659899042E+02  0.57898225201E+02  0.60589854874E+02  0.25000675604E+00 0.  0.
    1000022    2    1    0    0    0  0.38766684850E+01  0.17758348767E+02 -0.58956436890E+02  0.62500008415E+02  0.10000104583E+02 0.  0.
    3000022    2    5    5    0    0 -0.17046464792E+01  0.65712150609E+01 -0.10982753067E+02  0.12913948108E+02  0.25000760181E+00 0.  0.
        -13    1    4    4    0    0 -0.17891270860E+01 -0.11966425289E+02  0.39402636286E+02  0.41218625416E+02  0.10500000000E+00 0. -1.
         13    1    4    4    0    0 -0.85501637708E+00 -0.56934737526E+01  0.18495588916E+02  0.19371229458E+02  0.10500000000E+00 0.  1.
    3000001    1    5    5    0    0  0.55813149641E+01  0.11187133706E+02 -0.47973683823E+02  0.49586060307E+02  0.10000000000E+01 0.  1.
        -13    1    6    6    0    0 -0.54180625358E+00  0.21833476354E+01 -0.35512837805E+01  0.42051399980E+01  0.10500000000E+00 0.  1.
         13    1    6    6    0    0 -0.11628402256E+01  0.43878674255E+01 -0.74314692865E+01  0.87088081096E+01  0.10500000000E+00 0. -1.
</event>
<event>
11    0  0.3396091E-009  0.9118800E+02  0.7816531E-02  0.1126479E+00
         25   -1    0    0    0    0  0.00000000000E+00  0.00000000000E+00  0.99999998245E-14  0.12500000000E+03  0.12500000000E+03 0.  0.
    3000001    1    3    3    0    0  0.23972136159E+02 -0.14633059346E+02 -0.88775144010E+01  0.29472020626E+02  0.10000000000E+01 0. -1.
    1000022    2    1    0    0    0  0.44322901044E+02 -0.33698858352E+02 -0.26572885695E+02  0.62499993420E+02  0.99999156060E+01 0.  0.
    3000022    2    3    3    0    0  0.20350764885E+02 -0.19065799005E+02 -0.17695371294E+02  0.33027972793E+02  0.24999696390E+00 0.  0.
    1000022    2    1    0    0    0 -0.44322901044E+02  0.33698858352E+02  0.26572885695E+02  0.62500006580E+02  0.99999978583E+01 0.  0.
    3000022    2    5    5    0    0 -0.10809849902E+02  0.13955525564E+02  0.78625336286E+01  0.19325928004E+02  0.25001897312E+00 0.  0.
        -13    1    4    4    0    0  0.83918432881E+01 -0.78252356623E+01 -0.73500167089E+01  0.13626852812E+02  0.10500000000E+00 0. -1.
         13    1    4    4    0    0  0.11958921597E+02 -0.11240563343E+02 -0.10345354585E+02  0.19401119981E+02  0.10500000000E+00 0.  1.
    3000001    1    5    5    0    0 -0.33513051142E+02  0.19743332787E+02  0.18710352066E+02  0.43174078576E+02  0.10000000000E+01 0. -1.
        -13    1    6    6    0    0 -0.65169790315E+01  0.83260179262E+01  0.47459059966E+01  0.11590005994E+02  0.10500000000E+00 0.  1.
         13    1    6    6    0    0 -0.42928708704E+01  0.56295076382E+01  0.31166276320E+01  0.77359220107E+01  0.10500000000E+00 0. -1.
</event>
<event>
11    0  0.3396091E-009  0.9118800E+02  0.7816531E-02  0.1126479E+00
         25   -1    0    0    0    0  0.00000000000E+00  0.00000000000E+00  0.99999998245E-14  0.12500000000E+03  0.12500000000E+03 0.  0.
    3000001    1    3    3    0    0  0.24178655619E+02  0.68812652722E+01  0.15058341655E+02  0.29320860368E+02  0.10000000000E+01 0. -1.
    1000022    2    1    0    0    0  0.49722344037E+02  0.23976140760E+02  0.27551453249E+02  0.62499997257E+02  0.10000012932E+02 0.  0.
    3000022    2    3    3    0    0  0.25543688418E+02  0.17094875488E+02  0.12493111594E+02  0.33179136889E+02  0.25000291393E+00 0.  0.
    1000022    2    1    0    0    0 -0.49722344037E+02 -0.23976140760E+02 -0.27551453249E+02  0.62500002743E+02  0.10000047223E+02 0.  0.
    3000022    2    5    5    0    0 -0.40324068007E+02 -0.21973090370E+02 -0.19373201845E+02  0.49842056652E+02  0.25000114368E+00 0.  0.
        -13    1    4    4    0    0  0.17773347591E+02  0.11946872962E+02  0.87229881991E+01  0.23124039576E+02  0.10500000000E+00 0.  1.
         13    1    4    4    0    0  0.77703408272E+01  0.51480025257E+01  0.37701233945E+01  0.10055097314E+02  0.10500000000E+00 0. -1.
    3000001    1    5    5    0    0 -0.93982760308E+01 -0.20030503895E+01 -0.81782514040E+01  0.12657946091E+02  0.10000000000E+01 0.  1.
        -13    1    6    6    0    0 -0.18065234515E+02 -0.98402025350E+01 -0.86063318013E+01  0.22299377930E+02  0.10500000000E+00 0.  1.
         13    1    6    6    0    0 -0.22258833492E+02 -0.12132887835E+02 -0.10766870044E+02  0.27542678722E+02  0.10500000000E+00 0. -1.
</event>
<event>
11    0  0.3396091E-009  0.9118800E+02  0.7816531E-02  0.1126479E+00
         25   -1    0    0    0    0  0.00000000000E+00  0.00000000000E+00  0.99999998245E-14  0.12500000000E+03  0.12500000000E+03 0.  0.
    3000001    1    3    3    0    0 -0.54247436663E+01  0.55602209678E+02 -0.10573972894E+02  0.56866883753E+02  0.10000000000E+01 0. -1.
    1000022    2    1    0    0    0 -0.57621272181E+01  0.59712724137E+02 -0.14402726214E+02  0.62500000746E+02  0.10000001846E+02 0.  0.
    3000022    2    3    3    0    0 -0.33738355177E+00  0.41105144586E+01 -0.38287533198E+01  0.56331169935E+01  0.24999660650E+00 0.  0.
    1000022    2    1    0    0    0  0.57621272181E+01 -0.59712724137E+02  0.14402726214E+02  0.62499999254E+02  0.99999925205E+01 0.  0.
    3000022    2    5    5    0    0  0.33409084099E+01 -0.30097807114E+02  0.12329073081E+02  0.32697220053E+02  0.24998813039E+00 0.  0.
        -13    1    4    4    0    0 -0.13494889029E+00  0.14805683634E+01 -0.14592733286E+01  0.20858565457E+01  0.10500000000E+00 0.  1.
         13    1    4    4    0    0 -0.20243466148E+00  0.26299460952E+01 -0.23694799912E+01  0.35472604478E+01  0.10500000000E+00 0. -1.
    3000001    1    5    5    0    0  0.24212188082E+01 -0.29614917023E+02  0.20736531327E+01  0.29802779201E+02  0.10000000000E+01 0.  1.
        -13    1    6    6    0    0  0.10982547189E+01 -0.10242895278E+02  0.41521202241E+01  0.11107393685E+02  0.10500000000E+00 0. -1.
         13    1    6    6    0    0  0.22426536910E+01 -0.19854911836E+02  0.81769528572E+01  0.21589826368E+02  0.10500000000E+00 0.  1.
</event>
<event>
11    0  0.3396091E-009  0.9118800E+02  0.7816531E-02  0.1126479E+00
         25   -1    0    0    0    0  0.00000000000E+00  0.00000000000E+00  0.99999998245E-14  0.12500000000E+03  0.12500000000E+03 0.  0.
    3000001    1    3    3    0    0 -0.32739030397E+02 -0.11562849642E+02 -0.46125833902E+02  0.57741979152E+02  0.10000000000E+01 0.  1.
    1000022    2    1    0    0    0 -0.36569144800E+02 -0.10260079965E+02 -0.48617676658E+02  0.62500000127E+02  0.99999969969E+01 0.  0.
    3000022    2    3    3    0    0 -0.38301144031E+01  0.13027696772E+01 -0.24918427560E+01  0.47580209753E+01  0.24999621694E+00 0.  0.
    1000022    2    1    0    0    0  0.36569144800E+02  0.10260079965E+02  0.48617676658E+02  0.62499999873E+02  0.99999954118E+01 0.  0.
    3000022    2    5    5    0    0  0.12855719171E+02 -0.11105252089E+00  0.21102116637E+02  0.24711205405E+02  0.24999586095E+00 0.  0.
        -13    1    4    4    0    0 -0.14151647627E+01  0.49180664205E+00 -0.99299111774E+00  0.18004503433E+01  0.10500000000E+00 0.  1.
         13    1    4    4    0    0 -0.24149496403E+01  0.81096303511E+00 -0.14988516383E+01  0.29575706320E+01  0.10500000000E+00 0. -1.
    3000001    1    5    5    0    0  0.23713425629E+02  0.10371132486E+02  0.27515560021E+02  0.37788794468E+02  0.10000000000E+01 0. -1.
        -13    1    6    6    0    0  0.29565902702E+01 -0.19341505837E-01  0.48598724736E+01  0.56895681365E+01  0.10500000000E+00 0. -1.
         13    1    6    6    0    0  0.98991289006E+01 -0.91711015051E-01  0.16242244164E+02  0.19021637269E+02  0.10500000000E+00 0.  1.
</event>
<event>
11    0  0.3396091E-009  0.9118800E+02  0.7816531E-02  0.1126479E+00
         25   -1    0    0    0    0  0.00000000000E+00  0.00000000000E+00  0.99999998245E-14  0.12500000000E+03  0.12500000000E+03 0.  0.
    3000001    1    3    3    0    0  0.18749954174E+02  0.88105712102E+01  0.31524494559E+01  0.20979153562E+02  0.10000000000E+01 0.  1.
    1000022    2    1    0    0    0  0.58303484495E+02  0.19988926721E+02 -0.27195584260E+01  0.62499996188E+02  0.10000001485E+02 0.  0.
    3000022    2    3    3    0    0  0.39553530321E+02  0.11178355511E+02 -0.58720078819E+01  0.41520842626E+02  0.25000610019E+00 0.  0.
    1000022    2    1    0    0    0 -0.58303484495E+02 -0.19988926721E+02  0.27195584260E+01  0.62500003812E+02  0.10000049139E+02 0.  0.
    3000022    2    5    5    0    0 -0.43832147406E+02 -0.10422042853E+02  0.24486645957E+01  0.45121331609E+02  0.24996874782E+00 0.  0.
        -13    1    4    4    0    0  0.12887344143E+02  0.35883609942E+01 -0.19067635436E+01  0.13513206352E+02  0.10500000000E+00 0.  1.
         13    1    4    4    0    0  0.26666186177E+02  0.75899945170E+01 -0.39652443382E+01  0.28007636274E+02  0.10500000000E+00 0. -1.
    3000001    1    5    5    0    0 -0.14471337088E+02 -0.95668838686E+01  0.27089383033E+00  0.17378672203E+02  0.10000000000E+01 0. -1.
        -13    1    6    6    0    0 -0.28523834256E+02 -0.67583489657E+01  0.16446357342E+01  0.29359840822E+02  0.10500000000E+00 0.  1.
         13    1    6    6    0    0 -0.15308313151E+02 -0.36636938871E+01  0.80402886142E+00  0.15761490787E+02  0.10500000000E+00 0. -1.
</event>
<event>
11    0  0.3396091E-009  0.9118800E+02  0.7816531E-02  0.1126479E+00
         25   -1    0    0    0    0  0.00000000000E+00  0.00000000000E+00  0.99999998245E-14  0.12500000000E+03  0.12500000000E+03 0.  0.
    3000001    1    3    3    0    0  0.38657522507E+02 -0.10002416963E+02 -0.21079997763E+02  0.45164352062E+02  0.10000000000E+01 0. -1.
    1000022    2    1    0    0    0  0.53419962831E+02 -0.18249677026E+02 -0.24889896053E+02  0.62500001675E+02  0.10000007171E+02 0.  0.
    3000022    2    3    3    0    0  0.14762440324E+02 -0.82472600630E+01 -0.38098982907E+01  0.17335649613E+02  0.24995933191E+00 0.  0.
    1000022    2    1    0    0    0 -0.53419962831E+02  0.18249677026E+02  0.24889896053E+02  0.62499998325E+02  0.99999862335E+01 0.  0.
    3000022    2    5    5    0    0 -0.29080720890E+02  0.13343325502E+02  0.99615134980E+01  0.33511593932E+02  0.25002753176E+00 0.  0.
        -13    1    4    4    0    0  0.75478666237E+01 -0.42536984235E+01 -0.20130309339E+01  0.88953672992E+01  0.10500000000E+00 0. -1.
         13    1    4    4    0    0  0.72145737001E+01 -0.39935616395E+01 -0.17968673569E+01  0.84402823141E+01  0.10500000000E+00 0.  1.
    3000001    1    5    5    0    0 -0.24339241941E+02  0.49063515247E+01  0.14928382555E+02  0.28988404393E+02  0.10000000000E+01 0.  1.
        -13    1    6    6    0    0 -0.16008938214E+02  0.72858454989E+01  0.54353526540E+01  0.18409881337E+02  0.10500000000E+00 0. -1.
         13    1    6    6    0    0 -0.13071782676E+02  0.60574800027E+01  0.45261608440E+01  0.15101712595E+02  0.10500000000E+00 0.  1.
</event>
<event>
11    0  0.3396091E-009  0.9118800E+02  0.7816531E-02  0.1126479E+00
         25   -1    0    0    0    0  0.00000000000E+00  0.00000000000E+00  0.99999998245E-14  0.12500000000E+03  0.12500000000E+03 0.  0.
    3000001    1    3    3    0    0 -0.32511762856E+02  0.42710943483E+01  0.41878902388E+02  0.53198678895E+02  0.10000000000E+01 0.  1.
    1000022    2    1    0    0    0 -0.35275036556E+02  0.24043962835E+01  0.50558291508E+02  0.62499998139E+02  0.99999800861E+01 0.  0.
    3000022    2    3    3    0    0 -0.27632736994E+01 -0.18666980648E+01  0.86793891193E+01  0.93013192437E+01  0.25000197465E+00 0.  0.
    1000022    2    1    0    0    0  0.35275036556E+02 -0.24043962835E+01 -0.50558291508E+02  0.62500001861E+02  0.10000003347E+02 0.  0.
    3000022    2    5    5    0    0  0.32229899238E+02 -0.27127801824E+00 -0.48203515222E+02  0.57986906895E+02  0.24998962857E+00 0.  0.
        -13    1    4    4    0    0 -0.11758962670E+01 -0.76086209263E+00  0.38114652718E+01  0.40620112842E+01  0.10500000000E+00 0. -1.
         13    1    4    4    0    0 -0.15873774324E+01 -0.11058359722E+01  0.48679238475E+01  0.52393079596E+01  0.10500000000E+00 0.  1.
    3000001    1    5    5    0    0  0.30451373173E+01 -0.21331182652E+01 -0.23547762856E+01  0.45130949658E+01  0.10000000000E+01 0. -1.
        -13    1    6    6    0    0  0.11065840306E+02 -0.47755315070E-01 -0.16493081754E+02  0.19861718782E+02  0.10500000000E+00 0. -1.
         13    1    6    6    0    0  0.21164058933E+02 -0.22352270317E+00 -0.31710433468E+02  0.38125188113E+02  0.10500000000E+00 0.  1.
</event>
<event>
11    0  0.3396091E-009  0.9118800E+02  0.7816531E-02  0.1126479E+00
         25   -1    0    0    0    0  0.00000000000E+00  0.00000000000E+00  0.99999998245E-14  0.12500000000E+03  0.12500000000E+03 0.  0.
    3000001    1    3    3    0    0 -0.30763179925E+00  0.34577822937E+01 -0.12984181309E+01  0.38388520885E+01  0.10000000000E+01 0.  1.
    1000022    2    1    0    0    0  0.28821770670E+02  0.53646482505E+02 -0.98798081147E+01  0.62500001697E+02  0.10000002699E+02 0.  0.
    3000022    2    3    3    0    0  0.29129402470E+02  0.50188700212E+02 -0.85813899838E+01  0.58661149609E+02  0.25000433892E+00 0.  0.
    1000022    2    1    0    0    0 -0.28821770670E+02 -0.53646482505E+02  0.98798081147E+01  0.62499998303E+02  0.99999814851E+01 0.  0.
    3000022    2    5    5    0    0 -0.74640834495E+01 -0.68506837421E+01  0.31502241603E+01  0.10612765909E+02  0.24995699498E+00 0.  0.
        -13    1    4    4    0    0  0.11736879858E+02  0.20303316880E+02 -0.34188644890E+01  0.23699761276E+02  0.10500000000E+00 0. -1.
         13    1    4    4    0    0  0.17392522612E+02  0.29885383331E+02 -0.51625254948E+01  0.34961388333E+02  0.10500000000E+00 0.  1.
    3000001    1    5    5    0    0 -0.21357687221E+02 -0.46795798763E+02  0.67295839544E+01  0.51887232394E+02  0.10000000000E+01 0. -1.
        -13    1    6    6    0    0 -0.23155820167E+01 -0.21873162012E+01  0.97097059154E+00  0.33316784253E+01  0.10500000000E+00 0.  1.
         13    1    6    6    0    0 -0.51485014328E+01 -0.46633675409E+01  0.21792535688E+01  0.72810874835E+01  0.10500000000E+00 0. -1.
</event>
<event>
11    0  0.3396091E-009  0.9118800E+02  0.7816531E-02  0.1126479E+00
         25   -1    0    0    0    0  0.00000000000E+00  0.00000000000E+00  0.99999998245E-14  0.12500000000E+03  0.12500000000E+03 0.  0.
    3000001    1    3    3    0    0  0.71770502200E+01  0.40014844729E+02 -0.38464162179E+00  0.40667502969E+02  0.10000000000E+01 0.  1.
    1000022    2    1    0    0    0  0.14830980367E+02  0.59649174717E+02  0.53167489227E+01  0.62500000447E+02  0.10000010683E+02 0.  0.
    3000022    2    3    3    0    0  0.76539301470E+01  0.19634329988E+02  0.57013905445E+01  0.21832497478E+02  0.25006239939E+00 0.  0.
    1000022    2    1    0    0    0 -0.14830980367E+02 -0.59649174717E+02 -0.53167489227E+01  0.62499999553E+02  0.10000005099E+02 0.  0.
    3000022    2    5    5    0    0 -0.31053688084E+01 -0.15094855331E+02 -0.56516197222E+01  0.16416494035E+02  0.24999604506E+00 0.  0.
        -13    1    4    4    0    0  0.45882058799E+01  0.11594362467E+02  0.33774431540E+01  0.12918940416E+02  0.10500000000E+00 0. -1.
         13    1    4    4    0    0  0.30657242672E+01  0.80399675208E+01  0.23239473905E+01  0.89135570617E+01  0.10500000000E+00 0.  1.
    3000001    1    5    5    0    0 -0.11725611559E+02 -0.44554319386E+02  0.33487079951E+00  0.46083505518E+02  0.10000000000E+01 0. -1.
        -13    1    6    6    0    0 -0.23109236374E+01 -0.11309158768E+02 -0.42091032927E+01  0.12286782151E+02  0.10500000000E+00 0.  1.
         13    1    6    6    0    0 -0.79444517100E+00 -0.37856965627E+01 -0.14425164295E+01  0.41297118839E+01  0.10500000000E+00 0. -1.
</event>
<event>
11    0  0.3396091E-009  0.9118800E+02  0.7816531E-02  0.1126479E+00
         25   -1    0    0    0    0  0.00000000000E+00  0.00000000000E+00  0.99999998245E-14  0.12500000000E+03  0.12500000000E+03 0.  0.
    3000001    1    3    3    0    0  0.12230369823E+02  0.29460140339E+02 -0.96400647219E+01  0.33337856300E+02  0.10000000000E+01 0.  1.
    1000022    2    1    0    0    0  0.15322304920E+02  0.58172503050E+02 -0.13690766231E+02  0.62499998476E+02  0.99999795162E+01 0.  0.
    3000022    2    3    3    0    0  0.30919350972E+01  0.28712362711E+02 -0.40507015093E+01  0.29162142176E+02  0.25003702196E+00 0.  0.
    1000022    2    1    0    0    0 -0.15322304920E+02 -0.58172503050E+02  0.13690766231E+02  0.62500001524E+02  0.99999985633E+01 0.  0.
    3000022    2    5    5    0    0  0.23992522883E+00 -0.30189314456E+00  0.11895596453E+01  0.12752462022E+01  0.24999428094E+00 0.  0.
        -13    1    4    4    0    0  0.13431656306E+01  0.12710385398E+02 -0.17309432210E+01  0.12898262686E+02  0.10500000000E+00 0. -1.
         13    1    4    4    0    0  0.17487694667E+01  0.16001977313E+02 -0.23197582883E+01  0.16263879490E+02  0.10500000000E+00 0.  1.
    3000001    1    5    5    0    0 -0.15562230149E+02 -0.57870609906E+02  0.12501206586E+02  0.61224755322E+02  0.10000000000E+01 0.  1.
        -13    1    6    6    0    0  0.85661088894E-01 -0.21356454588E+00  0.63709929179E+00  0.68546928816E+00  0.10500000000E+00 0. -1.
         13    1    6    6    0    0  0.15426413994E+00 -0.88328598680E-01  0.55246035349E+00  0.58977691409E+00  0.10500000000E+00 0.  1.
</event>
<event>
11    0  0.3396091E-009  0.9118800E+02  0.7816531E-02  0.1126479E+00
         25   -1    0    0    0    0  0.00000000000E+00  0.00000000000E+00  0.99999998245E-14  0.12500000000E+03  0.12500000000E+03 0.  0.
    3000001    1    3    3    0    0  0.70562468874E+00 -0.20651095620E+00 -0.57497933074E+01  0.58822339340E+01  0.10000000000E+01 0. -1.
    1000022    2    1    0    0    0  0.14510276415E+02 -0.29279555567E+02 -0.52329815258E+02  0.62499998623E+02  0.99999883535E+01 0.  0.
    3000022    2    3    3    0    0  0.13804651726E+02 -0.29073044611E+02 -0.46580021951E+02  0.56617764689E+02  0.25000242202E+00 0.  0.
    1000022    2    1    0    0    0 -0.14510276415E+02  0.29279555567E+02  0.52329815258E+02  0.62500001377E+02  0.10000005565E+02 0.  0.
    3000022    2    5    5    0    0 -0.46578076791E+01  0.13273440925E+02  0.31060927816E+02  0.34098726420E+02  0.25000068087E+00 0.  0.
        -13    1    4    4    0    0  0.59858705294E+01 -0.12718521030E+02 -0.20423834668E+02  0.24793859537E+02  0.10500000000E+00 0.  1.
         13    1    4    4    0    0  0.78187811965E+01 -0.16354523581E+02 -0.26156187283E+02  0.31823905152E+02  0.10500000000E+00 0. -1.
    3000001    1    5    5    0    0 -0.98524687355E+01  0.16006114642E+02  0.21268887443E+02  0.28401274957E+02  0.10000000000E+01 0. -1.
        -13    1    6    6    0    0 -0.11572589380E+01  0.33618465148E+01  0.78971337508E+01  0.86612358655E+01  0.10500000000E+00 0.  1.
         13    1    6    6    0    0 -0.35005487411E+01  0.99115944100E+01  0.23163794065E+02  0.25437490555E+02  0.10500000000E+00 0. -1.
</event>
<event>
11    0  0.3396091E-009  0.9118800E+02  0.7816531E-02  0.1126479E+00
         25   -1    0    0    0    0  0.00000000000E+00  0.00000000000E+00  0.99999998245E-14  0.12500000000E+03  0.12500000000E+03 0.  0.
    3000001    1    3    3    0    0  0.50659169153E+00 -0.15240723206E+01  0.11118180548E+02  0.11278003825E+02  0.10000000000E+01 0.  1.
    1000022    2    1    0    0    0 -0.10978588366E+02  0.69458335554E+01  0.60311491148E+02  0.62500000800E+02  0.10000006462E+02 0.  0.
    3000022    2    3    3    0    0 -0.11485180057E+02  0.84699058760E+01  0.49193310600E+02  0.51221996975E+02  0.24999966364E+00 0.  0.
    1000022    2    1    0    0    0  0.10978588366E+02 -0.69458335554E+01 -0.60311491148E+02  0.62499999200E+02  0.99999964592E+01 0.  0.
    3000022    2    5    5    0    0  0.94061460760E+01 -0.92875958372E+01 -0.52376674852E+02  0.54019566723E+02  0.24999992038E+00 0.  0.
        -13    1    4    4    0    0 -0.48976239395E+01  0.35600761633E+01  0.21052476168E+02  0.21906132482E+02  0.10500000000E+00 0. -1.
         13    1    4    4    0    0 -0.65875561177E+01  0.49098297126E+01  0.28140834432E+02  0.29315864492E+02  0.10500000000E+00 0.  1.
    3000001    1    5    5    0    0  0.15724422897E+01  0.23417622818E+01 -0.79348162959E+01  0.84804324765E+01  0.10000000000E+01 0. -1.
        -13    1    6    6    0    0  0.49587834858E+01 -0.48587341777E+01 -0.27760609719E+02  0.28615717857E+02  0.10500000000E+00 0. -1.
         13    1    6    6    0    0  0.44473625902E+01 -0.44288616595E+01 -0.24616065133E+02  0.25403848867E+02  0.10500000000E+00 0.  1.
</event>
<event>
11    0  0.3396091E-009  0.9118800E+02  0.7816531E-02  0.1126479E+00
         25   -1    0    0    0    0  0.00000000000E+00  0.00000000000E+00  0.99999998245E-14  0.12500000000E+03  0.12500000000E+03 0.  0.
    3000001    1    3    3    0    0 -0.11190583646E+02 -0.15089627436E+02 -0.33994663508E+01  0.19117593728E+02  0.10000000000E+01 0.  1.
    1000022    2    1    0    0    0 -0.28409761389E+02 -0.54764346625E+02 -0.25095860828E-01  0.62499989930E+02  0.99999953993E+01 0.  0.
    3000022    2    3    3    0    0 -0.17219177743E+02 -0.39674719189E+02  0.33743704900E+01  0.43382396201E+02  0.24999820057E+00 0.  0.
    1000022    2    1    0    0    0  0.28409761389E+02  0.54764346625E+02  0.25095860828E-01  0.62500010070E+02  0.10000121275E+02 0.  0.
    3000022    2    5    5    0    0  0.28714297619E+02  0.51158418674E+02 -0.72715326410E+00  0.58670997476E+02  0.25000791567E+00 0.  0.
        -13    1    4    4    0    0 -0.73982106009E+01 -0.17171272682E+02  0.14157906956E+01  0.18751043009E+02  0.10500000000E+00 0.  1.
         13    1    4    4    0    0 -0.98209671423E+01 -0.22503446507E+02  0.19585797944E+01  0.24631353193E+02  0.10500000000E+00 0. -1.
    3000001    1    5    5    0    0 -0.30453622959E+00  0.36059279511E+01  0.75224912493E+00  0.38290125946E+01  0.10000000000E+01 0.  1.
        -13    1    6    6    0    0  0.19643674126E+02  0.34913342395E+02 -0.46825775249E+00  0.40063021612E+02  0.10500000000E+00 0. -1.
         13    1    6    6    0    0  0.90706234929E+01  0.16245076279E+02 -0.25889551161E+00  0.18607975864E+02  0.10500000000E+00 0.  1.
</event>
<event>
11    0  0.3396091E-009  0.9118800E+02  0.7816531E-02  0.1126479E+00
         25   -1    0    0    0    0  0.00000000000E+00  0.00000000000E+00  0.99999998245E-14  0.12500000000E+03  0.12500000000E+03 0.  0.
    3000001    1    3    3    0    0  0.97872868567E+01  0.27922553560E+01 -0.45003314476E+02  0.46150687837E+02  0.10000000000E+01 0. -1.
    1000022    2    1    0    0    0  0.95729339661E+01 -0.83454570779E+00 -0.60941879043E+02  0.62499999238E+02  0.99999876066E+01 0.  0.
    3000022    2    3    3    0    0 -0.21435289058E+00 -0.36268010638E+01 -0.15938564567E+02  0.16349311401E+02  0.25001939764E+00 0.  0.
    1000022    2    1    0    0    0 -0.95729339661E+01  0.83454570779E+00  0.60941879043E+02  0.62500000762E+02  0.99999971328E+01 0.  0.
    3000022    2    5    5    0    0 -0.49148800468E+01 -0.32878746215E+01  0.44509670991E+02  0.44901441811E+02  0.24999910423E+00 0.  0.
        -13    1    4    4    0    0 -0.60702755582E-01 -0.19781344232E+01 -0.88391042751E+01  0.90585589366E+01  0.10500000000E+00 0. -1.
         13    1    4    4    0    0 -0.15365013500E+00 -0.16486666406E+01 -0.70994602923E+01  0.72907524645E+01  0.10500000000E+00 0.  1.
    3000001    1    5    5    0    0 -0.46580539193E+01  0.41224203293E+01  0.16432208053E+02  0.17598558951E+02  0.10000000000E+01 0.  1.
        -13    1    6    6    0    0 -0.28832118141E+01 -0.20034150892E+01  0.26523692162E+02  0.26755258423E+02  0.10500000000E+00 0.  1.
         13    1    6    6    0    0 -0.20316682327E+01 -0.12844595322E+01  0.17985978829E+02  0.18146183387E+02  0.10500000000E+00 0. -1.
</event>
<event>
11    0  0.3396091E-009  0.9118800E+02  0.7816531E-02  0.1126479E+00
         25   -1    0    0    0    0  0.00000000000E+00  0.00000000000E+00  0.99999998245E-14  0.12500000000E+03  0.12500000000E+03 0.  0.
    3000001    1    3    3    0    0 -0.90686994555E+01  0.18425895711E+02 -0.11693471990E+02  0.23653588094E+02  0.10000000000E+01 0.  1.
    1000022    2    1    0    0    0 -0.13165211840E+02  0.53922657842E+02 -0.26930915151E+02  0.62499999775E+02  0.99999974742E+01 0.  0.
    3000022    2    3    3    0    0 -0.40965123847E+01  0.35496762131E+02 -0.15237443161E+02  0.38846411681E+02  0.24998173780E+00 0.  0.
    1000022    2    1    0    0    0  0.13165211840E+02 -0.53922657842E+02  0.26930915151E+02  0.62500000225E+02  0.10000000282E+02 0.  0.
    3000022    2    5    5    0    0  0.13853353300E+02 -0.43341755308E+02  0.24047942385E+02  0.51466389344E+02  0.25009653258E+00 0.  0.
        -13    1    4    4    0    0 -0.18436895417E+01  0.15403731323E+02 -0.66210394791E+01  0.16867819022E+02  0.10500000000E+00 0. -1.
         13    1    4    4    0    0 -0.22528228430E+01  0.20093030809E+02 -0.86164036822E+01  0.21978592659E+02  0.10500000000E+00 0.  1.
    3000001    1    5    5    0    0 -0.68814145976E+00 -0.10580902534E+02  0.28829727660E+01  0.11033610881E+02  0.10000000000E+01 0.  1.
        -13    1    6    6    0    0  0.92348055770E+01 -0.28729078111E+02  0.15923602765E+02  0.34120576097E+02  0.10500000000E+00 0.  1.
         13    1    6    6    0    0  0.46185477230E+01 -0.14612677198E+02  0.81243396199E+01  0.17345813247E+02  0.10500000000E+00 0. -1.
</event>
<event>
11    0  0.3396091E-009  0.9118800E+02  0.7816531E-02  0.1126479E+00
         25   -1    0    0    0    0  0.00000000000E+00  0.00000000000E+00  0.99999998245E-14  0.12500000000E+03  0.12500000000E+03 0.  0.
    3000001    1    3    3    0    0 -0.46262661041E+02  0.20265561847E+02 -0.75734727336E+01  0.51081153989E+02  0.10000000000E+01 0.  1.
    1000022    2    1    0    0    0 -0.57383213998E+02  0.21950958825E+02 -0.56189154062E+01  0.62500000461E+02  0.10000000257E+02 0.  0.
    3000022    2    3    3    0    0 -0.11120552957E+02  0.16853969783E+01  0.19545573274E+01  0.11418846472E+02  0.24999871836E+00 0.  0.
    1000022    2    1    0    0    0  0.57383213998E+02 -0.21950958825E+02  0.56189154062E+01  0.62499999539E+02  0.99999944970E+01 0.  0.
    3000022    2    5    5    0    0  0.24928612462E+02 -0.45515590784E+01  0.86739638276E+00  0.25356800895E+02  0.25013169717E+00 0.  0.
        -13    1    4    4    0    0 -0.56726989342E+01  0.90756148322E+00  0.94899910285E+00  0.58236419310E+01  0.10500000000E+00 0.  1.
         13    1    4    4    0    0 -0.54478540229E+01  0.77783549508E+00  0.10055582245E+01  0.55952045409E+01  0.10500000000E+00 0. -1.
    3000001    1    5    5    0    0  0.32454601537E+02 -0.17399399747E+02  0.47515190235E+01  0.37143198644E+02  0.10000000000E+01 0. -1.
        -13    1    6    6    0    0  0.13814659063E+02 -0.25079481095E+01  0.41548855872E+00  0.14047001975E+02  0.10500000000E+00 0. -1.
         13    1    6    6    0    0  0.11113953399E+02 -0.20436109690E+01  0.45190782404E+00  0.11309798921E+02  0.10500000000E+00 0.  1.
</event>
<event>
11    0  0.3396091E-009  0.9118800E+02  0.7816531E-02  0.1126479E+00
         25   -1    0    0    0    0  0.00000000000E+00  0.00000000000E+00  0.99999998245E-14  0.12500000000E+03  0.12500000000E+03 0.  0.
    3000001    1    3    3    0    0 -0.32000549984E+02  0.11381976325E+02 -0.42061212417E+02  0.54071528315E+02  0.10000000000E+01 0.  1.
    1000022    2    1    0    0    0 -0.37620917273E+02  0.93418042677E+01 -0.47996334430E+02  0.62499992229E+02  0.99999093234E+01 0.  0.
    3000022    2    3    3    0    0 -0.56203672881E+01 -0.20401720574E+01 -0.59351220136E+01  0.84284639139E+01  0.25000030770E+00 0.  0.
    1000022    2    1    0    0    0  0.37620917273E+02 -0.93418042677E+01  0.47996334430E+02  0.62500007771E+02  0.10000006463E+02 0.  0.
    3000022    2    5    5    0    0  0.22896778743E+02 -0.79546355414E+01  0.22864939595E+02  0.33322764946E+02  0.24999513651E+00 0.  0.
        -13    1    4    4    0    0 -0.26313747376E+01 -0.96774645839E+00 -0.26898926545E+01  0.38867999318E+01  0.10500000000E+00 0. -1.
         13    1    4    4    0    0 -0.29889925505E+01 -0.10724255991E+01 -0.32452293592E+01  0.45416639821E+01  0.10500000000E+00 0.  1.
    3000001    1    5    5    0    0  0.14724138530E+02 -0.13871687263E+01  0.25131394835E+02  0.29177242825E+02  0.10000000000E+01 0. -1.
        -13    1    6    6    0    0  0.74351945356E+01 -0.25468894240E+01  0.73608374600E+01  0.10768552207E+02  0.10500000000E+00 0. -1.
         13    1    6    6    0    0  0.15461584207E+02 -0.54077461174E+01  0.15504102135E+02  0.22554212739E+02  0.10500000000E+00 0.  1.
</event>
<event>
11    0  0.3396091E-009  0.9118800E+02  0.7816531E-02  0.1126479E+00
         25   -1    0    0    0    0  0.00000000000E+00  0.00000000000E+00  0.99999998245E-14  0.12500000000E+03  0.12500000000E+03 0.  0.
    3000001    1    3    3    0    0  0.98183493041E+01  0.25930576501E+02 -0.71770505318E+01  0.28658416479E+02  0.10000000000E+01 0.  1.
    1000022    2    1    0    0    0  0.29525339545E+02  0.53352592960E+02 -0.93811055327E+01  0.62500000581E+02  0.10000004041E+02 0.  0.
    3000022    2    3    3    0    0  0.19706990241E+02  0.27422016459E+02 -0.22040550009E+01  0.33841584102E+02  0.25001016137E+00 0.  0.
    1000022    2    1    0    0    0 -0.29525339545E+02 -0.53352592960E+02  0.93811055327E+01  0.62499999419E+02  0.99999967773E+01 0.  0.
    3000022    2    5    5    0    0 -0.23014661325E+02 -0.34030739450E+02  0.91261371952E+01  0.42084613976E+02  0.24997988584E+00 0.  0.
        -13    1    4    4    0    0  0.14080936588E+02  0.19653686077E+02 -0.15567407085E+01  0.24227559065E+02  0.10500000000E+00 0.  1.
         13    1    4    4    0    0  0.56260536522E+01  0.77683303822E+01 -0.64731429238E+00  0.96140250373E+01  0.10500000000E+00 0. -1.
    3000001    1    5    5    0    0 -0.65106782193E+01 -0.19321853510E+02  0.25496833751E+00  0.20415385443E+02  0.10000000000E+01 0. -1.
        -13    1    6    6    0    0 -0.13027475906E+02 -0.19170578442E+02  0.51071801861E+01  0.23734374244E+02  0.10500000000E+00 0. -1.
         13    1    6    6    0    0 -0.99871854194E+01 -0.14860161008E+02  0.40189570091E+01  0.18350239732E+02  0.10500000000E+00 0.  1.
</event>
<event>
11    0  0.3396091E-009  0.9118800E+02  0.7816531E-02  0.1126479E+00
         25   -1    0    0    0    0  0.00000000000E+00  0.00000000000E+00  0.99999998245E-14  0.12500000000E+03  0.12500000000E+03 0.  0.
    3000001    1    3    3    0    0  0.15829618919E+02 -0.19545570978E+02  0.49612578803E+02  0.55632851405E+02  0.10000000000E+01 0.  1.
    1000022    2    1    0    0    0  0.14466595134E+02 -0.22968529698E+02  0.55402292606E+02  0.62500002473E+02  0.10000027595E+02 0.  0.
    3000022    2    3    3    0    0 -0.13630237856E+01 -0.34229587200E+01  0.57897138031E+01  0.68671510681E+01  0.24999526450E+00 0.  0.
    1000022    2    1    0    0    0 -0.14466595134E+02  0.22968529698E+02 -0.55402292606E+02  0.62499997527E+02  0.99999966770E+01 0.  0.
    3000022    2    5    5    0    0 -0.14358667072E+02  0.16457488684E+02 -0.37153074745E+02  0.43097954951E+02  0.25000816238E+00 0.  0.
        -13    1    4    4    0    0 -0.34445258491E+00 -0.95524700182E+00  0.16355407186E+01  0.19279945176E+01  0.10500000000E+00 0.  1.
         13    1    4    4    0    0 -0.10185712007E+01 -0.24677117181E+01  0.41541730845E+01  0.49391565505E+01  0.10500000000E+00 0. -1.
    3000001    1    5    5    0    0 -0.10792806128E+00  0.65110410142E+01 -0.18249217861E+02  0.19402042575E+02  0.10000000000E+01 0.  1.
        -13    1    6    6    0    0 -0.73968510971E+01  0.85560832263E+01 -0.19152165048E+02  0.22242671093E+02  0.10500000000E+00 0. -1.
         13    1    6    6    0    0 -0.69618159751E+01  0.79014054575E+01 -0.18000909697E+02  0.20855283858E+02  0.10500000000E+00 0.  1.
</event>
<event>
11    0  0.3396091E-009  0.9118800E+02  0.7816531E-02  0.1126479E+00
         25   -1    0    0    0    0  0.00000000000E+00  0.00000000000E+00  0.99999998245E-14  0.12500000000E+03  0.12500000000E+03 0.  0.
    3000001    1    3    3    0    0  0.96504651087E+01  0.93376169194E+01 -0.84124216335E+00  0.13491858839E+02  0.10000000000E+01 0.  1.
    1000022    2    1    0    0    0  0.39396998925E+02  0.45427376671E+02  0.13801448116E+02  0.62500000138E+02  0.99999985807E+01 0.  0.
    3000022    2    3    3    0    0  0.29746533817E+02  0.36089759751E+02  0.14642690279E+02  0.49008141299E+02  0.25000390474E+00 0.  0.
    1000022    2    1    0    0    0 -0.39396998925E+02 -0.45427376671E+02 -0.13801448116E+02  0.62499999862E+02  0.99999968591E+01 0.  0.
    3000022    2    5    5    0    0 -0.27319568358E+02 -0.36786716864E+02 -0.79473837912E+01  0.46506394886E+02  0.25000661384E+00 0.  0.
        -13    1    4    4    0    0  0.71717861948E+01  0.87244946988E+01  0.35211502889E+01  0.11830505033E+02  0.10500000000E+00 0. -1.
         13    1    4    4    0    0  0.22574747622E+02  0.27365265053E+02  0.11121539990E+02  0.37177636266E+02  0.10500000000E+00 0.  1.
    3000001    1    5    5    0    0 -0.12077430567E+02 -0.86406598067E+01 -0.58540643248E+01  0.15993604976E+02  0.10000000000E+01 0. -1.
        -13    1    6    6    0    0 -0.11191326188E+02 -0.15141047025E+02 -0.33141036929E+01  0.19117829248E+02  0.10500000000E+00 0.  1.
         13    1    6    6    0    0 -0.16128242170E+02 -0.21645669839E+02 -0.46332800983E+01  0.27388565639E+02  0.10500000000E+00 0. -1.
</event>
<event>
11    0  0.3396091E-009  0.9118800E+02  0.7816531E-02  0.1126479E+00
         25   -1    0    0    0    0  0.00000000000E+00  0.00000000000E+00  0.99999998245E-14  0.12500000000E+03  0.12500000000E+03 0.  0.
    3000001    1    3    3    0    0 -0.42508436105E+01  0.99358057596E+01 -0.41695327843E+01  0.11626474579E+02  0.10000000000E+01 0.  1.
    1000022    2    1    0    0    0 -0.38026660012E+02  0.40572363976E+02 -0.26722770501E+02  0.62499999213E+02  0.99999924070E+01 0.  0.
    3000022    2    3    3    0    0 -0.33775816401E+02  0.30636558216E+02 -0.22553237717E+02  0.50873524634E+02  0.25000857911E+00 0.  0.
    1000022    2    1    0    0    0  0.38026660012E+02 -0.40572363976E+02  0.26722770501E+02  0.62500000787E+02  0.10000002244E+02 0.  0.
    3000022    2    5    5    0    0  0.27483375339E+02 -0.30265538829E+02  0.24199450157E+02  0.47508048217E+02  0.24999376652E+00 0.  0.
        -13    1    4    4    0    0 -0.24306474946E+02  0.21993589008E+02 -0.16206913981E+02  0.36567714825E+02  0.10500000000E+00 0.  1.
         13    1    4    4    0    0 -0.94693414555E+01  0.86429692083E+01 -0.63463237358E+01  0.14305809809E+02  0.10500000000E+00 0. -1.
    3000001    1    5    5    0    0  0.10543284672E+02 -0.10306825147E+02  0.25233203445E+01  0.14991952570E+02  0.10000000000E+01 0.  1.
        -13    1    6    6    0    0  0.89978918028E+01 -0.99754935779E+01  0.79203226239E+01  0.15595353939E+02  0.10500000000E+00 0.  1.
         13    1    6    6    0    0  0.18485483537E+02 -0.20290045251E+02  0.16279127533E+02  0.31912694278E+02  0.10500000000E+00 0. -1.
</event>
<event>
11    0  0.3396091E-009  0.9118800E+02  0.7816531E-02  0.1126479E+00
         25   -1    0    0    0    0  0.00000000000E+00  0.00000000000E+00  0.99999998245E-14  0.12500000000E+03  0.12500000000E+03 0.  0.
    3000001    1    3    3    0    0 -0.26282459588E+02 -0.28477604102E+02  0.19710594417E+02  0.43488494451E+02  0.10000000000E+01 0.  1.
    1000022    2    1    0    0    0 -0.42187178670E+02 -0.37513471579E+02  0.24884356292E+02  0.62499999682E+02  0.10000008912E+02 0.  0.
    3000022    2    3    3    0    0 -0.15904719082E+02 -0.90358674772E+01  0.51737618749E+01  0.19011505231E+02  0.25005815607E+00 0.  0.
    1000022    2    1    0    0    0  0.42187178670E+02  0.37513471579E+02 -0.24884356292E+02  0.62500000318E+02  0.10000012883E+02 0.  0.
    3000022    2    5    5    0    0  0.33171082722E+02  0.32985632401E+02 -0.17456441459E+02  0.49931578280E+02  0.24997449858E+00 0.  0.
        -13    1    4    4    0    0 -0.12142484974E+02 -0.69161137374E+01  0.39563508099E+01  0.14523646488E+02  0.10500000000E+00 0.  1.
         13    1    4    4    0    0 -0.37622341078E+01 -0.21197537399E+01  0.12174110649E+01  0.44878587434E+01  0.10500000000E+00 0. -1.
    3000001    1    5    5    0    0  0.90160959474E+01  0.45278391774E+01 -0.74279148331E+01  0.12568422038E+02  0.10000000000E+01 0. -1.
        -13    1    6    6    0    0  0.11115552911E+02  0.10978453919E+02 -0.58374768402E+01  0.16678403036E+02  0.10500000000E+00 0.  1.
         13    1    6    6    0    0  0.22055529811E+02  0.22007178482E+02 -0.11618964619E+02  0.33253175244E+02  0.10500000000E+00 0. -1.
</event>
<event>
11    0  0.3396091E-009  0.9118800E+02  0.7816531E-02  0.1126479E+00
         25   -1    0    0    0    0  0.00000000000E+00  0.00000000000E+00  0.99999998245E-14  0.12500000000E+03  0.12500000000E+03 0.  0.
    3000001    1    3    3    0    0  0.16340974878E+02 -0.61439693823E+01  0.86894759062E+01  0.19526464382E+02  0.10000000000E+01 0.  1.
    1000022    2    1    0    0    0  0.43346645377E+02 -0.19510959016E+02  0.39327355043E+02  0.62500000380E+02  0.10000000282E+02 0.  0.
    3000022    2    3    3    0    0  0.27005670500E+02 -0.13366989634E+02  0.30637879137E+02  0.42973535998E+02  0.25001440427E+00 0.  0.
    1000022    2    1    0    0    0 -0.43346645377E+02  0.19510959016E+02 -0.39327355043E+02  0.62499999620E+02  0.99999955328E+01 0.  0.
    3000022    2    5    5    0    0 -0.39993913098E+02  0.19866374328E+02 -0.34046070109E+02  0.56154993368E+02  0.24995295502E+00 0.  0.
        -13    1    4    4    0    0  0.16722037806E+02 -0.83385613882E+01  0.19034933327E+02  0.26673917339E+02  0.10500000000E+00 0.  1.
         13    1    4    4    0    0  0.10283632693E+02 -0.50284282453E+01  0.11602945810E+02  0.16299618660E+02  0.10500000000E+00 0. -1.
    3000001    1    5    5    0    0 -0.33527322788E+01 -0.35541531232E+00 -0.52812849343E+01  0.63450062518E+01  0.10000000000E+01 0.  1.
        -13    1    6    6    0    0 -0.24808155007E+02  0.12333575037E+02 -0.21197599235E+02  0.34884249546E+02  0.10500000000E+00 0. -1.
         13    1    6    6    0    0 -0.15185758091E+02  0.75327992909E+01 -0.12848470873E+02  0.21270743822E+02  0.10500000000E+00 0.  1.
</event>
<event>
11    0  0.3396091E-009  0.9118800E+02  0.7816531E-02  0.1126479E+00
         25   -1    0    0    0    0  0.00000000000E+00  0.00000000000E+00  0.99999998245E-14  0.12500000000E+03  0.12500000000E+03 0.  0.
    3000001    1    3    3    0    0  0.21512181388E+02  0.78003588090E+01  0.50735180710E+01  0.23459755567E+02  0.10000000000E+01 0. -1.
    1000022    2    1    0    0    0  0.60075532790E+02  0.13633265574E+02  0.33637292603E+01  0.62500000817E+02  0.99999928694E+01 0.  0.
    3000022    2    3    3    0    0  0.38563351402E+02  0.58329067652E+01 -0.17097888106E+01  0.39040245251E+02  0.24999755345E+00 0.  0.
    1000022    2    1    0    0    0 -0.60075532790E+02 -0.13633265574E+02 -0.33637292603E+01  0.62499999183E+02  0.99999826542E+01 0.  0.
    3000022    2    5    5    0    0 -0.29439887164E+02 -0.50383837462E+01 -0.63152714575E+01  0.30529287932E+02  0.25000205405E+00 0.  0.
        -13    1    4    4    0    0  0.24852796562E+02  0.37760760452E+01 -0.10470602706E+01  0.25160039894E+02  0.10500000000E+00 0. -1.
         13    1    4    4    0    0  0.13710554840E+02  0.20568307200E+01 -0.66272854001E+00  0.13880205356E+02  0.10500000000E+00 0.  1.
    3000001    1    5    5    0    0 -0.30635645626E+02 -0.85948818280E+01  0.29515421972E+01  0.31970711251E+02  0.10000000000E+01 0. -1.
        -13    1    6    6    0    0 -0.20596324527E+02 -0.34881565584E+01 -0.43878065830E+01  0.21345718348E+02  0.10500000000E+00 0. -1.
         13    1    6    6    0    0 -0.88435626372E+01 -0.15502271879E+01 -0.19274648745E+01  0.91835695835E+01  0.10500000000E+00 0.  1.
</event>
<event>
11    0  0.3396091E-009  0.9118800E+02  0.7816531E-02  0.1126479E+00
         25   -1    0    0    0    0  0.00000000000E+00  0.00000000000E+00  0.99999998245E-14  0.12500000000E+03  0.12500000000E+03 0.  0.
    3000001    1    3    3    0    0  0.13638627966E+02  0.20106662324E+02  0.30847287955E+02  0.39279068431E+02  0.10000000000E+01 0.  1.
    1000022    2    1    0    0    0  0.18385039538E+02  0.37686759295E+02  0.45254264045E+02  0.62500000790E+02  0.10000008971E+02 0.  0.
    3000022    2    3    3    0    0  0.47464115723E+01  0.17580096971E+02  0.14406976090E+02  0.23220932359E+02  0.25001445476E+00 0.  0.
    1000022    2    1    0    0    0 -0.18385039538E+02 -0.37686759295E+02 -0.45254264045E+02  0.62499999210E+02  0.99999991025E+01 0.  0.
    3000022    2    5    5    0    0 -0.71145633630E+01 -0.91503583757E+01 -0.18217010798E+02  0.21593240921E+02  0.25000156325E+00 0.  0.
        -13    1    4    4    0    0  0.28636402621E+01  0.10522415307E+02  0.87031297132E+01  0.13952675415E+02  0.10500000000E+00 0.  1.
         13    1    4    4    0    0  0.18827713102E+01  0.70576816639E+01  0.57038463771E+01  0.92682569434E+01  0.10500000000E+00 0. -1.
    3000001    1    5    5    0    0 -0.11270476175E+02 -0.28536400919E+02 -0.27037253247E+02  0.40906758290E+02  0.10000000000E+01 0.  1.
        -13    1    6    6    0    0 -0.32620154513E+01 -0.41536633317E+01 -0.84161496605E+01  0.99366122992E+01  0.10500000000E+00 0.  1.
         13    1    6    6    0    0 -0.38525479117E+01 -0.49966950440E+01 -0.98008611379E+01  0.11656628621E+02  0.10500000000E+00 0. -1.
</event>
<event>
11    0  0.3396091E-009  0.9118800E+02  0.7816531E-02  0.1126479E+00
         25   -1    0    0    0    0  0.00000000000E+00  0.00000000000E+00  0.99999998245E-14  0.12500000000E+03  0.12500000000E+03 0.  0.
    3000001    1    3    3    0    0  0.36883127351E+01 -0.32145124021E+01 -0.23739007927E+01  0.55292084233E+01  0.10000000000E+01 0.  1.
    1000022    2    1    0    0    0  0.40440602969E+02 -0.12194795880E+02 -0.44967706037E+02  0.62500000310E+02  0.10000001875E+02 0.  0.
    3000022    2    3    3    0    0  0.36752290234E+02 -0.89802834778E+01 -0.42593805244E+02  0.56970791887E+02  0.25010848242E+00 0.  0.
    1000022    2    1    0    0    0 -0.40440602969E+02  0.12194795880E+02  0.44967706037E+02  0.62499999690E+02  0.99999979972E+01 0.  0.
    3000022    2    5    5    0    0 -0.35517488247E+02  0.10572807323E+02  0.33843948327E+02  0.50187165287E+02  0.24999018960E+00 0.  0.
        -13    1    4    4    0    0  0.26311151974E+02 -0.64153154635E+01 -0.30430299862E+02  0.40736312614E+02  0.10500000000E+00 0. -1.
         13    1    4    4    0    0  0.10441138260E+02 -0.25649680144E+01 -0.12163505382E+02  0.16234479273E+02  0.10500000000E+00 0.  1.
    3000001    1    5    5    0    0 -0.49231147220E+01  0.16219885570E+01  0.11123757710E+02  0.12312834403E+02  0.10000000000E+01 0.  1.
        -13    1    6    6    0    0 -0.23873246101E+02  0.71395339644E+01  0.22700161875E+02  0.33707761699E+02  0.10500000000E+00 0.  1.
         13    1    6    6    0    0 -0.11644242146E+02  0.34332733584E+01  0.11143786452E+02  0.16479403588E+02  0.10500000000E+00 0. -1.
</event>
<event>
11    0  0.3396091E-009  0.9118800E+02  0.7816531E-02  0.1126479E+00
         25   -1    0    0    0    0  0.00000000000E+00  0.00000000000E+00  0.99999998245E-14  0.12500000000E+03  0.12500000000E+03 0.  0.
    3000001    1    3    3    0    0 -0.48836923356E+01 -0.20465811241E+02  0.35247611746E+02  0.41062075134E+02  0.10000000000E+01 0. -1.
    1000022    2    1    0    0    0 -0.97942148032E+00 -0.28273056123E+02  0.54826322452E+02  0.62500004230E+02  0.99999963063E+01 0.  0.
    3000022    2    3    3    0    0  0.39042708553E+01 -0.78072448829E+01  0.19578710707E+02  0.21437929096E+02  0.24997481769E+00 0.  0.
    1000022    2    1    0    0    0  0.97942148032E+00  0.28273056123E+02 -0.54826322452E+02  0.62499995770E+02  0.99999434283E+01 0.  0.
    3000022    2    5    5    0    0 -0.39144656140E+01  0.11557318840E+02 -0.27397116634E+02  0.29992652974E+02  0.25014544285E+00 0.  0.
        -13    1    4    4    0    0  0.26987096019E+01 -0.54801847211E+01  0.13632667743E+02  0.14939080055E+02  0.10500000000E+00 0.  1.
         13    1    4    4    0    0  0.12055612533E+01 -0.23270601618E+01  0.59460429635E+01  0.64988490408E+01  0.10500000000E+00 0. -1.
    3000001    1    5    5    0    0  0.48938870943E+01  0.16715737283E+02 -0.27429205818E+02  0.32507342795E+02  0.10000000000E+01 0.  1.
        -13    1    6    6    0    0 -0.10190794537E+01  0.29576558004E+01 -0.70885267231E+01  0.77488377755E+01  0.10500000000E+00 0. -1.
         13    1    6    6    0    0 -0.28953861602E+01  0.85996630399E+01 -0.20308589911E+02  0.22243815199E+02  0.10500000000E+00 0.  1.
</event>
<event>
11    0  0.3396091E-009  0.9118800E+02  0.7816531E-02  0.1126479E+00
         25   -1    0    0    0    0  0.00000000000E+00  0.00000000000E+00  0.99999998245E-14  0.12500000000E+03  0.12500000000E+03 0.  0.
    3000001    1    3    3    0    0 -0.12433374068E+00  0.66485348114E+01  0.11505828574E+02  0.13326761242E+02  0.10000000000E+01 0.  1.
    1000022    2    1    0    0    0 -0.18788828103E+02  0.27102968150E+02  0.52140763912E+02  0.62500002492E+02  0.10000005309E+02 0.  0.
    3000022    2    3    3    0    0 -0.18664494363E+02  0.20454433339E+02  0.40634935337E+02  0.49173241250E+02  0.24998431133E+00 0.  0.
    1000022    2    1    0    0    0  0.18788828103E+02 -0.27102968150E+02 -0.52140763912E+02  0.62499997508E+02  0.99999741581E+01 0.  0.
    3000022    2    5    5    0    0  0.98886120648E+01 -0.78597346573E+01 -0.14053152885E+02  0.18897451774E+02  0.25000016097E+00 0.  0.
        -13    1    4    4    0    0 -0.52598788798E+01  0.58095882984E+01  0.11453422592E+02  0.13878384492E+02  0.10500000000E+00 0. -1.
         13    1    4    4    0    0 -0.13404615483E+02  0.14644845040E+02  0.29181512745E+02  0.35294856758E+02  0.10500000000E+00 0.  1.
    3000001    1    5    5    0    0  0.89002160385E+01 -0.19243233493E+02 -0.38087611026E+02  0.43602545734E+02  0.10000000000E+01 0. -1.
        -13    1    6    6    0    0  0.56361257525E+01 -0.45477917195E+01 -0.81129471457E+01  0.10875626851E+02  0.10500000000E+00 0.  1.
         13    1    6    6    0    0  0.42524863123E+01 -0.33119429378E+01 -0.59402057396E+01  0.80218249226E+01  0.10500000000E+00 0. -1.
</event>
<event>
11    0  0.3396091E-009  0.9118800E+02  0.7816531E-02  0.1126479E+00
         25   -1    0    0    0    0  0.00000000000E+00  0.00000000000E+00  0.99999998245E-14  0.12500000000E+03  0.12500000000E+03 0.  0.
    3000001    1    3    3    0    0  0.56257765443E+00  0.12498388035E+01 -0.26557955058E+00  0.17173011238E+01  0.10000000000E+01 0. -1.
    1000022    2    1    0    0    0 -0.20248520785E+02  0.47408469022E+02 -0.33892248663E+02  0.62499998791E+02  0.99999900252E+01 0.  0.
    3000022    2    3    3    0    0 -0.20811098439E+02  0.46158630218E+02 -0.33626669112E+02  0.60782697667E+02  0.24999651785E+00 0.  0.
    1000022    2    1    0    0    0  0.20248520785E+02 -0.47408469022E+02  0.33892248663E+02  0.62500001209E+02  0.10000005136E+02 0.  0.
    3000022    2    5    5    0    0  0.11529122967E+02 -0.16365903344E+02  0.15870546233E+02  0.25547998007E+02  0.24999156303E+00 0.  0.
        -13    1    4    4    0    0 -0.14272000440E+02  0.31575965552E+02 -0.23057966595E+02  0.41622259016E+02  0.10500000000E+00 0.  1.
         13    1    4    4    0    0 -0.65390979991E+01  0.14582664667E+02 -0.10568702517E+02  0.19160438651E+02  0.10500000000E+00 0. -1.
    3000001    1    5    5    0    0  0.87193978180E+01 -0.31042565678E+02  0.18021702430E+02  0.36952003202E+02  0.10000000000E+01 0. -1.
        -13    1    6    6    0    0  0.88494562430E+01 -0.12562578851E+02  0.12195736391E+02  0.19618314767E+02  0.10500000000E+00 0. -1.
         13    1    6    6    0    0  0.26796667239E+01 -0.38033244925E+01  0.36748098418E+01  0.59296832394E+01  0.10500000000E+00 0.  1.
</event>
<event>
11    0  0.3396091E-009  0.9118800E+02  0.7816531E-02  0.1126479E+00
         25   -1    0    0    0    0  0.00000000000E+00  0.00000000000E+00  0.99999998245E-14  0.12500000000E+03  0.12500000000E+03 0.  0.
    3000001    1    3    3    0    0 -0.11148126519E+01 -0.52979555180E+01 -0.38472883006E+00  0.55189814451E+01  0.10000000000E+01 0.  1.
    1000022    2    1    0    0    0 -0.80619411900E+01 -0.51487061297E+02 -0.33020259173E+02  0.62499999599E+02  0.10000002865E+02 0.  0.
    3000022    2    3    3    0    0 -0.69471285381E+01 -0.46189105779E+02 -0.32635530343E+02  0.56981018154E+02  0.25000304806E+00 0.  0.
    1000022    2    1    0    0    0  0.80619411900E+01  0.51487061297E+02  0.33020259173E+02  0.62500000401E+02  0.10000007873E+02 0.  0.
    3000022    2    5    5    0    0 -0.88633462839E+00  0.51879215507E+01  0.65747136951E+01  0.84255253037E+01  0.24999476305E+00 0.  0.
        -13    1    4    4    0    0 -0.41006303631E+01 -0.27378750635E+02 -0.19268029589E+02  0.33729499625E+02  0.10500000000E+00 0. -1.
         13    1    4    4    0    0 -0.28464981750E+01 -0.18810355144E+02 -0.13367500754E+02  0.23251518529E+02  0.10500000000E+00 0.  1.
    3000001    1    5    5    0    0  0.89482758184E+01  0.46299139746E+02  0.26445545478E+02  0.54074475097E+02  0.10000000000E+01 0. -1.
        -13    1    6    6    0    0 -0.68626893411E+00  0.38316240328E+01  0.48699081182E+01  0.62353298115E+01  0.10500000000E+00 0. -1.
         13    1    6    6    0    0 -0.20006569428E+00  0.13562975179E+01  0.17048055769E+01  0.21901954922E+01  0.10500000000E+00 0.  1.
</event>
<event>
11    0  0.3396091E-009  0.9118800E+02  0.7816531E-02  0.1126479E+00
         25   -1    0    0    0    0  0.00000000000E+00  0.00000000000E+00  0.99999998245E-14  0.12500000000E+03  0.12500000000E+03 0.  0.
    3000001    1    3    3    0    0  0.12713898922E+02 -0.11762527490E+02  0.87808945118E+01  0.19444906459E+02  0.10000000000E+01 0.  1.
    1000022    2    1    0    0    0  0.40269990473E+02 -0.44235630642E+02  0.15092570284E+02  0.62499991658E+02  0.10000006425E+02 0.  0.
    3000022    2    3    3    0    0  0.27556091550E+02 -0.32473103152E+02  0.63116757727E+01  0.43055085199E+02  0.25000122855E+00 0.  0.
    1000022    2    1    0    0    0 -0.40269990473E+02  0.44235630642E+02 -0.15092570284E+02  0.62500008342E+02  0.10000110703E+02 0.  0.
    3000022    2    5    5    0    0 -0.27652756191E+02  0.36580231077E+02 -0.11607657697E+02  0.47303154748E+02  0.25000272290E+00 0.  0.
        -13    1    4    4    0    0  0.14869260959E+02 -0.17556729130E+02  0.33456400017E+01  0.23249472924E+02  0.10500000000E+00 0. -1.
         13    1    4    4    0    0  0.12686830591E+02 -0.14916374022E+02  0.29660357709E+01  0.19805612276E+02  0.10500000000E+00 0.  1.
    3000001    1    5    5    0    0 -0.12617234281E+02  0.76553995651E+01 -0.34849125876E+01  0.15196853594E+02  0.10000000000E+01 0. -1.
        -13    1    6    6    0    0 -0.90720283618E+01  0.12080528812E+02 -0.38017958639E+01  0.15579009974E+02  0.10500000000E+00 0.  1.
         13    1    6    6    0    0 -0.18580727829E+02  0.24499702265E+02 -0.78058618329E+01  0.31724144775E+02  0.10500000000E+00 0. -1.
</event>
<event>
11    0  0.3396091E-009  0.9118800E+02  0.7816531E-02  0.1126479E+00
         25   -1    0    0    0    0  0.00000000000E+00  0.00000000000E+00  0.99999998245E-14  0.12500000000E+03  0.12500000000E+03 0.  0.
    3000001    1    3    3    0    0  0.15784950372E+01  0.72587945204E+00 -0.10050009973E+01  0.22424483419E+01  0.10000000000E+01 0. -1.
    1000022    2    1    0    0    0  0.19265799683E+02  0.55474908510E+02 -0.18910672992E+02  0.62499999877E+02  0.99999959975E+01 0.  0.
    3000022    2    3    3    0    0  0.17687304646E+02  0.54749029058E+02 -0.17905671994E+02  0.60257551535E+02  0.24999791502E+00 0.  0.
    1000022    2    1    0    0    0 -0.19265799683E+02 -0.55474908510E+02  0.18910672992E+02  0.62500000123E+02  0.99999975398E+01 0.  0.
    3000022    2    5    5    0    0 -0.81644276838E+01 -0.19487522882E+02  0.20636248135E+01  0.21230696556E+02  0.25000281202E+00 0.  0.
        -13    1    4    4    0    0  0.10559922813E+02  0.32865705307E+02 -0.10775588889E+02  0.36163391655E+02  0.10500000000E+00 0. -1.
         13    1    4    4    0    0  0.71273818323E+01  0.21883323751E+02 -0.71300831056E+01  0.24094159879E+02  0.10500000000E+00 0.  1.
    3000001    1    5    5    0    0 -0.11101371999E+02 -0.35987385628E+02  0.16847048178E+02  0.41269303567E+02  0.10000000000E+01 0. -1.
        -13    1    6    6    0    0 -0.26961722993E+01 -0.63827132792E+01  0.62822778998E+00  0.69580219192E+01  0.10500000000E+00 0. -1.
         13    1    6    6    0    0 -0.54682553845E+01 -0.13104809603E+02  0.14353970235E+01  0.14272674637E+02  0.10500000000E+00 0.  1.
</event>
<event>
11    0  0.3396091E-009  0.9118800E+02  0.7816531E-02  0.1126479E+00
         25   -1    0    0    0    0  0.00000000000E+00  0.00000000000E+00  0.99999998245E-14  0.12500000000E+03  0.12500000000E+03 0.  0.
    3000001    1    3    3    0    0 -0.98468446025E+01  0.18673014709E+02  0.13676248934E+01  0.21178107205E+02  0.10000000000E+01 0. -1.
    1000022    2    1    0    0    0 -0.21284000539E+02  0.55833448765E+02  0.15357972890E+02  0.62499998940E+02  0.99999928145E+01 0.  0.
    3000022    2    3    3    0    0 -0.11437155937E+02  0.37160434056E+02  0.13990347996E+02  0.41321891735E+02  0.25000868571E+00 0.  0.
    1000022    2    1    0    0    0  0.21284000539E+02 -0.55833448765E+02 -0.15357972890E+02  0.62500001060E+02  0.10000006065E+02 0.  0.
    3000022    2    5    5    0    0  0.15530928377E+02 -0.38404994252E+02 -0.59525414945E+01  0.41852700856E+02  0.24999782544E+00 0.  0.
        -13    1    4    4    0    0 -0.75602426354E+01  0.24660085368E+02  0.92318432692E+01  0.27395529456E+02  0.10500000000E+00 0. -1.
         13    1    4    4    0    0 -0.38769133012E+01  0.12500348688E+02  0.47585047269E+01  0.13926362278E+02  0.10500000000E+00 0.  1.
    3000001    1    5    5    0    0  0.57530721623E+01 -0.17428454513E+02 -0.94054313950E+01  0.20647300204E+02  0.10000000000E+01 0. -1.
        -13    1    6    6    0    0  0.36507751646E+01 -0.90021641085E+01 -0.13856537891E+01  0.98131635757E+01  0.10500000000E+00 0. -1.
         13    1    6    6    0    0  0.11880153212E+02 -0.29402830144E+02 -0.45668877055E+01  0.32039537280E+02  0.10500000000E+00 0.  1.
</event>
<event>
11    0  0.3396091E-009  0.9118800E+02  0.7816531E-02  0.1126479E+00
         25   -1    0    0    0    0  0.00000000000E+00  0.00000000000E+00  0.99999998245E-14  0.12500000000E+03  0.12500000000E+03 0.  0.
    3000001    1    3    3    0    0 -0.11612196245E+02  0.23816662662E+01 -0.14605039120E+02  0.18836735480E+02  0.10000000000E+01 0.  1.
    1000022    2    1    0    0    0 -0.27790958942E+02  0.17635718340E+02 -0.52181357147E+02  0.62499999654E+02  0.99999981358E+01 0.  0.
    3000022    2    3    3    0    0 -0.16178762697E+02  0.15254052074E+02 -0.37576318028E+02  0.43663264174E+02  0.24998954129E+00 0.  0.
    1000022    2    1    0    0    0  0.27790958942E+02 -0.17635718340E+02  0.52181357147E+02  0.62500000346E+02  0.10000002461E+02 0.  0.
    3000022    2    5    5    0    0  0.87426194673E+01 -0.10195744060E+02  0.15668780335E+02  0.20638792533E+02  0.24997594030E+00 0.  0.
        -13    1    4    4    0    0 -0.82126355500E+01  0.76548910213E+01 -0.18929626995E+02  0.22008783301E+02  0.10500000000E+00 0.  1.
         13    1    4    4    0    0 -0.79661271466E+01  0.75991610529E+01 -0.18646691033E+02  0.21654480873E+02  0.10500000000E+00 0. -1.
    3000001    1    5    5    0    0  0.19048339474E+02 -0.74399742803E+01  0.36512576813E+02  0.41861207813E+02  0.10000000000E+01 0.  1.
        -13    1    6    6    0    0  0.44903685363E+01 -0.51372523182E+01  0.79903958178E+01  0.10507721984E+02  0.10500000000E+00 0. -1.
         13    1    6    6    0    0  0.42522509310E+01 -0.50584917419E+01  0.76783845168E+01  0.10131070549E+02  0.10500000000E+00 0.  1.
</event>
<event>
11    0  0.3396091E-009  0.9118800E+02  0.7816531E-02  0.1126479E+00
         25   -1    0    0    0    0  0.00000000000E+00  0.00000000000E+00  0.99999998245E-14  0.12500000000E+03  0.12500000000E+03 0.  0.
    3000001    1    3    3    0    0  0.24564272636E+01 -0.80524898332E+01 -0.16410037774E+02  0.18470678578E+02  0.10000000000E+01 0. -1.
    1000022    2    1    0    0    0 -0.64275262226E+01 -0.23812266138E+02 -0.56550089059E+02  0.62500003119E+02  0.10000035263E+02 0.  0.
    3000022    2    3    3    0    0 -0.88839534862E+01 -0.15759776304E+02 -0.40140051286E+02  0.44029324540E+02  0.25004706915E+00 0.  0.
    1000022    2    1    0    0    0  0.64275262226E+01  0.23812266138E+02  0.56550089059E+02  0.62499996881E+02  0.99999962809E+01 0.  0.
    3000022    2    5    5    0    0  0.20979801528E+01  0.18634956624E+02  0.32733495433E+02  0.37725420499E+02  0.24999893385E+00 0.  0.
        -13    1    4    4    0    0 -0.39474492590E+01 -0.71373138767E+01 -0.18118045131E+02  0.19869529169E+02  0.10500000000E+00 0.  1.
         13    1    4    4    0    0 -0.49365042272E+01 -0.86224624277E+01 -0.22022006155E+02  0.24159795371E+02  0.10500000000E+00 0. -1.
    3000001    1    5    5    0    0  0.43295460698E+01  0.51773095136E+01  0.23816593626E+02  0.24774576382E+02  0.10000000000E+01 0. -1.
        -13    1    6    6    0    0  0.63149367866E+00  0.55420928294E+01  0.98271992140E+01  0.11300373737E+02  0.10500000000E+00 0. -1.
         13    1    6    6    0    0  0.14664864741E+01  0.13092863795E+02  0.22906296219E+02  0.26425046763E+02  0.10500000000E+00 0.  1.
</event>
<event>
11    0  0.3396091E-009  0.9118800E+02  0.7816531E-02  0.1126479E+00
         25   -1    0    0    0    0  0.00000000000E+00  0.00000000000E+00  0.99999998245E-14  0.12500000000E+03  0.12500000000E+03 0.  0.
    3000001    1    3    3    0    0  0.16721790833E+02  0.12512545513E+02 -0.27361507219E+01  0.21087166824E+02  0.10000000000E+01 0. -1.
    1000022    2    1    0    0    0  0.42631541165E+02  0.40021599189E+02 -0.19674188689E+02  0.62500000945E+02  0.99999856882E+01 0.  0.
    3000022    2    3    3    0    0  0.25909750332E+02  0.27509053675E+02 -0.16938037967E+02  0.41412834120E+02  0.25000668115E+00 0.  0.
    1000022    2    1    0    0    0 -0.42631541165E+02 -0.40021599189E+02  0.19674188689E+02  0.62499999055E+02  0.99999738800E+01 0.  0.
    3000022    2    5    5    0    0 -0.36148938605E+02 -0.28477587369E+02  0.14493782206E+02  0.48247807779E+02  0.24997648094E+00 0.  0.
        -13    1    4    4    0    0  0.76203751701E+01  0.81116838983E+01 -0.50345860707E+01  0.12215875544E+02  0.10500000000E+00 0. -1.
         13    1    4    4    0    0  0.18289375162E+02  0.19397369777E+02 -0.11903451896E+02  0.29196958577E+02  0.10500000000E+00 0.  1.
    3000001    1    5    5    0    0 -0.64826025608E+01 -0.11544011819E+02  0.51804064826E+01  0.14252191276E+02  0.10000000000E+01 0.  1.
        -13    1    6    6    0    0 -0.20241335153E+02 -0.15890900223E+02  0.80523594806E+01  0.26964492891E+02  0.10500000000E+00 0. -1.
         13    1    6    6    0    0 -0.15907603451E+02 -0.12586687146E+02  0.64414227257E+01  0.21283314888E+02  0.10500000000E+00 0.  1.
</event>
<event>
11    0  0.3396091E-009  0.9118800E+02  0.7816531E-02  0.1126479E+00
         25   -1    0    0    0    0  0.00000000000E+00  0.00000000000E+00  0.99999998245E-14  0.12500000000E+03  0.12500000000E+03 0.  0.
    3000001    1    3    3    0    0 -0.14880956401E+02 -0.31552912655E+02  0.10164239952E+02  0.36350253564E+02  0.10000000000E+01 0.  1.
    1000022    2    1    0    0    0 -0.24570427163E+02 -0.50747430930E+02  0.25044808370E+02  0.62499999100E+02  0.99999912117E+01 0.  0.
    3000022    2    3    3    0    0 -0.96894707626E+01 -0.19194518275E+02  0.14880568418E+02  0.26149745535E+02  0.24999931140E+00 0.  0.
    1000022    2    1    0    0    0  0.24570427163E+02  0.50747430930E+02 -0.25044808370E+02  0.62500000900E+02  0.10000002466E+02 0.  0.
    3000022    2    5    5    0    0  0.84663817663E+01  0.28801894566E+02 -0.13417054988E+02  0.32883257441E+02  0.25000912273E+00 0.  0.
        -13    1    4    4    0    0 -0.61968261352E+01 -0.12337115957E+02  0.94927281499E+01  0.16754939481E+02  0.10500000000E+00 0.  1.
         13    1    4    4    0    0 -0.34926446273E+01 -0.68574023174E+01  0.53878402679E+01  0.93948060538E+01  0.10500000000E+00 0. -1.
    3000001    1    5    5    0    0  0.16104045397E+02  0.21945536363E+02 -0.11627753382E+02  0.29616743459E+02  0.10000000000E+01 0.  1.
        -13    1    6    6    0    0  0.32266608227E+01  0.10974446664E+02 -0.50457557635E+01  0.12502819517E+02  0.10500000000E+00 0.  1.
         13    1    6    6    0    0  0.52397209436E+01  0.17827447902E+02 -0.83712992244E+01  0.20380437924E+02  0.10500000000E+00 0. -1.
</event>
<event>
11    0  0.3396091E-009  0.9118800E+02  0.7816531E-02  0.1126479E+00
         25   -1    0    0    0    0  0.00000000000E+00  0.00000000000E+00  0.99999998245E-14  0.12500000000E+03  0.12500000000E+03 0.  0.
    3000001    1    3    3    0    0 -0.98063596904E-01 -0.32931744423E+01  0.82373635982E+00  0.35402197626E+01  0.10000000000E+01 0. -1.
    1000022    2    1    0    0    0  0.12585967526E+02 -0.57135635372E+02 -0.19579645040E+02  0.62500000261E+02  0.10000006240E+02 0.  0.
    3000022    2    3    3    0    0  0.12684031123E+02 -0.53842460930E+02 -0.20403381400E+02  0.58959780498E+02  0.24999877389E+00 0.  0.
    1000022    2    1    0    0    0 -0.12585967526E+02  0.57135635372E+02  0.19579645040E+02  0.62499999739E+02  0.10000002979E+02 0.  0.
    3000022    2    5    5    0    0 -0.67730535882E+01  0.12797693482E+02  0.66830786686E+01  0.15949333969E+02  0.25000038343E+00 0.  0.
        -13    1    4    4    0    0  0.34586645587E+01 -0.14802499402E+02 -0.56344781116E+01  0.16212178067E+02  0.10500000000E+00 0. -1.
         13    1    4    4    0    0  0.92253665640E+01 -0.39039961528E+02 -0.14768903288E+02  0.42747602432E+02  0.10500000000E+00 0.  1.
    3000001    1    5    5    0    0 -0.58129139376E+01  0.44337941890E+02  0.12896566371E+02  0.46550665770E+02  0.10000000000E+01 0.  1.
        -13    1    6    6    0    0 -0.35891391005E+01  0.66776336957E+01  0.34473501046E+01  0.83287429424E+01  0.10500000000E+00 0.  1.
         13    1    6    6    0    0 -0.31839144877E+01  0.61200597866E+01  0.32357285640E+01  0.76205910267E+01  0.10500000000E+00 0. -1.
</event>
<event>
11    0  0.3396091E-009  0.9118800E+02  0.7816531E-02  0.1126479E+00
         25   -1    0    0    0    0  0.00000000000E+00  0.00000000000E+00  0.99999998245E-14  0.12500000000E+03  0.12500000000E+03 0.  0.
    3000001    1    3    3    0    0 -0.40630645594E+02 -0.67997125042E+01  0.11144967089E+02  0.42688356059E+02  0.10000000000E+01 0. -1.
    1000022    2    1    0    0    0 -0.59444513683E+02 -0.12938700305E+02  0.10256205197E+02  0.62499999091E+02  0.99999984398E+01 0.  0.
    3000022    2    3    3    0    0 -0.18813868088E+02 -0.61389878011E+01 -0.88876189272E+00  0.19811643032E+02  0.24999656744E+00 0.  0.
    1000022    2    1    0    0    0  0.59444513683E+02  0.12938700305E+02 -0.10256205197E+02  0.62500000909E+02  0.10000009803E+02 0.  0.
    3000022    2    5    5    0    0  0.50559546205E+02  0.14345415951E+02 -0.95974069549E+01  0.53425007184E+02  0.25000218126E+00 0.  0.
        -13    1    4    4    0    0 -0.14184488895E+02 -0.46459563710E+01 -0.65343265298E+00  0.14940637036E+02  0.10500000000E+00 0.  1.
         13    1    4    4    0    0 -0.46293791936E+01 -0.14930314301E+01 -0.23532923974E+00  0.48710059968E+01  0.10500000000E+00 0. -1.
    3000001    1    5    5    0    0  0.88849674776E+01 -0.14067156459E+01 -0.65879824178E+00  0.90749937251E+01  0.10000000000E+01 0.  1.
        -13    1    6    6    0    0  0.17311982462E+02  0.48874612069E+01 -0.33357546576E+01  0.18295636036E+02  0.10500000000E+00 0. -1.
         13    1    6    6    0    0  0.33247563742E+02  0.94579547443E+01 -0.62616522973E+01  0.35129371148E+02  0.10500000000E+00 0.  1.
</event>
<event>
11    0  0.3396091E-009  0.9118800E+02  0.7816531E-02  0.1126479E+00
         25   -1    0    0    0    0  0.00000000000E+00  0.00000000000E+00  0.99999998245E-14  0.12500000000E+03  0.12500000000E+03 0.  0.
    3000001    1    3    3    0    0  0.30234504852E+02  0.16424350295E+02  0.43736550424E+02  0.55657617711E+02  0.10000000000E+01 0. -1.
    1000022    2    1    0    0    0  0.33411745934E+02  0.21341155164E+02  0.47270080907E+02  0.62499997722E+02  0.99999748065E+01 0.  0.
    3000022    2    3    3    0    0  0.31772410823E+01  0.49168048687E+01  0.35335304829E+01  0.68423800105E+01  0.24999104592E+00 0.  0.
    1000022    2    1    0    0    0 -0.33411745934E+02 -0.21341155164E+02 -0.47270080907E+02  0.62500002278E+02  0.10000003286E+02 0.  0.
    3000022    2    5    5    0    0 -0.13028573241E+02 -0.30714448396E+01 -0.13423092570E+02  0.18958359408E+02  0.24996637670E+00 0.  0.
        -13    1    4    4    0    0  0.12992051694E+01  0.19592413090E+01  0.13532683333E+01  0.27145756135E+01  0.10500000000E+00 0.  1.
         13    1    4    4    0    0  0.18780359129E+01  0.29575635596E+01  0.21802621496E+01  0.41278043970E+01  0.10500000000E+00 0. -1.
    3000001    1    5    5    0    0 -0.20383172693E+02 -0.18269710324E+02 -0.33846988337E+02  0.43541642870E+02  0.10000000000E+01 0. -1.
        -13    1    6    6    0    0 -0.75478843558E+01 -0.17126955411E+01 -0.77607406137E+01  0.10961022039E+02  0.10500000000E+00 0. -1.
         13    1    6    6    0    0 -0.54806888854E+01 -0.13587492986E+01 -0.56623519566E+01  0.79973373691E+01  0.10500000000E+00 0.  1.
</event>
<event>
11    0  0.3396091E-009  0.9118800E+02  0.7816531E-02  0.1126479E+00
         25   -1    0    0    0    0  0.00000000000E+00  0.00000000000E+00  0.99999998245E-14  0.12500000000E+03  0.12500000000E+03 0.  0.
    3000001    1    3    3    0    0 -0.78502396166E+01  0.67259363354E+01  0.11866757025E+01  0.10453357396E+02  0.10000000000E+01 0.  1.
    1000022    2    1    0    0    0 -0.47491875424E+02  0.36714911549E+02 -0.14240331276E+02  0.62499999603E+02  0.99999977091E+01 0.  0.
    3000022    2    3    3    0    0 -0.39641635807E+02  0.29988975214E+02 -0.15427006979E+02  0.52046642207E+02  0.24999370491E+00 0.  0.
    1000022    2    1    0    0    0  0.47491875424E+02 -0.36714911549E+02  0.14240331276E+02  0.62500000397E+02  0.10000002667E+02 0.  0.
    3000022    2    5    5    0    0  0.33559510046E+02 -0.23712477312E+02  0.53221231082E+01  0.41435610112E+02  0.24999238469E+00 0.  0.
        -13    1    4    4    0    0 -0.20934790827E+02  0.15902626535E+02 -0.81145221004E+01  0.27513914509E+02  0.10500000000E+00 0.  1.
         13    1    4    4    0    0 -0.18706844980E+02  0.14086348679E+02 -0.73124848786E+01  0.24532727698E+02  0.10500000000E+00 0. -1.
    3000001    1    5    5    0    0  0.13932365378E+02 -0.13002434237E+02  0.89182081683E+01  0.21064390284E+02  0.10000000000E+01 0.  1.
        -13    1    6    6    0    0  0.11572291759E+02 -0.81662902494E+01  0.17790714008E+01  0.14275235656E+02  0.10500000000E+00 0. -1.
         13    1    6    6    0    0  0.21987218287E+02 -0.15546187063E+02  0.35430517074E+01  0.27160374456E+02  0.10500000000E+00 0.  1.
</event>
<event>
11    0  0.3396091E-009  0.9118800E+02  0.7816531E-02  0.1126479E+00
         25   -1    0    0    0    0  0.00000000000E+00  0.00000000000E+00  0.99999998245E-14  0.12500000000E+03  0.12500000000E+03 0.  0.
    3000001    1    3    3    0    0 -0.45129093984E+02 -0.28809249189E+02  0.91210298057E+01  0.54321277114E+02  0.10000000000E+01 0. -1.
    1000022    2    1    0    0    0 -0.51865729796E+02 -0.32737339361E+02  0.66681419282E+01  0.62499988180E+02  0.99998544954E+01 0.  0.
    3000022    2    3    3    0    0 -0.67366358129E+01 -0.39280901714E+01 -0.24528878774E+01  0.81787110651E+01  0.25000255344E+00 0.  0.
    1000022    2    1    0    0    0  0.51865729796E+02  0.32737339361E+02 -0.66681419282E+01  0.62500011820E+02  0.10000002252E+02 0.  0.
    3000022    2    5    5    0    0  0.50558031673E+02  0.30247561245E+02 -0.51211465869E+01  0.59138127820E+02  0.24998352133E+00 0.  0.
        -13    1    4    4    0    0 -0.16739893204E+01 -0.96320309102E+00 -0.58465975427E+00  0.20206069552E+01  0.10500000000E+00 0.  1.
         13    1    4    4    0    0 -0.50626464926E+01 -0.29648870804E+01 -0.18682281231E+01  0.61581041099E+01  0.10500000000E+00 0. -1.
    3000001    1    5    5    0    0  0.13076981236E+01  0.24897781155E+01 -0.15469953414E+01  0.33618840005E+01  0.10000000000E+01 0.  1.
        -13    1    6    6    0    0  0.19047214576E+02  0.11445495106E+02 -0.18888641120E+01  0.22301896197E+02  0.10500000000E+00 0. -1.
         13    1    6    6    0    0  0.31510817097E+02  0.18802066139E+02 -0.32322824749E+01  0.36836231623E+02  0.10500000000E+00 0.  1.
</event>
<event>
11    0  0.3396091E-009  0.9118800E+02  0.7816531E-02  0.1126479E+00
         25   -1    0    0    0    0  0.00000000000E+00  0.00000000000E+00  0.99999998245E-14  0.12500000000E+03  0.12500000000E+03 0.  0.
    3000001    1    3    3    0    0 -0.43552500047E+02 -0.96292739030E+00  0.29370038432E+02  0.52548517076E+02  0.10000000000E+01 0. -1.
    1000022    2    1    0    0    0 -0.49176486052E+02  0.14002420360E+01  0.37228514940E+02  0.62499996606E+02  0.99999896470E+01 0.  0.
    3000022    2    3    3    0    0 -0.56239860053E+01  0.23631694262E+01  0.78584765089E+01  0.99514795298E+01  0.25000693148E+00 0.  0.
    1000022    2    1    0    0    0  0.49176486052E+02 -0.14002420360E+01 -0.37228514940E+02  0.62500003394E+02  0.10000032069E+02 0.  0.
    3000022    2    5    5    0    0  0.28302851297E+02  0.40804988580E+01 -0.21450762140E+02  0.35747720649E+02  0.24994547387E+00 0.  0.
        -13    1    4    4    0    0 -0.22590169325E+01  0.10180442225E+01  0.32002756651E+01  0.40487480625E+01  0.10500000000E+00 0. -1.
         13    1    4    4    0    0 -0.33649690728E+01  0.13451252037E+01  0.46582008438E+01  0.59027314673E+01  0.10500000000E+00 0.  1.
    3000001    1    5    5    0    0  0.20873634755E+02 -0.54807408939E+01 -0.15777752801E+02  0.26752282745E+02  0.10000000000E+01 0. -1.
        -13    1    6    6    0    0  0.20489933988E+02  0.29155829934E+01 -0.15529350492E+02  0.25874886874E+02  0.10500000000E+00 0. -1.
         13    1    6    6    0    0  0.78129173086E+01  0.11649158645E+01 -0.59214116479E+01  0.98728337749E+01  0.10500000000E+00 0.  1.
</event>
<event>
11    0  0.3396091E-009  0.9118800E+02  0.7816531E-02  0.1126479E+00
         25   -1    0    0    0    0  0.00000000000E+00  0.00000000000E+00  0.99999998245E-14  0.12500000000E+03  0.12500000000E+03 0.  0.
    3000001    1    3    3    0    0 -0.15742360364E+02 -0.84176656967E+01 -0.27897193559E+01  0.18095898422E+02  0.10000000000E+01 0.  1.
    1000022    2    1    0    0    0 -0.54178976543E+02 -0.19783677708E+02 -0.21897362955E+02  0.62500000017E+02  0.10000004746E+02 0.  0.
    3000022    2    3    3    0    0 -0.38436616179E+02 -0.11366012011E+02 -0.19107643599E+02  0.44404101596E+02  0.25000455856E+00 0.  0.
    1000022    2    1    0    0    0  0.54178976543E+02  0.19783677708E+02  0.21897362955E+02  0.62499999983E+02  0.10000004528E+02 0.  0.
    3000022    2    5    5    0    0  0.35418949079E+02  0.17428553752E+02  0.12838786688E+02  0.41510882724E+02  0.25000241148E+00 0.  0.
        -13    1    4    4    0    0 -0.15823419017E+02 -0.47141674232E+01 -0.79314873708E+01  0.18317300041E+02  0.10500000000E+00 0. -1.
         13    1    4    4    0    0 -0.22613197162E+02 -0.66518445880E+01 -0.11176156228E+02  0.26086801555E+02  0.10500000000E+00 0.  1.
    3000001    1    5    5    0    0  0.18760027464E+02  0.23551239562E+01  0.90585762668E+01  0.20989117258E+02  0.10000000000E+01 0. -1.
        -13    1    6    6    0    0  0.19079176437E+02  0.93328689585E+01  0.68604260326E+01  0.22320257321E+02  0.10500000000E+00 0. -1.
         13    1    6    6    0    0  0.16339772642E+02  0.80956847932E+01  0.59783606557E+01  0.19190625404E+02  0.10500000000E+00 0.  1.
</event>
<event>
11    0  0.3396091E-009  0.9118800E+02  0.7816531E-02  0.1126479E+00
         25   -1    0    0    0    0  0.00000000000E+00  0.00000000000E+00  0.99999998245E-14  0.12500000000E+03  0.12500000000E+03 0.  0.
    3000001    1    3    3    0    0 -0.33921505104E+01  0.13003418656E+02 -0.63456587156E+01  0.14895065168E+02  0.10000000000E+01 0.  1.
    1000022    2    1    0    0    0 -0.25454539209E+02  0.44024370111E+02 -0.34930950187E+02  0.62499999954E+02  0.99999991674E+01 0.  0.
    3000022    2    3    3    0    0 -0.22062388698E+02  0.31020951455E+02 -0.28585291471E+02  0.47604934786E+02  0.25000652871E+00 0.  0.
    1000022    2    1    0    0    0  0.25454539209E+02 -0.44024370111E+02  0.34930950187E+02  0.62500000046E+02  0.99999997392E+01 0.  0.
    3000022    2    5    5    0    0  0.23608946377E+02 -0.32854618811E+02  0.26953464525E+02  0.48614401950E+02  0.25000161715E+00 0.  0.
        -13    1    4    4    0    0 -0.14928714737E+02  0.21036087333E+02 -0.19425102756E+02  0.32291316728E+02  0.10500000000E+00 0.  1.
         13    1    4    4    0    0 -0.71336739617E+01  0.99848641224E+01 -0.91601887150E+01  0.15313618058E+02  0.10500000000E+00 0. -1.
    3000001    1    5    5    0    0  0.18455928323E+01 -0.11169751299E+02  0.79774856614E+01  0.13885598095E+02  0.10000000000E+01 0.  1.
        -13    1    6    6    0    0  0.87388618083E+01 -0.12216418320E+02  0.10067239726E+02  0.18082282018E+02  0.10500000000E+00 0. -1.
         13    1    6    6    0    0  0.14870084568E+02 -0.20638200492E+02  0.16886224799E+02  0.30532119933E+02  0.10500000000E+00 0.  1.
</event>
<event>
11    0  0.3396091E-009  0.9118800E+02  0.7816531E-02  0.1126479E+00
         25   -1    0    0    0    0  0.00000000000E+00  0.00000000000E+00  0.99999998245E-14  0.12500000000E+03  0.12500000000E+03 0.  0.
    3000001    1    3    3    0    0 -0.33191916664E+01 -0.14392753516E+02 -0.56653064007E+02  0.58555427148E+02  0.10000000000E+01 0.  1.
    1000022    2    1    0    0    0 -0.53807982465E+01 -0.16604137948E+02 -0.59174315184E+02  0.62499999429E+02  0.99999982191E+01 0.  0.
    3000022    2    3    3    0    0 -0.20616065801E+01 -0.22113844315E+01 -0.25212511767E+01  0.39445722808E+01  0.25000037534E+00 0.  0.
    1000022    2    1    0    0    0  0.53807982465E+01  0.16604137948E+02  0.59174315184E+02  0.62500000571E+02  0.10000005358E+02 0.  0.
    3000022    2    5    5    0    0  0.77617781179E+01  0.13657122114E+02  0.40975474058E+02  0.43884099148E+02  0.24999955230E+00 0.  0.
        -13    1    4    4    0    0 -0.12348243636E+01 -0.13379767369E+01 -0.15974459289E+01  0.24244239426E+01  0.10500000000E+00 0. -1.
         13    1    4    4    0    0 -0.82678221654E+00 -0.87340769461E+00 -0.92380524773E+00  0.15201483383E+01  0.10500000000E+00 0.  1.
    3000001    1    5    5    0    0 -0.23809798713E+01  0.29470158341E+01  0.18198841126E+02  0.18615901423E+02  0.10000000000E+01 0.  1.
        -13    1    6    6    0    0  0.21114337500E+01  0.36446273144E+01  0.11003423380E+02  0.11782521454E+02  0.10500000000E+00 0. -1.
         13    1    6    6    0    0  0.56503443678E+01  0.10012494799E+02  0.29972050678E+02  0.32101577694E+02  0.10500000000E+00 0.  1.
</event>
<event>
11    0  0.3396091E-009  0.9118800E+02  0.7816531E-02  0.1126479E+00
         25   -1    0    0    0    0  0.00000000000E+00  0.00000000000E+00  0.99999998245E-14  0.12500000000E+03  0.12500000000E+03 0.  0.
    3000001    1    3    3    0    0  0.18117453459E+02  0.33490692386E+02  0.14754930401E+02  0.40848213761E+02  0.10000000000E+01 0. -1.
    1000022    2    1    0    0    0  0.32306750851E+02  0.49654213675E+02  0.17233190635E+02  0.62500000198E+02  0.10000003952E+02 0.  0.
    3000022    2    3    3    0    0  0.14189297392E+02  0.16163521290E+02  0.24782602340E+01  0.21651786437E+02  0.25000234767E+00 0.  0.
    1000022    2    1    0    0    0 -0.32306750851E+02 -0.49654213675E+02 -0.17233190635E+02  0.62499999802E+02  0.10000001477E+02 0.  0.
    3000022    2    5    5    0    0 -0.20763905269E+01 -0.91550084275E+01 -0.42734452326E+01  0.10317480584E+02  0.24998904535E+00 0.  0.
        -13    1    4    4    0    0  0.10565237603E+02  0.11989726204E+02  0.18442824857E+01  0.16086956920E+02  0.10500000000E+00 0.  1.
         13    1    4    4    0    0  0.36240597889E+01  0.41737950860E+01  0.63397774829E+00  0.55648295175E+01  0.10500000000E+00 0. -1.
    3000001    1    5    5    0    0 -0.30230360324E+02 -0.40499205248E+02 -0.12959745402E+02  0.52182519218E+02  0.10000000000E+01 0. -1.
        -13    1    6    6    0    0 -0.60326751860E+00 -0.25832718443E+01 -0.12487566487E+01  0.29338785402E+01  0.10500000000E+00 0.  1.
         13    1    6    6    0    0 -0.14731230083E+01 -0.65717365832E+01 -0.30246885838E+01  0.73836020441E+01  0.10500000000E+00 0. -1.
</event>
<event>
11    0  0.3396091E-009  0.9118800E+02  0.7816531E-02  0.1126479E+00
         25   -1    0    0    0    0  0.00000000000E+00  0.00000000000E+00  0.99999998245E-14  0.12500000000E+03  0.12500000000E+03 0.  0.
    3000001    1    3    3    0    0 -0.18306502505E+01 -0.53977543855E+01  0.46499900968E+01  0.74235733071E+01  0.10000000000E+01 0. -1.
    1000022    2    1    0    0    0 -0.20824090211E+02 -0.23979218033E+02  0.52892385402E+02  0.62500000224E+02  0.99999981938E+01 0.  0.
    3000022    2    3    3    0    0 -0.18993439960E+02 -0.18581463647E+02  0.48242395305E+02  0.55076426917E+02  0.25008860713E+00 0.  0.
    1000022    2    1    0    0    0  0.20824090211E+02  0.23979218033E+02 -0.52892385402E+02  0.62499999776E+02  0.99999953971E+01 0.  0.
    3000022    2    5    5    0    0  0.26466005245E+01  0.35792183031E+01 -0.23594358552E+01  0.50442767351E+01  0.24998445724E+00 0.  0.
        -13    1    4    4    0    0 -0.13272639762E+02 -0.13016512095E+02  0.33834309776E+02  0.38605234054E+02  0.10500000000E+00 0. -1.
         13    1    4    4    0    0 -0.57208001986E+01 -0.55649515526E+01  0.14408085529E+02  0.16471192862E+02  0.10500000000E+00 0.  1.
    3000001    1    5    5    0    0  0.18177489686E+02  0.20399999730E+02 -0.50532949547E+02  0.57455723041E+02  0.10000000000E+01 0. -1.
        -13    1    6    6    0    0  0.75806103408E+00  0.10924848462E+01 -0.68145631645E+00  0.14978609354E+01  0.10500000000E+00 0.  1.
         13    1    6    6    0    0  0.18885394904E+01  0.24867334568E+01 -0.16779795387E+01  0.35464157997E+01  0.10500000000E+00 0. -1.
</event>
<event>
11    0  0.3396091E-009  0.9118800E+02  0.7816531E-02  0.1126479E+00
         25   -1    0    0    0    0  0.00000000000E+00  0.00000000000E+00  0.99999998245E-14  0.12500000000E+03  0.12500000000E+03 0.  0.
    3000001    1    3    3    0    0  0.86168532657E+01 -0.20450277192E+02 -0.81493661743E+01  0.23661702527E+02  0.10000000000E+01 0.  1.
    1000022    2    1    0    0    0  0.31332264412E+02 -0.51642860641E+02 -0.12552058994E+02  0.62500000298E+02  0.10000000195E+02 0.  0.
    3000022    2    3    3    0    0  0.22715411147E+02 -0.31192583449E+02 -0.44026928198E+01  0.38838297771E+02  0.25000783240E+00 0.  0.
    1000022    2    1    0    0    0 -0.31332264412E+02  0.51642860641E+02  0.12552058994E+02  0.62499999702E+02  0.99999964717E+01 0.  0.
    3000022    2    5    5    0    0 -0.18426498800E+02  0.34213740953E+02  0.12392791080E+02  0.40789210555E+02  0.24999783149E+00 0.  0.
        -13    1    4    4    0    0  0.12095340667E+02 -0.16569240540E+02 -0.22770867543E+01  0.20640570414E+02  0.10500000000E+00 0. -1.
         13    1    4    4    0    0  0.10620070480E+02 -0.14623342909E+02 -0.21256060655E+01  0.18197727357E+02  0.10500000000E+00 0.  1.
    3000001    1    5    5    0    0 -0.12905765612E+02  0.17429119688E+02  0.15926791376E+00  0.21710789147E+02  0.10000000000E+01 0.  1.
        -13    1    6    6    0    0 -0.10954870096E+02  0.20370317779E+02  0.74410119762E+01  0.24296886826E+02  0.10500000000E+00 0. -1.
         13    1    6    6    0    0 -0.74716287045E+01  0.13843423174E+02  0.49517791042E+01  0.16492323728E+02  0.10500000000E+00 0.  1.
</event>
<event>
11    0  0.3396091E-009  0.9118800E+02  0.7816531E-02  0.1126479E+00
         25   -1    0    0    0    0  0.00000000000E+00  0.00000000000E+00  0.99999998245E-14  0.12500000000E+03  0.12500000000E+03 0.  0.
    3000001    1    3    3    0    0 -0.23729836724E+02 -0.20242740333E+02  0.14374741061E+02  0.34358505027E+02  0.10000000000E+01 0.  1.
    1000022    2    1    0    0    0 -0.40533731947E+02 -0.32327155509E+02  0.33439820498E+02  0.62500000044E+02  0.10000000080E+02 0.  0.
    3000022    2    3    3    0    0 -0.16803895223E+02 -0.12084415176E+02  0.19065079437E+02  0.28141495016E+02  0.25000596242E+00 0.  0.
    1000022    2    1    0    0    0  0.40533731947E+02  0.32327155509E+02 -0.33439820498E+02  0.62499999956E+02  0.99999995355E+01 0.  0.
    3000022    2    5    5    0    0  0.76553535961E+01  0.11302891398E+02 -0.69338299193E+01  0.15313402484E+02  0.25001132411E+00 0.  0.
        -13    1    4    4    0    0 -0.11014559343E+02 -0.78556105693E+01  0.12484761321E+02  0.18409547120E+02  0.10500000000E+00 0. -1.
         13    1    4    4    0    0 -0.57893358807E+01 -0.42288046068E+01  0.65803181161E+01  0.97319478960E+01  0.10500000000E+00 0.  1.
    3000001    1    5    5    0    0  0.32878378351E+02  0.21024264111E+02 -0.26505990579E+02  0.47186597472E+02  0.10000000000E+01 0.  1.
        -13    1    6    6    0    0  0.25735506811E+01  0.38939544453E+01 -0.23532477820E+01  0.52282735634E+01  0.10500000000E+00 0.  1.
         13    1    6    6    0    0  0.50818029150E+01  0.74089369525E+01 -0.45805821373E+01  0.10085128921E+02  0.10500000000E+00 0. -1.
</event>
<event>
11    0  0.3396091E-009  0.9118800E+02  0.7816531E-02  0.1126479E+00
         25   -1    0    0    0    0  0.00000000000E+00  0.00000000000E+00  0.99999998245E-14  0.12500000000E+03  0.12500000000E+03 0.  0.
    3000001    1    3    3    0    0  0.38976954351E+02 -0.40535182587E+02  0.26165548164E+02  0.62031765319E+02  0.10000000000E+01 0.  1.
    1000022    2    1    0    0    0  0.38930913288E+02 -0.40170434669E+02  0.26018657438E+02  0.62499996550E+02  0.99999601451E+01 0.  0.
    3000022    2    3    3    0    0 -0.46041063695E-01  0.36474791776E+00 -0.14689072577E+00  0.46823123075E+00  0.25000555409E+00 0.  0.
    1000022    2    1    0    0    0 -0.38930913288E+02  0.40170434669E+02 -0.26018657438E+02  0.62500003450E+02  0.10000003272E+02 0.  0.
    3000022    2    5    5    0    0 -0.10234231966E+02  0.17361380929E+02 -0.94056001199E+01  0.22241512111E+02  0.24999138118E+00 0.  0.
        -13    1    4    4    0    0  0.32032064164E-01  0.22740204063E+00 -0.59789610165E-01  0.25949477586E+00  0.10500000000E+00 0.  1.
         13    1    4    4    0    0 -0.78073127859E-01  0.13734587713E+00 -0.87101115609E-01  0.20873645489E+00  0.10500000000E+00 0. -1.
    3000001    1    5    5    0    0 -0.28696681322E+02  0.22809053741E+02 -0.16613057318E+02  0.40258491339E+02  0.10000000000E+01 0.  1.
        -13    1    6    6    0    0 -0.73009685713E+01  0.12463989908E+02 -0.67318915147E+01  0.15936893514E+02  0.10500000000E+00 0. -1.
         13    1    6    6    0    0 -0.29332633946E+01  0.48973910210E+01 -0.26737086051E+01  0.63046185975E+01  0.10500000000E+00 0.  1.
</event>
<event>
11    0  0.3396091E-009  0.9118800E+02  0.7816531E-02  0.1126479E+00
         25   -1    0    0    0    0  0.00000000000E+00  0.00000000000E+00  0.99999998245E-14  0.12500000000E+03  0.12500000000E+03 0.  0.
    3000001    1    3    3    0    0  0.17219871036E+02  0.63188876045E+01 -0.36166916190E+01  0.18722520058E+02  0.10000000000E+01 0.  1.
    1000022    2    1    0    0    0  0.57870925900E+02  0.21178122757E+02  0.29483870419E+01  0.62500001549E+02  0.10000012973E+02 0.  0.
    3000022    2    3    3    0    0  0.40651054863E+02  0.14859235153E+02  0.65650786609E+01  0.43777481491E+02  0.24999402680E+00 0.  0.
    1000022    2    1    0    0    0 -0.57870925900E+02 -0.21178122757E+02 -0.29483870419E+01  0.62499998451E+02  0.99999936100E+01 0.  0.
    3000022    2    5    5    0    0 -0.27078293004E+02 -0.11361635879E+02  0.33516715331E+01  0.29557011438E+02  0.25000244885E+00 0.  0.
        -13    1    4    4    0    0  0.15837260356E+02  0.57254600396E+01  0.25378707046E+01  0.17030899006E+02  0.10500000000E+00 0.  1.
         13    1    4    4    0    0  0.24813794508E+02  0.91337751130E+01  0.40272079563E+01  0.26746582485E+02  0.10500000000E+00 0. -1.
    3000001    1    5    5    0    0 -0.30792632896E+02 -0.98164868781E+01 -0.63000585749E+01  0.32942987013E+02  0.10000000000E+01 0.  1.
        -13    1    6    6    0    0 -0.17433280945E+02 -0.72858340578E+01  0.22078927426E+01  0.19023366626E+02  0.10500000000E+00 0. -1.
         13    1    6    6    0    0 -0.96450120582E+01 -0.40758018211E+01  0.11437787905E+01  0.10533644811E+02  0.10500000000E+00 0.  1.
</event>
<event>
11    0  0.3396091E-009  0.9118800E+02  0.7816531E-02  0.1126479E+00
         25   -1    0    0    0    0  0.00000000000E+00  0.00000000000E+00  0.99999998245E-14  0.12500000000E+03  0.12500000000E+03 0.  0.
    3000001    1    3    3    0    0  0.14289547254E+01  0.22765879360E+02 -0.11896017773E+02  0.25745726121E+02  0.10000000000E+01 0.  1.
    1000022    2    1    0    0    0  0.14680013931E+02  0.54301262199E+02 -0.25340092254E+02  0.62499999029E+02  0.99999858921E+01 0.  0.
    3000022    2    3    3    0    0  0.13251059205E+02  0.31535382838E+02 -0.13444074481E+02  0.36754272908E+02  0.24999504254E+00 0.  0.
    1000022    2    1    0    0    0 -0.14680013931E+02 -0.54301262199E+02  0.25340092254E+02  0.62500000971E+02  0.99999980267E+01 0.  0.
    3000022    2    5    5    0    0 -0.85361793274E+01 -0.42812412372E+02  0.16248762003E+02  0.46581688884E+02  0.24992399447E+00 0.  0.
        -13    1    4    4    0    0  0.84430654788E+01  0.20096832254E+02 -0.86301232992E+01  0.23444787789E+02  0.10500000000E+00 0.  1.
         13    1    4    4    0    0  0.48079937264E+01  0.11438550584E+02 -0.48139511820E+01  0.13309485119E+02  0.10500000000E+00 0. -1.
    3000001    1    5    5    0    0 -0.61438346032E+01 -0.11488849827E+02  0.90913302510E+01  0.15918312087E+02  0.10000000000E+01 0. -1.
        -13    1    6    6    0    0 -0.30189659105E+01 -0.14939525170E+02  0.56302304992E+01  0.16248510330E+02  0.10500000000E+00 0. -1.
         13    1    6    6    0    0 -0.55172134169E+01 -0.27872887202E+02  0.10618531504E+02  0.30333178553E+02  0.10500000000E+00 0.  1.
</event>
<event>
11    0  0.3396091E-009  0.9118800E+02  0.7816531E-02  0.1126479E+00
         25   -1    0    0    0    0  0.00000000000E+00  0.00000000000E+00  0.99999998245E-14  0.12500000000E+03  0.12500000000E+03 0.  0.
    3000001    1    3    3    0    0  0.21827948436E+02  0.13607667782E+02  0.33104103862E+02  0.41934587728E+02  0.10000000000E+01 0. -1.
    1000022    2    1    0    0    0  0.28827409235E+02  0.15251208896E+02  0.52370135769E+02  0.62499999617E+02  0.99999967854E+01 0.  0.
    3000022    2    3    3    0    0  0.69994607985E+01  0.16435411131E+01  0.19266031907E+02  0.20565411889E+02  0.25000373320E+00 0.  0.
    1000022    2    1    0    0    0 -0.28827409235E+02 -0.15251208896E+02 -0.52370135769E+02  0.62500000383E+02  0.10000001577E+02 0.  0.
    3000022    2    5    5    0    0 -0.68901552538E+01  0.72652537442E+00 -0.11562681338E+02  0.13481846178E+02  0.24999618409E+00 0.  0.
        -13    1    4    4    0    0  0.37615690623E+01  0.94142714219E+00  0.10491392115E+02  0.11185527273E+02  0.10500000000E+00 0. -1.
         13    1    4    4    0    0  0.32378917361E+01  0.70211397091E+00  0.87746397920E+01  0.93798846156E+01  0.10500000000E+00 0.  1.
    3000001    1    5    5    0    0 -0.21937253981E+02 -0.15977734270E+02 -0.40807454430E+02  0.49018154206E+02  0.10000000000E+01 0.  1.
        -13    1    6    6    0    0 -0.28071941960E+01  0.23216215874E+00 -0.47103701468E+01  0.54893397091E+01  0.10500000000E+00 0.  1.
         13    1    6    6    0    0 -0.40829610579E+01  0.49436321569E+00 -0.68523111914E+01  0.79925064687E+01  0.10500000000E+00 0. -1.
</event>
<event>
11    0  0.3396091E-009  0.9118800E+02  0.7816531E-02  0.1126479E+00
         25   -1    0    0    0    0  0.00000000000E+00  0.00000000000E+00  0.99999998245E-14  0.12500000000E+03  0.12500000000E+03 0.  0.
    3000001    1    3    3    0    0  0.82852183886E+01  0.25355941932E+01  0.10848779570E+02  0.13920132895E+02  0.10000000000E+01 0. -1.
    1000022    2    1    0    0    0  0.38004378741E+02  0.27455712960E+02  0.40101133155E+02  0.62500000136E+02  0.10000007957E+02 0.  0.
    3000022    2    3    3    0    0  0.29719160352E+02  0.24920118767E+02  0.29252353585E+02  0.48579867241E+02  0.24999909998E+00 0.  0.
    1000022    2    1    0    0    0 -0.38004378741E+02 -0.27455712960E+02 -0.40101133155E+02  0.62499999864E+02  0.10000006254E+02 0.  0.
    3000022    2    5    5    0    0 -0.29062088293E+01 -0.52949003352E+01 -0.27116325610E+01  0.66255164033E+01  0.24999429156E+00 0.  0.
        -13    1    4    4    0    0  0.91396808371E+01  0.76148140561E+01  0.89359706902E+01  0.14878903054E+02  0.10500000000E+00 0. -1.
         13    1    4    4    0    0  0.20579479515E+02  0.17305304711E+02  0.20316382895E+02  0.33700964188E+02  0.10500000000E+00 0.  1.
    3000001    1    5    5    0    0 -0.35098169911E+02 -0.22160812625E+02 -0.37389500594E+02  0.55874483460E+02  0.10000000000E+01 0.  1.
        -13    1    6    6    0    0 -0.69467188858E+00 -0.12358710188E+01 -0.63573616905E+00  0.15572834310E+01  0.10500000000E+00 0.  1.
         13    1    6    6    0    0 -0.22115369407E+01 -0.40590293164E+01 -0.20758963920E+01  0.50682329723E+01  0.10500000000E+00 0. -1.
</event>
<event>
11    0  0.3396091E-009  0.9118800E+02  0.7816531E-02  0.1126479E+00
         25   -1    0    0    0    0  0.00000000000E+00  0.00000000000E+00  0.99999998245E-14  0.12500000000E+03  0.12500000000E+03 0.  0.
    3000001    1    3    3    0    0 -0.36205260099E+02  0.88797303890E+01 -0.32121332777E+02  0.49218395850E+02  0.10000000000E+01 0. -1.
    1000022    2    1    0    0    0 -0.47574798976E+02  0.13983796005E+02 -0.36706158413E+02  0.62499998363E+02  0.99999840818E+01 0.  0.
    3000022    2    3    3    0    0 -0.11369538876E+02  0.51040656162E+01 -0.45848256356E+01  0.13281602513E+02  0.24987823216E+00 0.  0.
    1000022    2    1    0    0    0  0.47574798976E+02 -0.13983796005E+02  0.36706158413E+02  0.62500001637E+02  0.10000004547E+02 0.  0.
    3000022    2    5    5    0    0  0.84023437347E+01 -0.16127803253E+01  0.21892240700E+01  0.88349102370E+01  0.24999250840E+00 0.  0.
        -13    1    4    4    0    0 -0.85828542845E+01  0.38457007625E+01 -0.34358647382E+01  0.10013540509E+02  0.10500000000E+00 0.  1.
         13    1    4    4    0    0 -0.27866845916E+01  0.12583648538E+01 -0.11489608974E+01  0.32680620040E+01  0.10500000000E+00 0. -1.
    3000001    1    5    5    0    0  0.39172455241E+02 -0.12371015680E+02  0.34516934343E+02  0.53665091400E+02  0.10000000000E+01 0. -1.
        -13    1    6    6    0    0  0.59708355763E+01 -0.11832458489E+01  0.15346130298E+01  0.62782967730E+01  0.10500000000E+00 0. -1.
         13    1    6    6    0    0  0.24315081584E+01 -0.42953447639E+00  0.65461104018E+00  0.25566134640E+01  0.10500000000E+00 0.  1.
</event>
<event>
11    0  0.3396091E-009  0.9118800E+02  0.7816531E-02  0.1126479E+00
         25   -1    0    0    0    0  0.00000000000E+00  0.00000000000E+00  0.99999998245E-14  0.12500000000E+03  0.12500000000E+03 0.  0.
    3000001    1    3    3    0    0 -0.16267201843E+02 -0.96343663805E+01 -0.51665253012E+02  0.55024914722E+02  0.10000000000E+01 0.  1.
    1000022    2    1    0    0    0 -0.21289442010E+02 -0.91610159229E+01 -0.57175906648E+02  0.62499990914E+02  0.10000000471E+02 0.  0.
    3000022    2    3    3    0    0 -0.50222401671E+01  0.47335045758E+00 -0.55106536360E+01  0.74750761924E+01  0.25000727060E+00 0.  0.
    1000022    2    1    0    0    0  0.21289442010E+02  0.91610159229E+01  0.57175906648E+02  0.62500009086E+02  0.10000114045E+02 0.  0.
    3000022    2    5    5    0    0  0.21596705389E+02  0.10011195421E+02  0.55127130250E+02  0.60047520413E+02  0.25000141456E+00 0.  0.
        -13    1    4    4    0    0 -0.35893645885E+01  0.29707105866E+00 -0.39430199705E+01  0.53413688180E+01  0.10500000000E+00 0.  1.
         13    1    4    4    0    0 -0.14328755786E+01  0.17627939892E+00 -0.15676336655E+01  0.21337073744E+01  0.10500000000E+00 0. -1.
    3000001    1    5    5    0    0 -0.30726337940E+00 -0.85017949809E+00  0.20487763977E+01  0.24524886730E+01  0.10000000000E+01 0.  1.
        -13    1    6    6    0    0  0.11555997126E+02  0.52835514319E+01  0.29399279413E+02  0.32027888477E+02  0.10500000000E+00 0.  1.
         13    1    6    6    0    0  0.10040708263E+02  0.47276439890E+01  0.25727850837E+02  0.28019631936E+02  0.10500000000E+00 0. -1.
</event>
<event>
11    0  0.3396091E-009  0.9118800E+02  0.7816531E-02  0.1126479E+00
         25   -1    0    0    0    0  0.00000000000E+00  0.00000000000E+00  0.99999998245E-14  0.12500000000E+03  0.12500000000E+03 0.  0.
    3000001    1    3    3    0    0 -0.61070542109E+01  0.52518044768E+01 -0.15144347886E+01  0.82565776279E+01  0.10000000000E+01 0.  1.
    1000022    2    1    0    0    0 -0.58207872445E+02  0.20329220740E+02 -0.21946409454E+01  0.62500000474E+02  0.99999989991E+01 0.  0.
    3000022    2    3    3    0    0 -0.52100818234E+02  0.15077416263E+02 -0.68020615682E+00  0.54243422846E+02  0.24999974573E+00 0.  0.
    1000022    2    1    0    0    0  0.58207872445E+02 -0.20329220740E+02  0.21946409454E+01  0.62499999526E+02  0.99999930701E+01 0.  0.
    3000022    2    5    5    0    0  0.23787604196E+02 -0.12378234011E+02 -0.21022088354E+01  0.26898932487E+02  0.24999263684E+00 0.  0.
        -13    1    4    4    0    0 -0.14848152291E+02  0.42690389480E+01 -0.22523678082E+00  0.15451669056E+02  0.10500000000E+00 0.  1.
         13    1    4    4    0    0 -0.37252665943E+02  0.10808377315E+02 -0.45496937599E+00  0.38791753791E+02  0.10500000000E+00 0. -1.
    3000001    1    5    5    0    0  0.34420268248E+02 -0.79509867285E+01  0.42968497808E+01  0.35601067039E+02  0.10000000000E+01 0.  1.
        -13    1    6    6    0    0  0.10535086576E+02 -0.54725106797E+01 -0.99663522754E+00  0.11913888075E+02  0.10500000000E+00 0.  1.
         13    1    6    6    0    0  0.13252517621E+02 -0.69057233315E+01 -0.11055736078E+01  0.14985044412E+02  0.10500000000E+00 0. -1.
</event>
<event>
11    0  0.3396091E-009  0.9118800E+02  0.7816531E-02  0.1126479E+00
         25   -1    0    0    0    0  0.00000000000E+00  0.00000000000E+00  0.99999998245E-14  0.12500000000E+03  0.12500000000E+03 0.  0.
    3000001    1    3    3    0    0 -0.42884534574E+02  0.82933946300E+01  0.10054118295E+02  0.44832454704E+02  0.10000000000E+01 0. -1.
    1000022    2    1    0    0    0 -0.60416672989E+02  0.94229643732E+01  0.82026532273E+01  0.62500001409E+02  0.10000001171E+02 0.  0.
    3000022    2    3    3    0    0 -0.17532138416E+02  0.11295697432E+01 -0.18514650679E+01  0.17667546705E+02  0.24995685345E+00 0.  0.
    1000022    2    1    0    0    0  0.60416672989E+02 -0.94229643732E+01 -0.82026532273E+01  0.62499998591E+02  0.99999835642E+01 0.  0.
    3000022    2    5    5    0    0  0.47310483995E+02 -0.10313944948E+02 -0.36444038242E+01  0.48559278597E+02  0.25000481068E+00 0.  0.
        -13    1    4    4    0    0 -0.75234220725E+01  0.44632859986E+00 -0.84758772763E+00  0.75848875309E+01  0.10500000000E+00 0.  1.
         13    1    4    4    0    0 -0.10008716343E+02  0.68324114334E+00 -0.10038773403E+01  0.10082659174E+02  0.10500000000E+00 0. -1.
    3000001    1    5    5    0    0  0.13106188994E+02  0.89098057480E+00 -0.45582494031E+01  0.13940719994E+02  0.10000000000E+01 0.  1.
        -13    1    6    6    0    0  0.30396610641E+02 -0.66720389839E+01 -0.23791891777E+01  0.31211241706E+02  0.10500000000E+00 0. -1.
         13    1    6    6    0    0  0.16913873354E+02 -0.36419059641E+01 -0.12652146465E+01  0.17348036891E+02  0.10500000000E+00 0.  1.
</event>
<event>
11    0  0.3396091E-009  0.9118800E+02  0.7816531E-02  0.1126479E+00
         25   -1    0    0    0    0  0.00000000000E+00  0.00000000000E+00  0.99999998245E-14  0.12500000000E+03  0.12500000000E+03 0.  0.
    3000001    1    3    3    0    0  0.36629391419E+01  0.51624321859E+02 -0.73529301185E+01  0.52283394227E+02  0.10000000000E+01 0.  1.
    1000022    2    1    0    0    0  0.36556210157E+01  0.61423696573E+02 -0.44739116622E+01  0.62500000291E+02  0.10000004251E+02 0.  0.
    3000022    2    3    3    0    0 -0.73181262007E-02  0.97993747144E+01  0.28790184563E+01  0.10216606064E+02  0.24998768427E+00 0.  0.
    1000022    2    1    0    0    0 -0.36556210157E+01 -0.61423696573E+02  0.44739116622E+01  0.62499999709E+02  0.10000000618E+02 0.  0.
    3000022    2    5    5    0    0 -0.39553183170E+01 -0.82399688558E+01  0.84061623256E+00  0.91820895094E+01  0.25000474857E+00 0.  0.
        -13    1    4    4    0    0 -0.69878602767E-01  0.44000190320E+01  0.12915281750E+01  0.45873871134E+01  0.10500000000E+00 0.  1.
         13    1    4    4    0    0  0.62560476566E-01  0.53993556823E+01  0.15874902813E+01  0.56292189503E+01  0.10500000000E+00 0. -1.
    3000001    1    5    5    0    0  0.29969730131E+00 -0.53183727718E+02  0.36332954296E+01  0.53317910200E+02  0.10000000000E+01 0.  1.
        -13    1    6    6    0    0 -0.10735669159E+01 -0.23035265151E+01  0.20761963210E+00  0.25520406032E+01  0.10500000000E+00 0.  1.
         13    1    6    6    0    0 -0.28817514011E+01 -0.59364423407E+01  0.63299660045E+00  0.66300489062E+01  0.10500000000E+00 0. -1.
</event>
<event>
11    0  0.3396091E-009  0.9118800E+02  0.7816531E-02  0.1126479E+00
         25   -1    0    0    0    0  0.00000000000E+00  0.00000000000E+00  0.99999998245E-14  0.12500000000E+03  0.12500000000E+03 0.  0.
    3000001    1    3    3    0    0 -0.19119239486E+01 -0.37290905037E+01 -0.38729293138E+01  0.57931986536E+01  0.10000000000E+01 0.  1.
    1000022    2    1    0    0    0  0.83631206135E+01 -0.45760953804E+02 -0.40524599397E+02  0.62500001546E+02  0.10000017875E+02 0.  0.
    3000022    2    3    3    0    0  0.10275044562E+02 -0.42031863300E+02 -0.36651670083E+02  0.56706802892E+02  0.25000226333E+00 0.  0.
    1000022    2    1    0    0    0 -0.83631206135E+01  0.45760953804E+02  0.40524599397E+02  0.62499998454E+02  0.99999985489E+01 0.  0.
    3000022    2    5    5    0    0 -0.11829931910E+01  0.24930562301E+01 -0.82369290947E-02  0.27708095181E+01  0.25003056239E+00 0.  0.
        -13    1    4    4    0    0  0.29829424556E+01 -0.12026226479E+02 -0.10494828645E+02  0.16238242587E+02  0.10500000000E+00 0.  1.
         13    1    4    4    0    0  0.72921021065E+01 -0.30005636821E+02 -0.26156841439E+02  0.40468560306E+02  0.10500000000E+00 0. -1.
    3000001    1    5    5    0    0 -0.71801274225E+01  0.43267897574E+02  0.40532836326E+02  0.59729188936E+02  0.10000000000E+01 0. -1.
        -13    1    6    6    0    0 -0.58358959243E+00  0.11006461316E+01  0.33514903755E-01  0.12506586138E+01  0.10500000000E+00 0.  1.
         13    1    6    6    0    0 -0.59940359858E+00  0.13924100985E+01 -0.41751832849E-01  0.15201509043E+01  0.10500000000E+00 0. -1.
</event>
<event>
11    0  0.3396091E-009  0.9118800E+02  0.7816531E-02  0.1126479E+00
         25   -1    0    0    0    0  0.00000000000E+00  0.00000000000E+00  0.99999998245E-14  0.12500000000E+03  0.12500000000E+03 0.  0.
    3000001    1    3    3    0    0  0.39464616798E+02 -0.38134536831E+02  0.13811246032E+02  0.56599022918E+02  0.10000000000E+01 0.  1.
    1000022    2    1    0    0    0  0.41642527975E+02 -0.41900528191E+02  0.17790321809E+02  0.62500000081E+02  0.10000003061E+02 0.  0.
    3000022    2    3    3    0    0  0.21779111764E+01 -0.37659913606E+01  0.39790757773E+01  0.59009771629E+01  0.24999882900E+00 0.  0.
    1000022    2    1    0    0    0 -0.41642527975E+02  0.41900528191E+02 -0.17790321809E+02  0.62499999919E+02  0.10000002048E+02 0.  0.
    3000022    2    5    5    0    0 -0.22200146329E+02  0.28522920268E+02 -0.12897797835E+02  0.38377326174E+02  0.24999513542E+00 0.  0.
        -13    1    4    4    0    0  0.69303996614E+00 -0.11162324256E+01  0.11746086059E+01  0.17655054799E+01  0.10500000000E+00 0. -1.
         13    1    4    4    0    0  0.14848712103E+01 -0.26497589350E+01  0.28044671714E+01  0.41354716830E+01  0.10500000000E+00 0.  1.
    3000001    1    5    5    0    0 -0.19442381646E+02  0.13377607923E+02 -0.48925239743E+01  0.24122673745E+02  0.10000000000E+01 0.  1.
        -13    1    6    6    0    0 -0.10487347983E+02  0.13559896117E+02 -0.60721481408E+01  0.18186183175E+02  0.10500000000E+00 0.  1.
         13    1    6    6    0    0 -0.11712798346E+02  0.14963024152E+02 -0.68256496938E+01  0.20191142999E+02  0.10500000000E+00 0. -1.
</event>
<event>
11    0  0.3396091E-009  0.9118800E+02  0.7816531E-02  0.1126479E+00
         25   -1    0    0    0    0  0.00000000000E+00  0.00000000000E+00  0.99999998245E-14  0.12500000000E+03  0.12500000000E+03 0.  0.
    3000001    1    3    3    0    0 -0.21481914740E+02  0.26342129718E+02 -0.16819835915E+02  0.37937940629E+02  0.10000000000E+01 0. -1.
    1000022    2    1    0    0    0 -0.34771415634E+02  0.46672480277E+02 -0.20466516725E+02  0.62500000153E+02  0.99999975920E+01 0.  0.
    3000022    2    3    3    0    0 -0.13289500894E+02  0.20330350559E+02 -0.36466808104E+01  0.24562059523E+02  0.24999850440E+00 0.  0.
    1000022    2    1    0    0    0  0.34771415634E+02 -0.46672480277E+02  0.20466516725E+02  0.62499999847E+02  0.99999956835E+01 0.  0.
    3000022    2    5    5    0    0 -0.51540279612E-01  0.27628169706E+00  0.68562167825E+00  0.78202581787E+00  0.24999863515E+00 0.  0.
        -13    1    4    4    0    0 -0.71275167401E+01  0.10830335759E+02 -0.20011882026E+01  0.13119201453E+02  0.10500000000E+00 0. -1.
         13    1    4    4    0    0 -0.61619841539E+01  0.95000147996E+01 -0.16454926078E+01  0.11442858071E+02  0.10500000000E+00 0.  1.
    3000001    1    5    5    0    0  0.34822955913E+02 -0.46948761974E+02  0.19780895047E+02  0.61717974029E+02  0.10000000000E+01 0. -1.
        -13    1    6    6    0    0 -0.42401542133E-01  0.45547028149E-01  0.20557379624E+00  0.23907741057E+00  0.10500000000E+00 0.  1.
         13    1    6    6    0    0 -0.91387374794E-02  0.23073466891E+00  0.48004788202E+00  0.54294840730E+00  0.10500000000E+00 0. -1.
</event>
<event>
11    0  0.3396091E-009  0.9118800E+02  0.7816531E-02  0.1126479E+00
         25   -1    0    0    0    0  0.00000000000E+00  0.00000000000E+00  0.99999998245E-14  0.12500000000E+03  0.12500000000E+03 0.  0.
    3000001    1    3    3    0    0  0.17553852009E+01 -0.16193781896E+01 -0.24531070454E+01  0.35667207770E+01  0.10000000000E+01 0.  1.
    1000022    2    1    0    0    0  0.53670300761E+02 -0.23627949831E+01 -0.30334242625E+02  0.62499999586E+02  0.99999844350E+01 0.  0.
    3000022    2    3    3    0    0  0.51914915560E+02 -0.74341679348E+00 -0.27881135580E+02  0.58933278809E+02  0.25000765183E+00 0.  0.
    1000022    2    1    0    0    0 -0.53670300761E+02  0.23627949831E+01  0.30334242625E+02  0.62500000414E+02  0.99999896058E+01 0.  0.
    3000022    2    5    5    0    0 -0.38854616013E+02  0.58932676722E+01  0.23365088477E+02  0.45720910405E+02  0.24999874366E+00 0.  0.
        -13    1    4    4    0    0  0.15485740816E+02 -0.20730532191E+00 -0.83655141556E+01  0.17602386094E+02  0.10500000000E+00 0. -1.
         13    1    4    4    0    0  0.36429174744E+02 -0.53611147157E+00 -0.19515621424E+02  0.41330892715E+02  0.10500000000E+00 0.  1.
    3000001    1    5    5    0    0 -0.14815684748E+02 -0.35304726891E+01  0.69691541489E+01  0.16779090009E+02  0.10000000000E+01 0.  1.
        -13    1    6    6    0    0 -0.28699295818E+02  0.43306700200E+01  0.17228533810E+02  0.33752595242E+02  0.10500000000E+00 0. -1.
         13    1    6    6    0    0 -0.10155320194E+02  0.15625976522E+01  0.61365546664E+01  0.11968315163E+02  0.10500000000E+00 0.  1.
</event>
<event>
11    0  0.3396091E-009  0.9118800E+02  0.7816531E-02  0.1126479E+00
         25   -1    0    0    0    0  0.00000000000E+00  0.00000000000E+00  0.99999998245E-14  0.12500000000E+03  0.12500000000E+03 0.  0.
    3000001    1    3    3    0    0 -0.70676519942E+01 -0.25114784257E+02  0.43468488090E+02  0.50707135098E+02  0.10000000000E+01 0.  1.
    1000022    2    1    0    0    0 -0.11510738855E+02 -0.27126029074E+02  0.54202688032E+02  0.62500000743E+02  0.10000007032E+02 0.  0.
    3000022    2    3    3    0    0 -0.44430868605E+01 -0.20112448170E+01  0.10734199942E+02  0.11792865645E+02  0.25001032769E+00 0.  0.
    1000022    2    1    0    0    0  0.11510738855E+02  0.27126029074E+02 -0.54202688032E+02  0.62499999257E+02  0.99999977493E+01 0.  0.
    3000022    2    5    5    0    0  0.12103762753E+02  0.17471441662E+02 -0.39826105632E+02  0.45143477228E+02  0.24999985299E+00 0.  0.
        -13    1    4    4    0    0 -0.29922341935E+01 -0.13204037164E+01  0.72964094019E+01  0.79965959385E+01  0.10500000000E+00 0.  1.
         13    1    4    4    0    0 -0.14508526670E+01 -0.69084110057E+00  0.34377905397E+01  0.37962697062E+01  0.10500000000E+00 0. -1.
    3000001    1    5    5    0    0 -0.59302389843E+00  0.96545874124E+01 -0.14376582400E+02  0.17356522029E+02  0.10000000000E+01 0. -1.
        -13    1    6    6    0    0  0.72784945773E+01  0.10578066185E+02 -0.23958255510E+02  0.27182365600E+02  0.10500000000E+00 0. -1.
         13    1    6    6    0    0  0.48252681758E+01  0.68933754761E+01 -0.15867850122E+02  0.17961111628E+02  0.10500000000E+00 0.  1.
</event>
<event>
11    0  0.3396091E-009  0.9118800E+02  0.7816531E-02  0.1126479E+00
         25   -1    0    0    0    0  0.00000000000E+00  0.00000000000E+00  0.99999998245E-14  0.12500000000E+03  0.12500000000E+03 0.  0.
    3000001    1    3    3    0    0  0.39309936756E+01  0.13528757963E+02  0.12263400419E+02  0.18704838763E+02  0.10000000000E+01 0. -1.
    1000022    2    1    0    0    0  0.18363566765E+01  0.51757678899E+02  0.33526412624E+02  0.62499999303E+02  0.10000001931E+02 0.  0.
    3000022    2    3    3    0    0 -0.20946369991E+01  0.38228920935E+02  0.21263012205E+02  0.43795160540E+02  0.24999732746E+00 0.  0.
    1000022    2    1    0    0    0 -0.18363566765E+01 -0.51757678899E+02 -0.33526412624E+02  0.62500000697E+02  0.10000010642E+02 0.  0.
    3000022    2    5    5    0    0 -0.45209306714E+01 -0.46766094438E+02 -0.29550869011E+02  0.55505159742E+02  0.24999114546E+00 0.  0.
        -13    1    4    4    0    0 -0.90024464273E+00  0.16135159031E+02  0.90469526496E+01  0.18520587858E+02  0.10500000000E+00 0.  1.
         13    1    4    4    0    0 -0.11943923564E+01  0.22093761905E+02  0.12216059556E+02  0.25274572682E+02  0.10500000000E+00 0. -1.
    3000001    1    5    5    0    0  0.26845739948E+01 -0.49915844608E+01 -0.39755436138E+01  0.69948409552E+01  0.10000000000E+01 0. -1.
        -13    1    6    6    0    0 -0.32253563734E+01 -0.32899210619E+02 -0.20794222267E+02  0.39053446555E+02  0.10500000000E+00 0. -1.
         13    1    6    6    0    0 -0.12955742980E+01 -0.13866883819E+02 -0.87566467432E+01  0.16451713187E+02  0.10500000000E+00 0.  1.
</event>
<event>
11    0  0.3396091E-009  0.9118800E+02  0.7816531E-02  0.1126479E+00
         25   -1    0    0    0    0  0.00000000000E+00  0.00000000000E+00  0.99999998245E-14  0.12500000000E+03  0.12500000000E+03 0.  0.
    3000001    1    3    3    0    0 -0.64411214748E+01  0.26942528527E+01 -0.71297449558E+00  0.70891026878E+01  0.10000000000E+01 0.  1.
    1000022    2    1    0    0    0 -0.42417153409E+02  0.44766865653E+02  0.17212360650E+01  0.62499999680E+02  0.10000007134E+02 0.  0.
    3000022    2    3    3    0    0 -0.35976031934E+02  0.42072612801E+02  0.24342105606E+01  0.55410896993E+02  0.25000567787E+00 0.  0.
    1000022    2    1    0    0    0  0.42417153409E+02 -0.44766865653E+02 -0.17212360650E+01  0.62500000320E+02  0.10000011129E+02 0.  0.
    3000022    2    5    5    0    0  0.70567053345E+01 -0.60781577756E+01 -0.37365943678E+01  0.10038213518E+02  0.25000208780E+00 0.  0.
        -13    1    4    4    0    0 -0.21224742218E+02  0.24786335515E+02  0.13750629309E+01  0.32661199205E+02  0.10500000000E+00 0.  1.
         13    1    4    4    0    0 -0.14751289717E+02  0.17286277286E+02  0.10591476298E+01  0.22749697787E+02  0.10500000000E+00 0. -1.
    3000001    1    5    5    0    0  0.35360448075E+02 -0.38688707878E+02  0.20153583028E+01  0.52461786801E+02  0.10000000000E+01 0. -1.
        -13    1    6    6    0    0  0.46146894537E+01 -0.40411089517E+01 -0.24846349226E+01  0.66189391909E+01  0.10500000000E+00 0. -1.
         13    1    6    6    0    0  0.24420158809E+01 -0.20370488238E+01 -0.12519594452E+01  0.34192743273E+01  0.10500000000E+00 0.  1.
</event>
<event>
11    0  0.3396091E-009  0.9118800E+02  0.7816531E-02  0.1126479E+00
         25   -1    0    0    0    0  0.00000000000E+00  0.00000000000E+00  0.99999998245E-14  0.12500000000E+03  0.12500000000E+03 0.  0.
    3000001    1    3    3    0    0 -0.97290042593E+01 -0.12880226232E+02  0.13735037403E+01  0.16230842991E+02  0.10000000000E+01 0. -1.
    1000022    2    1    0    0    0 -0.46975858810E+02 -0.38040764105E+02  0.12345812029E+02  0.62500000028E+02  0.99999942109E+01 0.  0.
    3000022    2    3    3    0    0 -0.37246854551E+02 -0.25160537873E+02  0.10972308288E+02  0.46269157037E+02  0.25000754086E+00 0.  0.
    1000022    2    1    0    0    0  0.46975858810E+02  0.38040764105E+02 -0.12345812029E+02  0.62499999972E+02  0.99999938583E+01 0.  0.
    3000022    2    5    5    0    0  0.28760634732E+02  0.25804333396E+02 -0.34281746502E+01  0.38792429849E+02  0.24999990588E+00 0.  0.
        -13    1    4    4    0    0 -0.24073151064E+02 -0.16195882473E+02  0.71007154174E+01  0.29870627641E+02  0.10500000000E+00 0. -1.
         13    1    4    4    0    0 -0.13173703487E+02 -0.89646553994E+01  0.38715928709E+01  0.16398529396E+02  0.10500000000E+00 0.  1.
    3000001    1    5    5    0    0  0.18215224078E+02  0.12236430709E+02 -0.89176373784E+01  0.23707570123E+02  0.10000000000E+01 0. -1.
        -13    1    6    6    0    0  0.19506463671E+02  0.17542597931E+02 -0.22866412896E+01  0.26334096159E+02  0.10500000000E+00 0.  1.
         13    1    6    6    0    0  0.92541710611E+01  0.82617354643E+01 -0.11415333606E+01  0.12458333690E+02  0.10500000000E+00 0. -1.
</event>
<event>
11    0  0.3396091E-009  0.9118800E+02  0.7816531E-02  0.1126479E+00
         25   -1    0    0    0    0  0.00000000000E+00  0.00000000000E+00  0.99999998245E-14  0.12500000000E+03  0.12500000000E+03 0.  0.
    3000001    1    3    3    0    0  0.56782582287E+01  0.16537587626E+02 -0.39251872414E+02  0.42981902110E+02  0.10000000000E+01 0. -1.
    1000022    2    1    0    0    0  0.96213658766E+01  0.29432147409E+02 -0.53361298071E+02  0.62500000475E+02  0.99999972579E+01 0.  0.
    3000022    2    3    3    0    0  0.39431076479E+01  0.12894559783E+02 -0.14109425657E+02  0.19518098365E+02  0.25000301171E+00 0.  0.
    1000022    2    1    0    0    0 -0.96213658766E+01 -0.29432147409E+02  0.53361298071E+02  0.62499999525E+02  0.99999913199E+01 0.  0.
    3000022    2    5    5    0    0 -0.82771241441E+01 -0.23796063266E+02  0.34347722093E+02  0.42598027217E+02  0.24999742532E+00 0.  0.
        -13    1    4    4    0    0  0.11532502115E+01  0.36336549502E+01 -0.39978811935E+01  0.55251708919E+01  0.10500000000E+00 0.  1.
         13    1    4    4    0    0  0.27898574364E+01  0.92609048326E+01 -0.10111544464E+02  0.13992927473E+02  0.10500000000E+00 0. -1.
    3000001    1    5    5    0    0 -0.13442417324E+01 -0.56360841427E+01  0.19013575978E+02  0.19901972308E+02  0.10000000000E+01 0.  1.
        -13    1    6    6    0    0 -0.41101396136E+01 -0.12013951928E+02  0.17343469394E+02  0.21495005098E+02  0.10500000000E+00 0.  1.
         13    1    6    6    0    0 -0.41669845305E+01 -0.11782111338E+02  0.17004252700E+02  0.21103022119E+02  0.10500000000E+00 0. -1.
</event>
<event>
11    0  0.3396091E-009  0.9118800E+02  0.7816531E-02  0.1126479E+00
         25   -1    0    0    0    0  0.00000000000E+00  0.00000000000E+00  0.99999998245E-14  0.12500000000E+03  0.12500000000E+03 0.  0.
    3000001    1    3    3    0    0  0.13921955693E+02 -0.30573094327E+01 -0.66464410388E+01  0.15758907633E+02  0.10000000000E+01 0.  1.
    1000022    2    1    0    0    0  0.56722869256E+02 -0.21026912465E+02 -0.12109357762E+02  0.62500011389E+02  0.99999966861E+01 0.  0.
    3000022    2    3    3    0    0  0.42800913563E+02 -0.17969603032E+02 -0.54629167228E+01  0.46741103756E+02  0.24997250445E+00 0.  0.
    1000022    2    1    0    0    0 -0.56722869256E+02  0.21026912465E+02  0.12109357762E+02  0.62499988611E+02  0.99998543265E+01 0.  0.
    3000022    2    5    5    0    0 -0.28956588121E+02  0.15175902574E+02  0.37879940846E+01  0.32912055628E+02  0.24998375825E+00 0.  0.
        -13    1    4    4    0    0  0.19235065747E+02 -0.80719457076E+01 -0.23879389324E+01  0.20996603038E+02  0.10500000000E+00 0.  1.
         13    1    4    4    0    0  0.23565847816E+02 -0.98976573247E+01 -0.30749777904E+01  0.25744500718E+02  0.10500000000E+00 0. -1.
    3000001    1    5    5    0    0 -0.27766281135E+02  0.58510098907E+01  0.83213636769E+01  0.29587932984E+02  0.10000000000E+01 0. -1.
        -13    1    6    6    0    0 -0.21679776908E+02  0.11334849133E+02  0.28218607097E+01  0.24626519334E+02  0.10500000000E+00 0.  1.
         13    1    6    6    0    0 -0.72768112136E+01  0.38410534415E+01  0.96613337489E+00  0.82855362938E+01  0.10500000000E+00 0. -1.
</event>
<event>
11    0  0.3396091E-009  0.9118800E+02  0.7816531E-02  0.1126479E+00
         25   -1    0    0    0    0  0.00000000000E+00  0.00000000000E+00  0.99999998245E-14  0.12500000000E+03  0.12500000000E+03 0.  0.
    3000001    1    3    3    0    0 -0.10668705509E+02 -0.10258862921E+02 -0.45882563597E+02  0.48221107286E+02  0.10000000000E+01 0. -1.
    1000022    2    1    0    0    0 -0.11219954827E+02 -0.17789407789E+02 -0.57999134617E+02  0.62499999588E+02  0.99999958231E+01 0.  0.
    3000022    2    3    3    0    0 -0.55124931738E+00 -0.75305448675E+01 -0.12116571020E+02  0.14278892302E+02  0.24998057001E+00 0.  0.
    1000022    2    1    0    0    0  0.11219954827E+02  0.17789407789E+02  0.57999134617E+02  0.62500000412E+02  0.10000000972E+02 0.  0.
    3000022    2    5    5    0    0  0.45506289333E+01  0.15515463986E+02  0.40082629512E+02  0.43221725503E+02  0.25004101273E+00 0.  0.
        -13    1    4    4    0    0 -0.35145074464E+00 -0.38813661814E+01 -0.62688559109E+01  0.73822828780E+01  0.10500000000E+00 0.  1.
         13    1    4    4    0    0 -0.19979857274E+00 -0.36491786862E+01 -0.58477151089E+01  0.68966094241E+01  0.10500000000E+00 0. -1.
    3000001    1    5    5    0    0  0.66693258934E+01  0.22739438029E+01  0.17916505104E+02  0.19278274909E+02  0.10000000000E+01 0.  1.
        -13    1    6    6    0    0  0.25861204540E+01  0.89505455070E+01  0.23237262810E+02  0.25035608476E+02  0.10500000000E+00 0. -1.
         13    1    6    6    0    0  0.19645084793E+01  0.65649184788E+01  0.16845366703E+02  0.18186117028E+02  0.10500000000E+00 0.  1.
</event>
<event>
11    0  0.3396091E-009  0.9118800E+02  0.7816531E-02  0.1126479E+00
         25   -1    0    0    0    0  0.00000000000E+00  0.00000000000E+00  0.99999998245E-14  0.12500000000E+03  0.12500000000E+03 0.  0.
    3000001    1    3    3    0    0 -0.28139316527E+02 -0.19995457796E+02 -0.16816226981E+02  0.38411260810E+02  0.10000000000E+01 0. -1.
    1000022    2    1    0    0    0 -0.49948963459E+02 -0.28945054418E+02 -0.21760834258E+02  0.62500006426E+02  0.10000088486E+02 0.  0.
    3000022    2    3    3    0    0 -0.21809646932E+02 -0.89495966218E+01 -0.49446072771E+01  0.24088745616E+02  0.25009049856E+00 0.  0.
    1000022    2    1    0    0    0  0.49948963459E+02  0.28945054418E+02  0.21760834258E+02  0.62499993574E+02  0.10000008165E+02 0.  0.
    3000022    2    5    5    0    0  0.87193438387E+01  0.63289972660E+01  0.25306995342E+00  0.10780060275E+02  0.24998350667E+00 0.  0.
        -13    1    4    4    0    0 -0.16623534349E+02 -0.68021088551E+01 -0.37662120518E+01  0.18352273901E+02  0.10500000000E+00 0.  1.
         13    1    4    4    0    0 -0.51861125829E+01 -0.21474877667E+01 -0.11783952253E+01  0.57364717151E+01  0.10500000000E+00 0. -1.
    3000001    1    5    5    0    0  0.41229619620E+02  0.22616057152E+02  0.21507764305E+02  0.51719933300E+02  0.10000000000E+01 0. -1.
        -13    1    6    6    0    0  0.47524740062E+01  0.33732101031E+01  0.16276811301E+00  0.58311297394E+01  0.10500000000E+00 0.  1.
         13    1    6    6    0    0  0.39668698325E+01  0.29557871629E+01  0.90301840412E-01  0.49489305353E+01  0.10500000000E+00 0. -1.
</event>
<event>
11    0  0.3396091E-009  0.9118800E+02  0.7816531E-02  0.1126479E+00
         25   -1    0    0    0    0  0.00000000000E+00  0.00000000000E+00  0.99999998245E-14  0.12500000000E+03  0.12500000000E+03 0.  0.
    3000001    1    3    3    0    0  0.56472551779E+01  0.50599312798E+00  0.25468404219E+00  0.57630186579E+01  0.10000000000E+01 0.  1.
    1000022    2    1    0    0    0  0.55135678964E+02 -0.14971530512E+02  0.23284339038E+02  0.62500002471E+02  0.10000002187E+02 0.  0.
    3000022    2    3    3    0    0  0.49488423786E+02 -0.15477523640E+02  0.23029654996E+02  0.56736983814E+02  0.24999222877E+00 0.  0.
    1000022    2    1    0    0    0 -0.55135678964E+02  0.14971530512E+02 -0.23284339038E+02  0.62499997529E+02  0.99999712942E+01 0.  0.
    3000022    2    5    5    0    0 -0.13065425331E+02 -0.61101503803E+00 -0.62852757583E+01  0.14513644062E+02  0.24998830265E+00 0.  0.
        -13    1    4    4    0    0  0.14317200311E+02 -0.44342528894E+01  0.66677485716E+01  0.16404716378E+02  0.10500000000E+00 0. -1.
         13    1    4    4    0    0  0.35171223475E+02 -0.11043270751E+02  0.16361906425E+02  0.40332267435E+02  0.10500000000E+00 0.  1.
    3000001    1    5    5    0    0 -0.42070253634E+02  0.15582545550E+02 -0.16999063280E+02  0.47986353467E+02  0.10000000000E+01 0. -1.
        -13    1    6    6    0    0 -0.80434131346E+01 -0.43682886046E+00 -0.38601190223E+01  0.89330206634E+01  0.10500000000E+00 0. -1.
         13    1    6    6    0    0 -0.50220121960E+01 -0.17418617756E+00 -0.24251567360E+01  0.55806233985E+01  0.10500000000E+00 0.  1.
</event>
<event>
11    0  0.3396091E-009  0.9118800E+02  0.7816531E-02  0.1126479E+00
         25   -1    0    0    0    0  0.00000000000E+00  0.00000000000E+00  0.99999998245E-14  0.12500000000E+03  0.12500000000E+03 0.  0.
    3000001    1    3    3    0    0  0.41831782870E+02  0.38622602525E+02  0.21446020483E+02  0.60848461594E+02  0.10000000000E+01 0.  1.
    1000022    2    1    0    0    0  0.42605519821E+02  0.38324808223E+02  0.22852339776E+02  0.62500005748E+02  0.10000002038E+02 0.  0.
    3000022    2    3    3    0    0  0.77373695076E+00 -0.29779430195E+00  0.14063192933E+01  0.16515441536E+01  0.25002764099E+00 0.  0.
    1000022    2    1    0    0    0 -0.42605519821E+02 -0.38324808223E+02 -0.22852339776E+02  0.62499994252E+02  0.99999301882E+01 0.  0.
    3000022    2    5    5    0    0 -0.81557875354E-01 -0.96032390241E+00 -0.18741398870E+01  0.21222094415E+01  0.24999782573E+00 0.  0.
        -13    1    4    4    0    0  0.48494065077E+00 -0.24133244833E+00  0.94760753860E+00  0.10965372007E+01  0.10500000000E+00 0.  1.
         13    1    4    4    0    0  0.28879630000E+00 -0.56461853620E-01  0.45871175474E+00  0.55500695288E+00  0.10500000000E+00 0. -1.
    3000001    1    5    5    0    0 -0.42523961945E+02 -0.37364484320E+02 -0.20978199889E+02  0.60377784811E+02  0.10000000000E+01 0.  1.
        -13    1    6    6    0    0 -0.10478786438E+00 -0.44017260789E+00 -0.86634146206E+00  0.98300811295E+00  0.10500000000E+00 0.  1.
         13    1    6    6    0    0  0.23229989029E-01 -0.52015129452E+00 -0.10077984249E+01  0.11392013285E+01  0.10500000000E+00 0.  1.
</event>
<event>
11    0  0.3396091E-009  0.9118800E+02  0.7816531E-02  0.1126479E+00
         25   -1    0    0    0    0  0.00000000000E+00  0.00000000000E+00  0.99999998245E-14  0.12500000000E+03  0.12500000000E+03 0.  0.
    3000001    1    3    3    0    0  0.91638797053E+01 -0.17721976884E+01 -0.81988109429E+00  0.94228223430E+01  0.10000000000E+01 0.  1.
    1000022    2    1    0    0    0  0.59140908258E+02 -0.57093504237E+01  0.16613411712E+02  0.62499999708E+02  0.10000040149E+02 0.  0.
    3000022    2    3    3    0    0  0.49977028553E+02 -0.39371527353E+01  0.17433292807E+02  0.53077177365E+02  0.25000874428E+00 0.  0.
    1000022    2    1    0    0    0 -0.59140908258E+02  0.57093504237E+01 -0.16613411712E+02  0.62500000292E+02  0.10000043794E+02 0.  0.
    3000022    2    5    5    0    0 -0.87271578025E+01 -0.14641200679E+01 -0.53312172176E+01  0.10333988114E+02  0.25000487752E+00 0.  0.
        -13    1    4    4    0    0  0.25402135651E+02 -0.19374477611E+01  0.88340732941E+01  0.26964311144E+02  0.10500000000E+00 0. -1.
         13    1    4    4    0    0  0.24574892901E+02 -0.19997049742E+01  0.85992195126E+01  0.26112866222E+02  0.10500000000E+00 0.  1.
    3000001    1    5    5    0    0 -0.50413750455E+02  0.71734704917E+01 -0.11282194495E+02  0.52166012177E+02  0.10000000000E+01 0. -1.
        -13    1    6    6    0    0 -0.43880267989E+01 -0.70286162593E+00 -0.26079397954E+01  0.51537528684E+01  0.10500000000E+00 0. -1.
         13    1    6    6    0    0 -0.43391310036E+01 -0.76125844199E+00 -0.27232774222E+01  0.51802352457E+01  0.10500000000E+00 0.  1.
</event>
<event>
11    0  0.3396091E-009  0.9118800E+02  0.7816531E-02  0.1126479E+00
         25   -1    0    0    0    0  0.00000000000E+00  0.00000000000E+00  0.99999998245E-14  0.12500000000E+03  0.12500000000E+03 0.  0.
    3000001    1    3    3    0    0 -0.12917234720E+01  0.61815055630E+01  0.28196871265E+01  0.69878606200E+01  0.10000000000E+01 0. -1.
    1000022    2    1    0    0    0 -0.16063640174E+02  0.38334545297E+02  0.45592444041E+02  0.62500009820E+02  0.10000118756E+02 0.  0.
    3000022    2    3    3    0    0 -0.14771916702E+02  0.32153039734E+02  0.42772756914E+02  0.55512149200E+02  0.24997515463E+00 0.  0.
    1000022    2    1    0    0    0  0.16063640174E+02 -0.38334545297E+02 -0.45592444041E+02  0.62499990180E+02  0.99999960069E+01 0.  0.
    3000022    2    5    5    0    0  0.12132043787E+02 -0.16169210794E+02 -0.21406838926E+02  0.29443931756E+02  0.25000057429E+00 0.  0.
        -13    1    4    4    0    0 -0.41883093134E+01  0.92113749869E+01  0.12252229274E+02  0.15890862507E+02  0.10500000000E+00 0.  1.
         13    1    4    4    0    0 -0.10583607389E+02  0.22941664747E+02  0.30520527640E+02  0.39621286693E+02  0.10500000000E+00 0. -1.
    3000001    1    5    5    0    0  0.39315963868E+01 -0.22165334503E+02 -0.24185605114E+02  0.33056058424E+02  0.10000000000E+01 0. -1.
        -13    1    6    6    0    0  0.72932076960E+01 -0.96295170501E+01 -0.12744574635E+02  0.17560002413E+02  0.10500000000E+00 0. -1.
         13    1    6    6    0    0  0.48388360911E+01 -0.65396937438E+01 -0.86622642911E+01  0.11883929343E+02  0.10500000000E+00 0.  1.
</event>
<event>
11    0  0.3396091E-009  0.9118800E+02  0.7816531E-02  0.1126479E+00
         25   -1    0    0    0    0  0.00000000000E+00  0.00000000000E+00  0.99999998245E-14  0.12500000000E+03  0.12500000000E+03 0.  0.
    3000001    1    3    3    0    0  0.35177772192E+02  0.51595261670E+01  0.96802123355E+01  0.36861943486E+02  0.10000000000E+01 0. -1.
    1000022    2    1    0    0    0  0.56410121353E+02  0.15738871534E+02  0.19401957251E+02  0.62500001538E+02  0.10000018942E+02 0.  0.
    3000022    2    3    3    0    0  0.21232349161E+02  0.10579345367E+02  0.97217449156E+01  0.25638058053E+02  0.24999442143E+00 0.  0.
    1000022    2    1    0    0    0 -0.56410121353E+02 -0.15738871534E+02 -0.19401957251E+02  0.62499998462E+02  0.99999997161E+01 0.  0.
    3000022    2    5    5    0    0 -0.39681242073E+02 -0.14961886700E+02 -0.11410870430E+02  0.43917302856E+02  0.25000021322E+00 0.  0.
        -13    1    4    4    0    0  0.15553619379E+02  0.77188220028E+01  0.70923371154E+01  0.18756533785E+02  0.10500000000E+00 0.  1.
         13    1    4    4    0    0  0.56787297822E+01  0.28605233645E+01  0.26294078003E+01  0.68815242671E+01  0.10500000000E+00 0. -1.
    3000001    1    5    5    0    0 -0.16728879280E+02 -0.77698483468E+00 -0.79910868209E+01  0.18582695606E+02  0.10000000000E+01 0. -1.
        -13    1    6    6    0    0 -0.29056231176E+02 -0.10925240576E+02 -0.83312025439E+01  0.32141023827E+02  0.10500000000E+00 0. -1.
         13    1    6    6    0    0 -0.10625010896E+02 -0.40366461236E+01 -0.30796678863E+01  0.11776279029E+02  0.10500000000E+00 0.  1.
</event>
<event>
11    0  0.3396091E-009  0.9118800E+02  0.7816531E-02  0.1126479E+00
         25   -1    0    0    0    0  0.00000000000E+00  0.00000000000E+00  0.99999998245E-14  0.12500000000E+03  0.12500000000E+03 0.  0.
    3000001    1    3    3    0    0  0.76291555054E+00  0.79290025088E+01 -0.10058701368E+02  0.12869677312E+02  0.10000000000E+01 0. -1.
    1000022    2    1    0    0    0  0.20626298560E+02  0.29625108178E+02 -0.50031586920E+02  0.62500001485E+02  0.99999634499E+01 0.  0.
    3000022    2    3    3    0    0  0.19863383010E+02  0.21696105670E+02 -0.39972885553E+02  0.49630324173E+02  0.25002453237E+00 0.  0.
    1000022    2    1    0    0    0 -0.20626298560E+02 -0.29625108178E+02  0.50031586920E+02  0.62499998515E+02  0.99999448826E+01 0.  0.
    3000022    2    5    5    0    0 -0.23891860580E+01 -0.93564093201E+01  0.17959968957E+02  0.20392978855E+02  0.24999249965E+00 0.  0.
        -13    1    4    4    0    0  0.79143157804E+01  0.85527866773E+01 -0.15819036769E+02  0.19647888017E+02  0.10500000000E+00 0. -1.
         13    1    4    4    0    0  0.11949067230E+02  0.13143318992E+02 -0.24153848783E+02  0.29982436156E+02  0.10500000000E+00 0.  1.
    3000001    1    5    5    0    0 -0.18237112503E+02 -0.20268698858E+02  0.32071617963E+02  0.42107019660E+02  0.10000000000E+01 0. -1.
        -13    1    6    6    0    0 -0.93177952399E+00 -0.38976110825E+01  0.74936605050E+01  0.84985621134E+01  0.10500000000E+00 0.  1.
         13    1    6    6    0    0 -0.14574065340E+01 -0.54587982377E+01  0.10466308452E+02  0.11894416741E+02  0.10500000000E+00 0. -1.
</event>
<event>
11    0  0.3396091E-009  0.9118800E+02  0.7816531E-02  0.1126479E+00
         25   -1    0    0    0    0  0.00000000000E+00  0.00000000000E+00  0.99999998245E-14  0.12500000000E+03  0.12500000000E+03 0.  0.
    3000001    1    3    3    0    0 -0.36047660980E+01  0.10144308211E+01  0.67263467935E+01  0.77631919787E+01  0.10000000000E+01 0. -1.
    1000022    2    1    0    0    0 -0.12117991249E+02 -0.10049564022E+02  0.59652414439E+02  0.62499999710E+02  0.99999983173E+01 0.  0.
    3000022    2    3    3    0    0 -0.85132251514E+01 -0.11063994844E+02  0.52926067646E+02  0.54736807731E+02  0.24999956730E+00 0.  0.
    1000022    2    1    0    0    0  0.12117991249E+02  0.10049564022E+02 -0.59652414439E+02  0.62500000290E+02  0.10000001943E+02 0.  0.
    3000022    2    5    5    0    0  0.60288981945E+01  0.95296541075E+01 -0.47965233659E+02  0.49273604139E+02  0.25000808739E+00 0.  0.
        -13    1    4    4    0    0 -0.37416336552E+01 -0.48562183516E+01  0.23501596323E+02  0.24288242708E+02  0.10500000000E+00 0. -1.
         13    1    4    4    0    0 -0.47715914963E+01 -0.62077764920E+01  0.29424471323E+02  0.30448565024E+02  0.10500000000E+00 0.  1.
    3000001    1    5    5    0    0  0.60890930549E+01  0.51990991497E+00 -0.11687180780E+02  0.13226396151E+02  0.10000000000E+01 0.  1.
        -13    1    6    6    0    0  0.31857512011E+01  0.50286008579E+01 -0.25025374369E+02  0.25723845448E+02  0.10500000000E+00 0.  1.
         13    1    6    6    0    0  0.28431469934E+01  0.45010532496E+01 -0.22939859290E+02  0.23549758691E+02  0.10500000000E+00 0. -1.
</event>
<event>
11    0  0.3396091E-009  0.9118800E+02  0.7816531E-02  0.1126479E+00
         25   -1    0    0    0    0  0.00000000000E+00  0.00000000000E+00  0.99999998245E-14  0.12500000000E+03  0.12500000000E+03 0.  0.
    3000001    1    3    3    0    0 -0.14395305225E+02  0.37380984781E+02  0.32107549439E+02  0.51346446485E+02  0.10000000000E+01 0.  1.
    1000022    2    1    0    0    0 -0.15545502218E+02  0.42471028474E+02  0.41961875325E+02  0.62499998973E+02  0.99999995961E+01 0.  0.
    3000022    2    3    3    0    0 -0.11501969933E+01  0.50900436938E+01  0.98543258867E+01  0.11153552488E+02  0.24999298828E+00 0.  0.
    1000022    2    1    0    0    0  0.15545502218E+02 -0.42471028474E+02 -0.41961875325E+02  0.62500001027E+02  0.10000012434E+02 0.  0.
    3000022    2    5    5    0    0  0.13336577555E+02 -0.24485431213E+02 -0.21963223587E+02  0.35494314063E+02  0.24999591341E+00 0.  0.
        -13    1    4    4    0    0 -0.68108099940E+00  0.28483849675E+01  0.54111044278E+01  0.61537179314E+01  0.10500000000E+00 0. -1.
         13    1    4    4    0    0 -0.46911599394E+00  0.22416587264E+01  0.44432214588E+01  0.49998345566E+01  0.10500000000E+00 0.  1.
    3000001    1    5    5    0    0  0.22089246632E+01 -0.17985597262E+02 -0.19998651739E+02  0.27005686964E+02  0.10000000000E+01 0.  1.
        -13    1    6    6    0    0  0.67202491598E+01 -0.12469683300E+02 -0.11126109891E+02  0.18012664897E+02  0.10500000000E+00 0.  1.
         13    1    6    6    0    0  0.66163283949E+01 -0.12015747912E+02 -0.10837113696E+02  0.17481649167E+02  0.10500000000E+00 0. -1.
</event>
<event>
11    0  0.3396091E-009  0.9118800E+02  0.7816531E-02  0.1126479E+00
         25   -1    0    0    0    0  0.00000000000E+00  0.00000000000E+00  0.99999998245E-14  0.12500000000E+03  0.12500000000E+03 0.  0.
    3000001    1    3    3    0    0  0.47207571682E+02 -0.81433508310E+01  0.19915621444E+02  0.51889314549E+02  0.10000000000E+01 0. -1.
    1000022    2    1    0    0    0  0.55583483092E+02 -0.60504801276E+01  0.26079075439E+02  0.62500000790E+02  0.10000001030E+02 0.  0.
    3000022    2    3    3    0    0  0.83759114100E+01  0.20928707034E+01  0.61634539942E+01  0.10610686241E+02  0.24999526440E+00 0.  0.
    1000022    2    1    0    0    0 -0.55583483092E+02  0.60504801276E+01 -0.26079075439E+02  0.62499999210E+02  0.99999911571E+01 0.  0.
    3000022    2    5    5    0    0 -0.10476926471E+02 -0.23712381886E+01 -0.68175034536E+01  0.12725156720E+02  0.25000276698E+00 0.  0.
        -13    1    4    4    0    0  0.51398090226E+01  0.12210785806E+01  0.37611934124E+01  0.64858515690E+01  0.10500000000E+00 0. -1.
         13    1    4    4    0    0  0.32361023873E+01  0.87179212282E+00  0.24022605818E+01  0.41248346718E+01  0.10500000000E+00 0.  1.
    3000001    1    5    5    0    0 -0.45106556621E+02  0.84217183163E+01 -0.19261571985E+02  0.49774842490E+02  0.10000000000E+01 0. -1.
        -13    1    6    6    0    0 -0.28925472174E+01 -0.61610018631E+00 -0.18842618979E+01  0.35082583634E+01  0.10500000000E+00 0.  1.
         13    1    6    6    0    0 -0.75843792539E+01 -0.17551380023E+01 -0.49332415556E+01  0.92168983568E+01  0.10500000000E+00 0. -1.
</event>
<event>
11    0  0.3396091E-009  0.9118800E+02  0.7816531E-02  0.1126479E+00
         25   -1    0    0    0    0  0.00000000000E+00  0.00000000000E+00  0.99999998245E-14  0.12500000000E+03  0.12500000000E+03 0.  0.
    3000001    1    3    3    0    0 -0.15515466752E+02  0.38537259211E+02  0.30084079813E+02  0.51302065399E+02  0.10000000000E+01 0. -1.
    1000022    2    1    0    0    0 -0.17396014883E+02  0.49209428923E+02  0.32894691631E+02  0.62499999772E+02  0.10000000262E+02 0.  0.
    3000022    2    3    3    0    0 -0.18805481316E+01  0.10672169712E+02  0.28106118184E+01  0.11197934373E+02  0.25005557298E+00 0.  0.
    1000022    2    1    0    0    0  0.17396014883E+02 -0.49209428923E+02 -0.32894691631E+02  0.62500000228E+02  0.10000003113E+02 0.  0.
    3000022    2    5    5    0    0  0.13775325027E+02 -0.35126193959E+02 -0.18531820398E+02  0.42036887754E+02  0.24996620767E+00 0.  0.
        -13    1    4    4    0    0 -0.66629203777E+00  0.37143153169E+01  0.92206646031E+00  0.38860410330E+01  0.10500000000E+00 0. -1.
         13    1    4    4    0    0 -0.12142560938E+01  0.69578543952E+01  0.18885453581E+01  0.73118933400E+01  0.10500000000E+00 0.  1.
    3000001    1    5    5    0    0  0.36206898564E+01 -0.14083234964E+02 -0.14362871233E+02  0.20463112474E+02  0.10000000000E+01 0.  1.
        -13    1    6    6    0    0  0.97248816275E+01 -0.24910130177E+02 -0.13149426851E+02  0.29799435558E+02  0.10500000000E+00 0. -1.
         13    1    6    6    0    0  0.40504433994E+01 -0.10216063782E+02 -0.53823935476E+01  0.12237452195E+02  0.10500000000E+00 0.  1.
</event>
<event>
11    0  0.3396091E-009  0.9118800E+02  0.7816531E-02  0.1126479E+00
         25   -1    0    0    0    0  0.00000000000E+00  0.00000000000E+00  0.99999998245E-14  0.12500000000E+03  0.12500000000E+03 0.  0.
    3000001    1    3    3    0    0 -0.69314784769E+01  0.44824437197E+02  0.35007068195E+02  0.57304191709E+02  0.10000000000E+01 0. -1.
    1000022    2    1    0    0    0 -0.70522841834E+01  0.49993293753E+02  0.35456813618E+02  0.62500001948E+02  0.10000023948E+02 0.  0.
    3000022    2    3    3    0    0 -0.12080570649E+00  0.51688565568E+01  0.44974542375E+00  0.51958102383E+01  0.25000192612E+00 0.  0.
    1000022    2    1    0    0    0  0.70522841834E+01 -0.49993293753E+02 -0.35456813618E+02  0.62499998052E+02  0.99999996043E+01 0.  0.
    3000022    2    5    5    0    0  0.56293342925E+01 -0.41459952773E+02 -0.33436258708E+02  0.53559900915E+02  0.25000224990E+00 0.  0.
        -13    1    4    4    0    0 -0.76869386057E-01  0.20004465400E+01  0.22829217253E+00  0.20176316755E+01  0.10500000000E+00 0. -1.
         13    1    4    4    0    0 -0.43936320437E-01  0.31684100168E+01  0.22145325122E+00  0.31781785628E+01  0.10500000000E+00 0.  1.
    3000001    1    5    5    0    0  0.14229498910E+01 -0.85333409805E+01 -0.20205549100E+01  0.89400971374E+01  0.10000000000E+01 0. -1.
        -13    1    6    6    0    0  0.13504418855E+01 -0.98438604330E+01 -0.79536562568E+01  0.12727802417E+02  0.10500000000E+00 0.  1.
         13    1    6    6    0    0  0.42788924069E+01 -0.31616092340E+02 -0.25482602451E+02  0.40832098498E+02  0.10500000000E+00 0. -1.
</event>
<event>
11    0  0.3396091E-009  0.9118800E+02  0.7816531E-02  0.1126479E+00
         25   -1    0    0    0    0  0.00000000000E+00  0.00000000000E+00  0.99999998245E-14  0.12500000000E+03  0.12500000000E+03 0.  0.
    3000001    1    3    3    0    0 -0.12613474038E+02  0.59742926823E+01 -0.20881448685E+02  0.25136165172E+02  0.10000000000E+01 0. -1.
    1000022    2    1    0    0    0 -0.35577166222E+02  0.37058849359E+01 -0.50267101833E+02  0.62499997157E+02  0.99999889195E+01 0.  0.
    3000022    2    3    3    0    0 -0.22963692184E+02 -0.22684077464E+01 -0.29385653147E+02  0.37363831985E+02  0.24999451504E+00 0.  0.
    1000022    2    1    0    0    0  0.35577166222E+02 -0.37058849359E+01  0.50267101833E+02  0.62500002843E+02  0.10000024458E+02 0.  0.
    3000022    2    5    5    0    0  0.37868558174E+01  0.26822375810E+01  0.74560606753E+01  0.87857850800E+01  0.25000650914E+00 0.  0.
        -13    1    4    4    0    0 -0.12332359050E+02 -0.12853935545E+01 -0.15778790593E+02  0.20067899091E+02  0.10500000000E+00 0. -1.
         13    1    4    4    0    0 -0.10631333134E+02 -0.98301419190E+00 -0.13606862554E+02  0.17295932894E+02  0.10500000000E+00 0.  1.
    3000001    1    5    5    0    0  0.31790310405E+02 -0.63881225169E+01  0.42811041157E+02  0.53714217763E+02  0.10000000000E+01 0.  1.
        -13    1    6    6    0    0  0.19950930148E+01  0.13309331968E+01  0.38341150713E+01  0.45236315823E+01  0.10500000000E+00 0.  1.
         13    1    6    6    0    0  0.17917628026E+01  0.13513043842E+01  0.36219456041E+01  0.42621534977E+01  0.10500000000E+00 0. -1.
</event>
<event>
11    0  0.3396091E-009  0.9118800E+02  0.7816531E-02  0.1126479E+00
         25   -1    0    0    0    0  0.00000000000E+00  0.00000000000E+00  0.99999998245E-14  0.12500000000E+03  0.12500000000E+03 0.  0.
    3000001    1    3    3    0    0 -0.36775877352E+01  0.83909755478E+00  0.83502600416E+01  0.92171350765E+01  0.10000000000E+01 0.  1.
    1000022    2    1    0    0    0 -0.60412442691E+01  0.19044518950E+02  0.58370024881E+02  0.62499999270E+02  0.99999884910E+01 0.  0.
    3000022    2    3    3    0    0 -0.23636565339E+01  0.18205421395E+02  0.50019764839E+02  0.53282864194E+02  0.25000342891E+00 0.  0.
    1000022    2    1    0    0    0  0.60412442691E+01 -0.19044518950E+02 -0.58370024881E+02  0.62500000730E+02  0.99999976141E+01 0.  0.
    3000022    2    5    5    0    0  0.21043843633E+01  0.26185150760E+00 -0.10659018928E+02  0.10870794895E+02  0.24999473598E+00 0.  0.
        -13    1    4    4    0    0 -0.86373962217E+00  0.62354460594E+01  0.17190482482E+02  0.18307117377E+02  0.10500000000E+00 0.  1.
         13    1    4    4    0    0 -0.14999169118E+01  0.11969975336E+02  0.32829282357E+02  0.34975746816E+02  0.10500000000E+00 0. -1.
    3000001    1    5    5    0    0  0.39368599058E+01 -0.19306370457E+02 -0.47711005953E+02  0.51629205835E+02  0.10000000000E+01 0. -1.
        -13    1    6    6    0    0  0.14956260812E+01  0.16626036973E+00 -0.77301068032E+01  0.78759200144E+01  0.10500000000E+00 0.  1.
         13    1    6    6    0    0  0.60875828215E+00  0.95591137869E-01 -0.29289121252E+01  0.29948748804E+01  0.10500000000E+00 0. -1.
</event>
<event>
11    0  0.3396091E-009  0.9118800E+02  0.7816531E-02  0.1126479E+00
         25   -1    0    0    0    0  0.00000000000E+00  0.00000000000E+00  0.99999998245E-14  0.12500000000E+03  0.12500000000E+03 0.  0.
    3000001    1    3    3    0    0  0.21522367851E+02 -0.44859699654E+02  0.28778358789E+02  0.57487380403E+02  0.10000000000E+01 0.  1.
    1000022    2    1    0    0    0  0.20511501719E+02 -0.48755749750E+02  0.31755400782E+02  0.62499998616E+02  0.99999755881E+01 0.  0.
    3000022    2    3    3    0    0 -0.10108661323E+01 -0.38960500961E+01  0.29770419925E+01  0.50126182135E+01  0.25001128053E+00 0.  0.
    1000022    2    1    0    0    0 -0.20511501719E+02  0.48755749750E+02 -0.31755400782E+02  0.62500001384E+02  0.99999928875E+01 0.  0.
    3000022    2    5    5    0    0 -0.13145449367E+02  0.41115380347E+02 -0.25115418790E+02  0.49941206349E+02  0.24998100500E+00 0.  0.
        -13    1    4    4    0    0 -0.71075036321E+00 -0.27928631419E+01  0.21774278686E+01  0.36135118280E+01  0.10500000000E+00 0.  1.
         13    1    4    4    0    0 -0.30011576906E+00 -0.11031869542E+01  0.79961412393E+00  0.13991063855E+01  0.10500000000E+00 0. -1.
    3000001    1    5    5    0    0 -0.73660523524E+01  0.76403694027E+01 -0.66399819917E+01  0.12558795034E+02  0.10000000000E+01 0. -1.
        -13    1    6    6    0    0 -0.39704372594E+01  0.12287614942E+02 -0.75390925106E+01  0.14953220184E+02  0.10500000000E+00 0.  1.
         13    1    6    6    0    0 -0.91750121072E+01  0.28827765405E+02 -0.17576326279E+02  0.34987986165E+02  0.10500000000E+00 0. -1.
</event>
<event>
11    0  0.3396091E-009  0.9118800E+02  0.7816531E-02  0.1126479E+00
         25   -1    0    0    0    0  0.00000000000E+00  0.00000000000E+00  0.99999998245E-14  0.12500000000E+03  0.12500000000E+03 0.  0.
    3000001    1    3    3    0    0  0.63900936682E+00  0.75816325177E+01 -0.10375433380E+02  0.12905003000E+02  0.10000000000E+01 0. -1.
    1000022    2    1    0    0    0  0.21116562360E+02  0.37780389857E+02 -0.43965701044E+02  0.62499999760E+02  0.10000001904E+02 0.  0.
    3000022    2    3    3    0    0  0.20477552993E+02  0.30198757339E+02 -0.33590267664E+02  0.49594996760E+02  0.25000097122E+00 0.  0.
    1000022    2    1    0    0    0 -0.21116562360E+02 -0.37780389857E+02  0.43965701044E+02  0.62500000240E+02  0.10000004905E+02 0.  0.
    3000022    2    5    5    0    0 -0.59665756055E+01 -0.86792603399E+01  0.17093474743E+02  0.20079316792E+02  0.24999911007E+00 0.  0.
        -13    1    4    4    0    0  0.90290764933E+01  0.13433609032E+02 -0.14901756192E+02  0.22001350789E+02  0.10500000000E+00 0.  1.
         13    1    4    4    0    0  0.11448476500E+02  0.16765148307E+02 -0.18688511472E+02  0.27593645971E+02  0.10500000000E+00 0. -1.
    3000001    1    5    5    0    0 -0.15149986754E+02 -0.29101129517E+02  0.26872226302E+02  0.42420683448E+02  0.10000000000E+01 0.  1.
        -13    1    6    6    0    0 -0.41316771304E+01 -0.59336748924E+01  0.11687917475E+02  0.13744005732E+02  0.10500000000E+00 0.  1.
         13    1    6    6    0    0 -0.18348984752E+01 -0.27455854476E+01  0.54055572672E+01  0.63353110605E+01  0.10500000000E+00 0. -1.
</event>
<event>
11    0  0.3396091E-009  0.9118800E+02  0.7816531E-02  0.1126479E+00
         25   -1    0    0    0    0  0.00000000000E+00  0.00000000000E+00  0.99999998245E-14  0.12500000000E+03  0.12500000000E+03 0.  0.
    3000001    1    3    3    0    0  0.14430452051E+02  0.23532791972E+01  0.10882849946E+02  0.18254103438E+02  0.10000000000E+01 0.  1.
    1000022    2    1    0    0    0  0.54979496000E+02 -0.26456780160E+01  0.27865849259E+02  0.62499999306E+02  0.99999882881E+01 0.  0.
    3000022    2    3    3    0    0  0.40549043949E+02 -0.49989572131E+01  0.16982999313E+02  0.44245895868E+02  0.24999423027E+00 0.  0.
    1000022    2    1    0    0    0 -0.54979496000E+02  0.26456780160E+01 -0.27865849259E+02  0.62500000694E+02  0.99999969637E+01 0.  0.
    3000022    2    5    5    0    0 -0.26415047286E+02  0.62223202594E+01 -0.13462599279E+02  0.30294819278E+02  0.25000640167E+00 0.  0.
        -13    1    4    4    0    0  0.22466247911E+02 -0.28114874960E+01  0.94677531926E+01  0.24541518548E+02  0.10500000000E+00 0. -1.
         13    1    4    4    0    0  0.18082796038E+02 -0.21874697171E+01  0.75152461206E+01  0.19704377320E+02  0.10500000000E+00 0.  1.
    3000001    1    5    5    0    0 -0.28564448714E+02 -0.35766422434E+01 -0.14403249980E+02  0.32205181416E+02  0.10000000000E+01 0. -1.
        -13    1    6    6    0    0 -0.80386171083E+01  0.18526957660E+01 -0.41202139618E+01  0.92216611685E+01  0.10500000000E+00 0.  1.
         13    1    6    6    0    0 -0.18376430178E+02  0.43696244934E+01 -0.93423853177E+01  0.21073158110E+02  0.10500000000E+00 0. -1.
</event>
<event>
11    0  0.3396091E-009  0.9118800E+02  0.7816531E-02  0.1126479E+00
         25   -1    0    0    0    0  0.00000000000E+00  0.00000000000E+00  0.99999998245E-14  0.12500000000E+03  0.12500000000E+03 0.  0.
    3000001    1    3    3    0    0  0.27182308726E+02  0.69393120804E+01 -0.27298958840E+02  0.39156929318E+02  0.10000000000E+01 0. -1.
    1000022    2    1    0    0    0  0.40403996728E+02  0.46181503063E+01 -0.46394393486E+02  0.62499999875E+02  0.99999986792E+01 0.  0.
    3000022    2    3    3    0    0  0.13221688002E+02 -0.23211617741E+01 -0.19095434646E+02  0.23343070558E+02  0.24998624976E+00 0.  0.
    1000022    2    1    0    0    0 -0.40403996728E+02 -0.46181503063E+01  0.46394393486E+02  0.62500000125E+02  0.10000000239E+02 0.  0.
    3000022    2    5    5    0    0 -0.40426493178E+02 -0.43408786685E+01  0.45989113995E+02  0.61385712407E+02  0.25000690189E+00 0.  0.
        -13    1    4    4    0    0  0.80955798971E+01 -0.14167799233E+01 -0.11583145941E+02  0.14203026935E+02  0.10500000000E+00 0. -1.
         13    1    4    4    0    0  0.51261081049E+01 -0.90438185075E+00 -0.75122887057E+01  0.91400436232E+01  0.10500000000E+00 0.  1.
    3000001    1    5    5    0    0  0.22496449403E-01 -0.27727163784E+00  0.40527949122E+00  0.11142877175E+01  0.10000000000E+01 0.  1.
        -13    1    6    6    0    0 -0.23974210381E+02 -0.25327579116E+01  0.27194555679E+02  0.36341883682E+02  0.10500000000E+00 0.  1.
         13    1    6    6    0    0 -0.16452282797E+02 -0.18081207569E+01  0.18794558316E+02  0.25043828725E+02  0.10500000000E+00 0. -1.
</event>
<event>
11    0  0.3396091E-009  0.9118800E+02  0.7816531E-02  0.1126479E+00
         25   -1    0    0    0    0  0.00000000000E+00  0.00000000000E+00  0.99999998245E-14  0.12500000000E+03  0.12500000000E+03 0.  0.
    3000001    1    3    3    0    0 -0.12146186456E+01 -0.13648208252E+02  0.52762970106E+02  0.54522288116E+02  0.10000000000E+01 0. -1.
    1000022    2    1    0    0    0 -0.50112861650E+01 -0.15949740204E+02  0.59386375333E+02  0.62499990130E+02  0.99999994701E+01 0.  0.
    3000022    2    3    3    0    0 -0.37966675194E+01 -0.23015319517E+01  0.66234052269E+01  0.79777020139E+01  0.24999808984E+00 0.  0.
    1000022    2    1    0    0    0  0.50112861650E+01  0.15949740204E+02 -0.59386375333E+02  0.62500009870E+02  0.10000122846E+02 0.  0.
    3000022    2    5    5    0    0  0.46213610220E+01  0.37700838686E+01 -0.31353851508E+02  0.31917033199E+02  0.24998751665E+00 0.  0.
        -13    1    4    4    0    0 -0.15852474133E+01 -0.10311367190E+01  0.28672829824E+01  0.34363627567E+01  0.10500000000E+00 0.  1.
         13    1    4    4    0    0 -0.22114201061E+01 -0.12703952327E+01  0.37561222445E+01  0.45413392572E+01  0.10500000000E+00 0. -1.
    3000001    1    5    5    0    0  0.38992514302E+00  0.12179656335E+02 -0.28032523825E+02  0.30582976671E+02  0.10000000000E+01 0. -1.
        -13    1    6    6    0    0  0.34784955612E+01  0.28222515769E+01 -0.23656949231E+02  0.24077527017E+02  0.10500000000E+00 0.  1.
         13    1    6    6    0    0  0.11428654607E+01  0.94783229176E+00 -0.76969022773E+01  0.78395061823E+01  0.10500000000E+00 0. -1.
</event>
<event>
11    0  0.3396091E-009  0.9118800E+02  0.7816531E-02  0.1126479E+00
         25   -1    0    0    0    0  0.00000000000E+00  0.00000000000E+00  0.99999998245E-14  0.12500000000E+03  0.12500000000E+03 0.  0.
    3000001    1    3    3    0    0 -0.21733106181E+02  0.38618396307E+02  0.49929881079E+01  0.44605362546E+02  0.10000000000E+01 0. -1.
    1000022    2    1    0    0    0 -0.34397592955E+02  0.51120098062E+02  0.31291475085E+01  0.62500003483E+02  0.10000002216E+02 0.  0.
    3000022    2    3    3    0    0 -0.12664486774E+02  0.12501701755E+02 -0.18638405994E+01  0.17894640938E+02  0.25000096548E+00 0.  0.
    1000022    2    1    0    0    0  0.34397592955E+02 -0.51120098062E+02 -0.31291475085E+01  0.62499996517E+02  0.99999586738E+01 0.  0.
    3000022    2    5    5    0    0  0.16286914137E+02 -0.16112597808E+02  0.39849445496E+00  0.22915074903E+02  0.24995954148E+00 0.  0.
        -13    1    4    4    0    0 -0.49331892668E+01  0.49408845901E+01 -0.76775521183E+00  0.70248964363E+01  0.10500000000E+00 0.  1.
         13    1    4    4    0    0 -0.77312975071E+01  0.75608171651E+01 -0.10960853876E+01  0.10869744501E+02  0.10500000000E+00 0. -1.
    3000001    1    5    5    0    0  0.18110678818E+02 -0.35007500255E+02 -0.35276419634E+01  0.39584921613E+02  0.10000000000E+01 0. -1.
        -13    1    6    6    0    0  0.88969827096E+01 -0.88841861395E+01  0.18686398597E+00  0.12575015222E+02  0.10500000000E+00 0. -1.
         13    1    6    6    0    0  0.73899314275E+01 -0.72284116680E+01  0.21163046899E+00  0.10340059681E+02  0.10500000000E+00 0.  1.
</event>
<event>
11    0  0.3396091E-009  0.9118800E+02  0.7816531E-02  0.1126479E+00
         25   -1    0    0    0    0  0.00000000000E+00  0.00000000000E+00  0.99999998245E-14  0.12500000000E+03  0.12500000000E+03 0.  0.
    3000001    1    3    3    0    0  0.13557162012E+02 -0.26225291648E+01  0.31238254857E+01  0.14192694836E+02  0.10000000000E+01 0. -1.
    1000022    2    1    0    0    0  0.56190790010E+02  0.17524528072E+01  0.25412085477E+02  0.62500000034E+02  0.99999971559E+01 0.  0.
    3000022    2    3    3    0    0  0.42633627998E+02  0.43749819720E+01  0.22288259992E+02  0.48307305198E+02  0.24999698492E+00 0.  0.
    1000022    2    1    0    0    0 -0.56190790010E+02 -0.17524528072E+01 -0.25412085477E+02  0.62499999966E+02  0.99999967310E+01 0.  0.
    3000022    2    5    5    0    0 -0.46279532468E+02  0.19198873484E+01 -0.18782925555E+02  0.49983416184E+02  0.25001634404E+00 0.  0.
        -13    1    4    4    0    0  0.19853271029E+02  0.20946085701E+01  0.10422358203E+02  0.22520575728E+02  0.10500000000E+00 0. -1.
         13    1    4    4    0    0  0.22780356969E+02  0.22803734018E+01  0.11865901789E+02  0.25786729470E+02  0.10500000000E+00 0.  1.
    3000001    1    5    5    0    0 -0.99112575425E+01 -0.36723401556E+01 -0.66291599219E+01  0.12516583782E+02  0.10000000000E+01 0. -1.
        -13    1    6    6    0    0 -0.17451055095E+02  0.73516493623E+00 -0.70187760282E+01  0.18824293701E+02  0.10500000000E+00 0.  1.
         13    1    6    6    0    0 -0.28828477372E+02  0.11847224122E+01 -0.11764149527E+02  0.31159122483E+02  0.10500000000E+00 0. -1.
</event>
<event>
11    0  0.3396091E-009  0.9118800E+02  0.7816531E-02  0.1126479E+00
         25   -1    0    0    0    0  0.00000000000E+00  0.00000000000E+00  0.99999998245E-14  0.12500000000E+03  0.12500000000E+03 0.  0.
    3000001    1    3    3    0    0  0.15466501991E+02  0.20985479414E+02  0.59014944520E+01  0.26747535715E+02  0.10000000000E+01 0. -1.
    1000022    2    1    0    0    0  0.28054480631E+02  0.50470084073E+02  0.21724797658E+02  0.62499997754E+02  0.99999808102E+01 0.  0.
    3000022    2    3    3    0    0  0.12587978640E+02  0.29484604659E+02  0.15823303206E+02  0.35752462039E+02  0.24999873919E+00 0.  0.
    1000022    2    1    0    0    0 -0.28054480631E+02 -0.50470084073E+02 -0.21724797658E+02  0.62500002246E+02  0.10000008884E+02 0.  0.
    3000022    2    5    5    0    0 -0.67530745018E+01 -0.22065876244E+02 -0.90288236215E+01  0.24780820359E+02  0.24998410938E+00 0.  0.
        -13    1    4    4    0    0  0.36806775883E+01  0.86531083873E+01  0.45944074451E+01  0.10466292421E+02  0.10500000000E+00 0. -1.
         13    1    4    4    0    0  0.89073010515E+01  0.20831496271E+02  0.11228895761E+02  0.25286169618E+02  0.10500000000E+00 0.  1.
    3000001    1    5    5    0    0 -0.21301406129E+02 -0.28404207829E+02 -0.12695974037E+02  0.37719181886E+02  0.10000000000E+01 0.  1.
        -13    1    6    6    0    0 -0.30396081532E+01 -0.10147338691E+02 -0.41200014128E+01  0.11366315889E+02  0.10500000000E+00 0.  1.
         13    1    6    6    0    0 -0.37134663486E+01 -0.11918537553E+02 -0.49088222087E+01  0.13414504471E+02  0.10500000000E+00 0. -1.
</event>
<event>
11    0  0.3396091E-009  0.9118800E+02  0.7816531E-02  0.1126479E+00
         25   -1    0    0    0    0  0.00000000000E+00  0.00000000000E+00  0.99999998245E-14  0.12500000000E+03  0.12500000000E+03 0.  0.
    3000001    1    3    3    0    0 -0.50944949679E+02 -0.15633375671E+01 -0.30612372102E+02  0.59463848243E+02  0.10000000000E+01 0. -1.
    1000022    2    1    0    0    0 -0.53784162465E+02 -0.24874564615E+01 -0.30121853600E+02  0.62500002471E+02  0.10000033642E+02 0.  0.
    3000022    2    3    3    0    0 -0.28392127860E+01 -0.92411889433E+00  0.49051850219E+00  0.30361542279E+01  0.24999823821E+00 0.  0.
    1000022    2    1    0    0    0  0.53784162465E+02  0.24874564615E+01  0.30121853600E+02  0.62499997529E+02  0.10000002758E+02 0.  0.
    3000022    2    5    5    0    0  0.12227376746E+02  0.45945942902E+01  0.86195519521E+01  0.15651780431E+02  0.25003205801E+00 0.  0.
        -13    1    4    4    0    0 -0.19382375490E+01 -0.61076187724E+00  0.28558127437E+00  0.20548422157E+01  0.10500000000E+00 0.  1.
         13    1    4    4    0    0 -0.90097523701E+00 -0.31335701709E+00  0.20493722782E+00  0.98131201216E+00  0.10500000000E+00 0. -1.
    3000001    1    5    5    0    0  0.41556785719E+02 -0.21071378287E+01  0.21502301648E+02  0.46848217098E+02  0.10000000000E+01 0. -1.
        -13    1    6    6    0    0  0.86014392319E+01  0.32167692885E+01  0.60081555672E+01  0.10974576066E+02  0.10500000000E+00 0.  1.
         13    1    6    6    0    0  0.36259375138E+01  0.13778250017E+01  0.26113963850E+01  0.46772043646E+01  0.10500000000E+00 0. -1.
</event>
<event>
11    0  0.3396091E-009  0.9118800E+02  0.7816531E-02  0.1126479E+00
         25   -1    0    0    0    0  0.00000000000E+00  0.00000000000E+00  0.99999998245E-14  0.12500000000E+03  0.12500000000E+03 0.  0.
    3000001    1    3    3    0    0  0.69161942723E+01  0.23691633899E+01 -0.67446293762E+00  0.74095599487E+01  0.10000000000E+01 0. -1.
    1000022    2    1    0    0    0  0.57066512788E+02  0.90527769565E+00 -0.23427413428E+02  0.62500000706E+02  0.99999989407E+01 0.  0.
    3000022    2    3    3    0    0  0.50150318516E+02 -0.14638856942E+01 -0.22752950490E+02  0.55090440757E+02  0.24999648093E+00 0.  0.
    1000022    2    1    0    0    0 -0.57066512788E+02 -0.90527769565E+00  0.23427413428E+02  0.62499999294E+02  0.99999901184E+01 0.  0.
    3000022    2    5    5    0    0 -0.15858762426E+02  0.39546996000E+01  0.50550688242E+01  0.17110120296E+02  0.25000225202E+00 0.  0.
        -13    1    4    4    0    0  0.20261771102E+02 -0.52887311672E+00 -0.92035163630E+01  0.22260611255E+02  0.10500000000E+00 0. -1.
         13    1    4    4    0    0  0.29888547413E+02 -0.93501257749E+00 -0.13549434127E+02  0.32829829503E+02  0.10500000000E+00 0.  1.
    3000001    1    5    5    0    0 -0.41207750362E+02 -0.48599772956E+01  0.18372344604E+02  0.45389878998E+02  0.10000000000E+01 0.  1.
        -13    1    6    6    0    0 -0.10738968495E+02  0.26367487479E+01  0.33858570907E+01  0.11565160679E+02  0.10500000000E+00 0. -1.
         13    1    6    6    0    0 -0.51197939304E+01  0.13179508521E+01  0.16692117336E+01  0.55449596166E+01  0.10500000000E+00 0.  1.
</event>
<event>
11    0  0.3396091E-009  0.9118800E+02  0.7816531E-02  0.1126479E+00
         25   -1    0    0    0    0  0.00000000000E+00  0.00000000000E+00  0.99999998245E-14  0.12500000000E+03  0.12500000000E+03 0.  0.
    3000001    1    3    3    0    0  0.23125989899E+02  0.53660449406E+01  0.10031907806E+02  0.25792344239E+02  0.10000000000E+01 0.  1.
    1000022    2    1    0    0    0  0.55763553466E+02  0.14077073492E+01  0.26357057009E+02  0.62499999897E+02  0.99999998927E+01 0.  0.
    3000022    2    3    3    0    0  0.32637563567E+02 -0.39583375915E+01  0.16325149202E+02  0.36707655658E+02  0.24999071327E+00 0.  0.
    1000022    2    1    0    0    0 -0.55763553466E+02 -0.14077073492E+01 -0.26357057009E+02  0.62500000103E+02  0.10000001179E+02 0.  0.
    3000022    2    5    5    0    0 -0.14795092355E+02 -0.22626582892E-01 -0.23432085877E+01  0.14981601871E+02  0.24999677051E+00 0.  0.
        -13    1    4    4    0    0  0.24676828669E+02 -0.29761898586E+01  0.12325090639E+02  0.27743872540E+02  0.10500000000E+00 0. -1.
         13    1    4    4    0    0  0.79607348978E+01 -0.98214773290E+00  0.40000585633E+01  0.89637831183E+01  0.10500000000E+00 0.  1.
    3000001    1    5    5    0    0 -0.40968461111E+02 -0.13850807663E+01 -0.24013848421E+02  0.47518398232E+02  0.10000000000E+01 0.  1.
        -13    1    6    6    0    0 -0.80955886405E+01 -0.62927996386E-01 -0.12379435028E+01  0.81906070889E+01  0.10500000000E+00 0.  1.
         13    1    6    6    0    0 -0.66995037140E+01  0.40301413494E-01 -0.11052650849E+01  0.67909947818E+01  0.10500000000E+00 0. -1.
</event>
<event>
11    0  0.3396091E-009  0.9118800E+02  0.7816531E-02  0.1126479E+00
         25   -1    0    0    0    0  0.00000000000E+00  0.00000000000E+00  0.99999998245E-14  0.12500000000E+03  0.12500000000E+03 0.  0.
    3000001    1    3    3    0    0  0.51390331424E+02  0.15447936214E+02 -0.17022039568E+02  0.56305903138E+02  0.10000000000E+01 0.  1.
    1000022    2    1    0    0    0  0.56172943733E+02  0.14669511441E+02 -0.20872359365E+02  0.62499996199E+02  0.99999982978E+01 0.  0.
    3000022    2    3    3    0    0  0.47826123086E+01 -0.77842477285E+00 -0.38503197967E+01  0.61940930613E+01  0.25000138664E+00 0.  0.
    1000022    2    1    0    0    0 -0.56172943733E+02 -0.14669511441E+02  0.20872359365E+02  0.62500003801E+02  0.10000045806E+02 0.  0.
    3000022    2    5    5    0    0 -0.52784268284E+02 -0.14046477933E+02  0.21772334801E+02  0.58801186715E+02  0.24995163973E+00 0.  0.
        -13    1    4    4    0    0  0.20751015407E+01 -0.34121983222E+00 -0.15878352516E+01  0.26371809124E+01  0.10500000000E+00 0.  1.
         13    1    4    4    0    0  0.27075107679E+01 -0.43720494064E+00 -0.22624845451E+01  0.35569121489E+01  0.10500000000E+00 0. -1.
    3000001    1    5    5    0    0 -0.33886754486E+01 -0.62303350792E+00 -0.89997543588E+00  0.36988170856E+01  0.10000000000E+01 0. -1.
        -13    1    6    6    0    0 -0.19612097565E+02 -0.52358286752E+01  0.80294974729E+01  0.21829615835E+02  0.10500000000E+00 0.  1.
         13    1    6    6    0    0 -0.33172170719E+02 -0.88106492575E+01  0.13742837328E+02  0.36971570880E+02  0.10500000000E+00 0. -1.
</event>
<event>
11    0  0.3396091E-009  0.9118800E+02  0.7816531E-02  0.1126479E+00
         25   -1    0    0    0    0  0.00000000000E+00  0.00000000000E+00  0.99999998245E-14  0.12500000000E+03  0.12500000000E+03 0.  0.
    3000001    1    3    3    0    0 -0.30111894535E+01  0.10619103943E+02  0.86048523548E+01  0.14031254916E+02  0.10000000000E+01 0.  1.
    1000022    2    1    0    0    0 -0.22029378974E+02  0.52712795422E+02  0.23287712902E+02  0.62500000407E+02  0.10000006976E+02 0.  0.
    3000022    2    3    3    0    0 -0.19018189520E+02  0.42093691479E+02  0.14682860547E+02  0.48468745491E+02  0.25000131893E+00 0.  0.
    1000022    2    1    0    0    0  0.22029378974E+02 -0.52712795422E+02 -0.23287712902E+02  0.62499999593E+02  0.10000001890E+02 0.  0.
    3000022    2    5    5    0    0 -0.31397171196E+00 -0.78582030471E+01 -0.35504965435E+01  0.86324074200E+01  0.24999758823E+00 0.  0.
        -13    1    4    4    0    0 -0.12996327815E+02  0.28817163007E+02  0.10095823405E+02  0.33185389792E+02  0.10500000000E+00 0. -1.
         13    1    4    4    0    0 -0.60218617046E+01  0.13276528472E+02  0.45870371428E+01  0.15283355699E+02  0.10500000000E+00 0.  1.
    3000001    1    5    5    0    0  0.22343350685E+02 -0.44854592375E+02 -0.19737216359E+02  0.53867592173E+02  0.10000000000E+01 0.  1.
        -13    1    6    6    0    0 -0.21059131108E+00 -0.53719126590E+01 -0.23717842858E+01  0.58769192622E+01  0.10500000000E+00 0.  1.
         13    1    6    6    0    0 -0.10338040089E+00 -0.24862903881E+01 -0.11787122577E+01  0.27554881578E+01  0.10500000000E+00 0. -1.
</event>
<event>
11    0  0.3396091E-009  0.9118800E+02  0.7816531E-02  0.1126479E+00
         25   -1    0    0    0    0  0.00000000000E+00  0.00000000000E+00  0.99999998245E-14  0.12500000000E+03  0.12500000000E+03 0.  0.
    3000001    1    3    3    0    0  0.39610986891E+01  0.23753014118E+01 -0.62693174437E+01  0.78509044595E+01  0.10000000000E+01 0. -1.
    1000022    2    1    0    0    0  0.10959905361E+02  0.33622542623E+02 -0.50553487141E+02  0.62499999270E+02  0.99999974392E+01 0.  0.
    3000022    2    3    3    0    0  0.69988066722E+01  0.31247241211E+02 -0.44284169697E+02  0.54649094811E+02  0.24999956764E+00 0.  0.
    1000022    2    1    0    0    0 -0.10959905361E+02 -0.33622542623E+02  0.50553487141E+02  0.62500000730E+02  0.10000006558E+02 0.  0.
    3000022    2    5    5    0    0 -0.77231737144E+01 -0.10475009328E+02  0.22271073942E+02  0.25796055088E+02  0.24998176655E+00 0.  0.
        -13    1    4    4    0    0  0.46418896132E+01  0.20700877908E+02 -0.29431085393E+02  0.36280480947E+02  0.10500000000E+00 0. -1.
         13    1    4    4    0    0  0.23569170590E+01  0.10546363303E+02 -0.14853084304E+02  0.18368613864E+02  0.10500000000E+00 0.  1.
    3000001    1    5    5    0    0 -0.32367316470E+01 -0.23147533295E+02  0.28282413198E+02  0.36703945642E+02  0.10000000000E+01 0. -1.
        -13    1    6    6    0    0 -0.38701734253E+01 -0.51473369391E+01  0.10959168708E+02  0.12711716000E+02  0.10500000000E+00 0. -1.
         13    1    6    6    0    0 -0.38530002890E+01 -0.53276723892E+01  0.11311905235E+02  0.13084339087E+02  0.10500000000E+00 0.  1.
</event>
<event>
11    0  0.3396091E-009  0.9118800E+02  0.7816531E-02  0.1126479E+00
         25   -1    0    0    0    0  0.00000000000E+00  0.00000000000E+00  0.99999998245E-14  0.12500000000E+03  0.12500000000E+03 0.  0.
    3000001    1    3    3    0    0 -0.16115718406E+02  0.20235870844E+02 -0.21990787260E+01  0.25981585706E+02  0.10000000000E+01 0. -1.
    1000022    2    1    0    0    0 -0.30277459204E+02  0.53745428257E+02  0.97689576269E+00  0.62500001008E+02  0.10000010312E+02 0.  0.
    3000022    2    3    3    0    0 -0.14161740798E+02  0.33509557413E+02  0.31759744887E+01  0.36518415302E+02  0.25000348727E+00 0.  0.
    1000022    2    1    0    0    0  0.30277459204E+02 -0.53745428257E+02 -0.97689576269E+00  0.62499998992E+02  0.99999977157E+01 0.  0.
    3000022    2    5    5    0    0  0.25303007887E+02 -0.48512392641E+02  0.16822133648E+01  0.54741088694E+02  0.25000345386E+00 0.  0.
        -13    1    4    4    0    0 -0.79982548276E+01  0.18913792050E+02  0.17267978215E+01  0.20608165025E+02  0.10500000000E+00 0. -1.
         13    1    4    4    0    0 -0.61634859706E+01  0.14595765364E+02  0.14491766672E+01  0.15910250277E+02  0.10500000000E+00 0.  1.
    3000001    1    5    5    0    0  0.49744513166E+01 -0.52330356163E+01 -0.26591091275E+01  0.77589102981E+01  0.10000000000E+01 0. -1.
        -13    1    6    6    0    0  0.12957663982E+02 -0.24968547701E+02  0.89992111707E+00  0.28145165006E+02  0.10500000000E+00 0. -1.
         13    1    6    6    0    0  0.12345343905E+02 -0.23543844940E+02  0.78229224771E+00  0.26595923688E+02  0.10500000000E+00 0.  1.
</event>
<event>
11    0  0.3396091E-009  0.9118800E+02  0.7816531E-02  0.1126479E+00
         25   -1    0    0    0    0  0.00000000000E+00  0.00000000000E+00  0.99999998245E-14  0.12500000000E+03  0.12500000000E+03 0.  0.
    3000001    1    3    3    0    0 -0.97483956124E+01 -0.36237792476E+02  0.11649514262E+02  0.39305470397E+02  0.10000000000E+01 0. -1.
    1000022    2    1    0    0    0 -0.10756788587E+02 -0.59378764262E+02  0.12833700911E+02  0.62500000550E+02  0.10000002184E+02 0.  0.
    3000022    2    3    3    0    0 -0.10083929745E+01 -0.23140971785E+02  0.11841866482E+01  0.23194530153E+02  0.24999884975E+00 0.  0.
    1000022    2    1    0    0    0  0.10756788587E+02  0.59378764262E+02 -0.12833700911E+02  0.62499999450E+02  0.99999953154E+01 0.  0.
    3000022    2    5    5    0    0  0.95927803689E+01  0.55312334531E+02 -0.93112829697E+01  0.56905520562E+02  0.24998678741E+00 0.  0.
        -13    1    4    4    0    0 -0.32008285956E+00 -0.73573028314E+01  0.32617159469E+00  0.73722297102E+01  0.10500000000E+00 0.  1.
         13    1    4    4    0    0 -0.68831011498E+00 -0.15783668954E+02  0.85801505350E+00  0.15822300442E+02  0.10500000000E+00 0. -1.
    3000001    1    5    5    0    0  0.11640082181E+01  0.40664297305E+01 -0.35224179408E+01  0.55944788886E+01  0.10000000000E+01 0.  1.
        -13    1    6    6    0    0  0.68747334598E+01  0.39561909269E+02 -0.66206273604E+01  0.40697055874E+02  0.10500000000E+00 0.  1.
         13    1    6    6    0    0  0.27180469091E+01  0.15750425262E+02 -0.26906556094E+01  0.16208464688E+02  0.10500000000E+00 0. -1.
</event>
<event>
11    0  0.3396091E-009  0.9118800E+02  0.7816531E-02  0.1126479E+00
         25   -1    0    0    0    0  0.00000000000E+00  0.00000000000E+00  0.99999998245E-14  0.12500000000E+03  0.12500000000E+03 0.  0.
    3000001    1    3    3    0    0  0.11837820809E+01  0.56089698520E+02  0.16374893432E+01  0.56134989012E+02  0.10000000000E+01 0. -1.
    1000022    2    1    0    0    0  0.25659049036E+01  0.61630467234E+02 -0.11625966012E+01  0.62499999957E+02  0.10000000215E+02 0.  0.
    3000022    2    3    3    0    0  0.13821228226E+01  0.55407687143E+01 -0.28000859444E+01  0.63650109447E+01  0.25000317531E+00 0.  0.
    1000022    2    1    0    0    0 -0.25659049036E+01 -0.61630467234E+02  0.11625966012E+01  0.62500000043E+02  0.10000000753E+02 0.  0.
    3000022    2    5    5    0    0  0.35397789993E+01 -0.14960125079E+02 -0.61836269586E+00  0.15387665895E+02  0.25002310029E+00 0.  0.
        -13    1    4    4    0    0  0.43608428357E+00  0.15796740008E+01 -0.81574506434E+00  0.18335769581E+01  0.10500000000E+00 0. -1.
         13    1    4    4    0    0  0.94603853907E+00  0.39610947135E+01 -0.19843408800E+01  0.45314339866E+01  0.10500000000E+00 0.  1.
    3000001    1    5    5    0    0 -0.61056839029E+01 -0.46670342156E+02  0.17809592970E+01  0.47112334148E+02  0.10000000000E+01 0. -1.
        -13    1    6    6    0    0  0.81511437151E+00 -0.34364387340E+01 -0.13624308247E+00  0.35359736691E+01  0.10500000000E+00 0. -1.
         13    1    6    6    0    0  0.27246646278E+01 -0.11523686345E+02 -0.48211961339E+00  0.11851692226E+02  0.10500000000E+00 0.  1.
</event>
<event>
11    0  0.3396091E-009  0.9118800E+02  0.7816531E-02  0.1126479E+00
         25   -1    0    0    0    0  0.00000000000E+00  0.00000000000E+00  0.99999998245E-14  0.12500000000E+03  0.12500000000E+03 0.  0.
    3000001    1    3    3    0    0  0.26644135407E+02  0.36964813929E+02  0.36029337882E+00  0.45578912138E+02  0.10000000000E+01 0. -1.
    1000022    2    1    0    0    0  0.32698856726E+02  0.52081866035E+02  0.49511435646E+01  0.62500003072E+02  0.10000028026E+02 0.  0.
    3000022    2    3    3    0    0  0.60547213194E+01  0.15117052106E+02  0.45908501858E+01  0.16921090934E+02  0.24999666397E+00 0.  0.
    1000022    2    1    0    0    0 -0.32698856726E+02 -0.52081866035E+02 -0.49511435646E+01  0.62499996928E+02  0.99999896270E+01 0.  0.
    3000022    2    5    5    0    0 -0.57557739985E+01 -0.16935470148E+02  0.31494107221E+00  0.17891359894E+02  0.24997498240E+00 0.  0.
        -13    1    4    4    0    0  0.37108282099E+01  0.90982111512E+01  0.27796292966E+01  0.10212005493E+02  0.10500000000E+00 0.  1.
         13    1    4    4    0    0  0.23438931094E+01  0.60188409548E+01  0.18112208892E+01  0.67090854412E+01  0.10500000000E+00 0. -1.
    3000001    1    5    5    0    0 -0.26943082728E+02 -0.35146395887E+02 -0.52660846368E+01  0.44608637035E+02  0.10000000000E+01 0. -1.
        -13    1    6    6    0    0 -0.29675049199E+01 -0.85277848513E+01  0.17634616850E+00  0.90316843884E+01  0.10500000000E+00 0. -1.
         13    1    6    6    0    0 -0.27882690786E+01 -0.84076852971E+01  0.13859490371E+00  0.88596755052E+01  0.10500000000E+00 0.  1.
</event>
<event>
11    0  0.3396091E-009  0.9118800E+02  0.7816531E-02  0.1126479E+00
         25   -1    0    0    0    0  0.00000000000E+00  0.00000000000E+00  0.99999998245E-14  0.12500000000E+03  0.12500000000E+03 0.  0.
    3000001    1    3    3    0    0 -0.19312441404E+02  0.36814931939E+02 -0.42506476099E+02  0.59465200892E+02  0.10000000000E+01 0.  1.
    1000022    2    1    0    0    0 -0.20043744995E+02  0.36609400411E+02 -0.45434018773E+02  0.62500000017E+02  0.10000001416E+02 0.  0.
    3000022    2    3    3    0    0 -0.73130359066E+00 -0.20553152834E+00 -0.29275426739E+01  0.30347991250E+01  0.24990292291E+00 0.  0.
    1000022    2    1    0    0    0  0.20043744995E+02 -0.36609400411E+02  0.45434018773E+02  0.62499999983E+02  0.10000001209E+02 0.  0.
    3000022    2    5    5    0    0  0.14141665738E+02 -0.15568895821E+02  0.22903715354E+02  0.31096943681E+02  0.25000472546E+00 0.  0.
        -13    1    4    4    0    0 -0.16054189396E+00 -0.57581936925E-01 -0.78109779893E+00  0.80636725546E+00  0.10500000000E+00 0. -1.
         13    1    4    4    0    0 -0.57076169670E+00 -0.14794959141E+00 -0.21464448750E+01  0.22284318696E+01  0.10500000000E+00 0.  1.
    3000001    1    5    5    0    0  0.59020792565E+01 -0.21040504590E+02  0.22530303419E+02  0.31403056302E+02  0.10000000000E+01 0.  1.
        -13    1    6    6    0    0  0.96669974260E+01 -0.10695261244E+02  0.15749606928E+02  0.21351828861E+02  0.10500000000E+00 0.  1.
         13    1    6    6    0    0  0.44746683122E+01 -0.48736345763E+01  0.71541084258E+01  0.97451148201E+01  0.10500000000E+00 0. -1.
</event>
<event>
11    0  0.3396091E-009  0.9118800E+02  0.7816531E-02  0.1126479E+00
         25   -1    0    0    0    0  0.00000000000E+00  0.00000000000E+00  0.99999998245E-14  0.12500000000E+03  0.12500000000E+03 0.  0.
    3000001    1    3    3    0    0  0.49940084110E+01  0.41602267151E+01  0.59407387889E+02  0.59770271391E+02  0.10000000000E+01 0. -1.
    1000022    2    1    0    0    0  0.63157073101E+01  0.58340014424E+01  0.61092767072E+02  0.62499998938E+02  0.99999973497E+01 0.  0.
    3000022    2    3    3    0    0  0.13216988991E+01  0.16737747273E+01  0.16853791832E+01  0.27297275468E+01  0.24999934124E+00 0.  0.
    1000022    2    1    0    0    0 -0.63157073101E+01 -0.58340014424E+01 -0.61092767072E+02  0.62500001062E+02  0.10000010627E+02 0.  0.
    3000022    2    5    5    0    0 -0.45892306017E+01  0.37381089205E+00 -0.43393623959E+02  0.43637940656E+02  0.24998465173E+00 0.  0.
        -13    1    4    4    0    0  0.45530656219E+00  0.62624765831E+00  0.67797740280E+00  0.10344895136E+01  0.10500000000E+00 0.  1.
         13    1    4    4    0    0  0.86639233694E+00  0.10475270690E+01  0.10074017804E+01  0.16952380332E+01  0.10500000000E+00 0. -1.
    3000001    1    5    5    0    0 -0.17264767085E+01 -0.62078123345E+01 -0.17699143114E+02  0.18862060406E+02  0.10000000000E+01 0. -1.
        -13    1    6    6    0    0 -0.25062505420E+01  0.16842360765E+00 -0.24200274897E+02  0.24330515580E+02  0.10500000000E+00 0.  1.
         13    1    6    6    0    0 -0.20829800596E+01  0.20538728440E+00 -0.19193349062E+02  0.19307425076E+02  0.10500000000E+00 0. -1.
</event>
<event>
11    0  0.3396091E-009  0.9118800E+02  0.7816531E-02  0.1126479E+00
         25   -1    0    0    0    0  0.00000000000E+00  0.00000000000E+00  0.99999998245E-14  0.12500000000E+03  0.12500000000E+03 0.  0.
    3000001    1    3    3    0    0 -0.14583739540E+02  0.11551989136E+02  0.37137898565E+01  0.18998056403E+02  0.10000000000E+01 0.  1.
    1000022    2    1    0    0    0 -0.54836092487E+02  0.24863390356E+02  0.13456031226E+02  0.62499999849E+02  0.99999992757E+01 0.  0.
    3000022    2    3    3    0    0 -0.40252352947E+02  0.13311401219E+02  0.97422413698E+01  0.43501943447E+02  0.24999298918E+00 0.  0.
    1000022    2    1    0    0    0  0.54836092487E+02 -0.24863390356E+02 -0.13456031226E+02  0.62500000151E+02  0.10000001161E+02 0.  0.
    3000022    2    5    5    0    0  0.11652094727E+02 -0.86220141341E+01 -0.24963713930E+00  0.14499491727E+02  0.25000478427E+00 0.  0.
        -13    1    4    4    0    0 -0.14753915639E+02  0.48372659785E+01  0.35231424015E+01  0.15921706134E+02  0.10500000000E+00 0.  1.
         13    1    4    4    0    0 -0.25498437309E+02  0.84741352408E+01  0.62190989683E+01  0.27580237313E+02  0.10500000000E+00 0. -1.
    3000001    1    5    5    0    0  0.43183997760E+02 -0.16241376222E+02 -0.13206394087E+02  0.48000508424E+02  0.10000000000E+01 0.  1.
        -13    1    6    6    0    0  0.39232237325E+01 -0.28484914031E+01 -0.52388436502E-01  0.48496759971E+01  0.10500000000E+00 0.  1.
         13    1    6    6    0    0  0.77288709946E+01 -0.57735227310E+01 -0.19724870280E+00  0.96498157302E+01  0.10500000000E+00 0. -1.
</event>
<event>
11    0  0.3396091E-009  0.9118800E+02  0.7816531E-02  0.1126479E+00
         25   -1    0    0    0    0  0.00000000000E+00  0.00000000000E+00  0.99999998245E-14  0.12500000000E+03  0.12500000000E+03 0.  0.
    3000001    1    3    3    0    0  0.18241751931E+02 -0.46106060507E+02 -0.28440071936E+02  0.57169642475E+02  0.10000000000E+01 0. -1.
    1000022    2    1    0    0    0  0.19468463590E+02 -0.51283282140E+02 -0.28235687118E+02  0.62500000946E+02  0.99999994769E+01 0.  0.
    3000022    2    3    3    0    0  0.12267116588E+01 -0.51772216334E+01  0.20438481731E+00  0.53303584710E+01  0.25000588178E+00 0.  0.
    1000022    2    1    0    0    0 -0.19468463590E+02  0.51283282140E+02  0.28235687118E+02  0.62499999054E+02  0.99999876549E+01 0.  0.
    3000022    2    5    5    0    0 -0.45273368546E+01  0.24543967891E+02  0.14977514397E+02  0.29108273454E+02  0.25001427970E+00 0.  0.
        -13    1    4    4    0    0  0.49246840100E+00 -0.18336237727E+01  0.61364743793E-01  0.19024962280E+01  0.10500000000E+00 0. -1.
         13    1    4    4    0    0  0.73424325778E+00 -0.33435978607E+01  0.14302007352E+00  0.34278622430E+01  0.10500000000E+00 0.  1.
    3000001    1    5    5    0    0 -0.14941126735E+02  0.26739314249E+02  0.13258172722E+02  0.33391725600E+02  0.10000000000E+01 0.  1.
        -13    1    6    6    0    0 -0.19835712856E+01  0.10683321110E+02  0.64454226773E+01  0.12634176011E+02  0.10500000000E+00 0. -1.
         13    1    6    6    0    0 -0.25437655690E+01  0.13860646781E+02  0.85320917195E+01  0.16474097443E+02  0.10500000000E+00 0.  1.
</event>
<event>
11    0  0.3396091E-009  0.9118800E+02  0.7816531E-02  0.1126479E+00
         25   -1    0    0    0    0  0.00000000000E+00  0.00000000000E+00  0.99999998245E-14  0.12500000000E+03  0.12500000000E+03 0.  0.
    3000001    1    3    3    0    0  0.23104275111E+02  0.19030759205E+02 -0.72111276356E+01  0.30805481429E+02  0.10000000000E+01 0.  1.
    1000022    2    1    0    0    0  0.39185091182E+02  0.44160211944E+02 -0.17906824744E+02  0.62499999578E+02  0.99999942458E+01 0.  0.
    3000022    2    3    3    0    0  0.16080816071E+02  0.25129452739E+02 -0.10695697109E+02  0.31694518149E+02  0.25000708181E+00 0.  0.
    1000022    2    1    0    0    0 -0.39185091182E+02 -0.44160211944E+02  0.17906824744E+02  0.62500000422E+02  0.99999995255E+01 0.  0.
    3000022    2    5    5    0    0 -0.25998398191E+02 -0.25327108002E+02  0.15117969003E+02  0.39319137788E+02  0.25000274417E+00 0.  0.
        -13    1    4    4    0    0  0.63691956446E+01  0.10022859578E+02 -0.42039001096E+01  0.12597943023E+02  0.10500000000E+00 0.  1.
         13    1    4    4    0    0  0.97116204263E+01  0.15106593162E+02 -0.64917969992E+01  0.19096575126E+02  0.10500000000E+00 0. -1.
    3000001    1    5    5    0    0 -0.13186692991E+02 -0.18833103942E+02  0.27888557410E+01  0.23180862635E+02  0.10000000000E+01 0.  1.
        -13    1    6    6    0    0 -0.16060204093E+02 -0.15672639420E+02  0.94094335504E+01  0.24333315570E+02  0.10500000000E+00 0. -1.
         13    1    6    6    0    0 -0.99381940980E+01 -0.96544685823E+01  0.57085354530E+01  0.14985822218E+02  0.10500000000E+00 0.  1.
</event>
<event>
11    0  0.3396091E-009  0.9118800E+02  0.7816531E-02  0.1126479E+00
         25   -1    0    0    0    0  0.00000000000E+00  0.00000000000E+00  0.99999998245E-14  0.12500000000E+03  0.12500000000E+03 0.  0.
    3000001    1    3    3    0    0 -0.13000700016E+02  0.28755406290E+02 -0.61793766722E+01  0.32172601509E+02  0.10000000000E+01 0. -1.
    1000022    2    1    0    0    0 -0.20897156954E+02  0.54334140456E+02 -0.20429393116E+02  0.62500000651E+02  0.99999995168E+01 0.  0.
    3000022    2    3    3    0    0 -0.78964569378E+01  0.25578734167E+02 -0.14250016444E+02  0.30327399142E+02  0.24999260341E+00 0.  0.
    1000022    2    1    0    0    0  0.20897156954E+02 -0.54334140456E+02  0.20429393116E+02  0.62499999349E+02  0.99999913849E+01 0.  0.
    3000022    2    5    5    0    0  0.21140160789E+02 -0.53873980636E+02  0.19608115478E+02  0.61105261064E+02  0.25009871201E+00 0.  0.
        -13    1    4    4    0    0 -0.18323877726E+01  0.59768271003E+01 -0.33238559035E+01  0.70809003808E+01  0.10500000000E+00 0.  1.
         13    1    4    4    0    0 -0.60640691652E+01  0.19601907066E+02 -0.10926160541E+02  0.23246498761E+02  0.10500000000E+00 0. -1.
    3000001    1    5    5    0    0 -0.24300383512E+00 -0.46015981986E+00  0.82127763894E+00  0.13947382851E+01  0.10000000000E+01 0. -1.
        -13    1    6    6    0    0  0.14968268868E+02 -0.38186853199E+02  0.13939497171E+02  0.43319804207E+02  0.10500000000E+00 0.  1.
         13    1    6    6    0    0  0.61718919209E+01 -0.15687127437E+02  0.56686183062E+01  0.17785456857E+02  0.10500000000E+00 0. -1.
</event>
<event>
11    0  0.3396091E-009  0.9118800E+02  0.7816531E-02  0.1126479E+00
         25   -1    0    0    0    0  0.00000000000E+00  0.00000000000E+00  0.99999998245E-14  0.12500000000E+03  0.12500000000E+03 0.  0.
    3000001    1    3    3    0    0  0.39416609465E+02  0.18699158482E+02  0.40932871490E+02  0.59831660499E+02  0.10000000000E+01 0. -1.
    1000022    2    1    0    0    0  0.41571725143E+02  0.17614505199E+02  0.42044868790E+02  0.62499999972E+02  0.99999940036E+01 0.  0.
    3000022    2    3    3    0    0  0.21551156784E+01 -0.10846532839E+01  0.11119972998E+01  0.26683394722E+01  0.25000242095E+00 0.  0.
    1000022    2    1    0    0    0 -0.41571725143E+02 -0.17614505199E+02 -0.42044868790E+02  0.62500000028E+02  0.99999943589E+01 0.  0.
    3000022    2    5    5    0    0 -0.33697312072E+02 -0.16883573224E+02 -0.30579281979E+02  0.48535748395E+02  0.25000034981E+00 0.  0.
        -13    1    4    4    0    0  0.11084810451E+01 -0.48221021895E+00  0.55020246793E+00  0.13322930152E+01  0.10500000000E+00 0. -1.
         13    1    4    4    0    0  0.10466346333E+01 -0.60244306491E+00  0.56179483190E+00  0.13360464570E+01  0.10500000000E+00 0.  1.
    3000001    1    5    5    0    0 -0.78744130709E+01 -0.73093197469E+00 -0.11465586811E+02  0.13964251634E+02  0.10000000000E+01 0. -1.
        -13    1    6    6    0    0 -0.18447058141E+02 -0.92640292828E+01 -0.16830227630E+02  0.26634259510E+02  0.10500000000E+00 0. -1.
         13    1    6    6    0    0 -0.15250253932E+02 -0.76195439411E+01 -0.13749054350E+02  0.21901488885E+02  0.10500000000E+00 0.  1.
</event>
<event>
11    0  0.3396091E-009  0.9118800E+02  0.7816531E-02  0.1126479E+00
         25   -1    0    0    0    0  0.00000000000E+00  0.00000000000E+00  0.99999998245E-14  0.12500000000E+03  0.12500000000E+03 0.  0.
    3000001    1    3    3    0    0 -0.20133312159E+02 -0.35128117531E+02 -0.24168993897E+02  0.47164342100E+02  0.10000000000E+01 0. -1.
    1000022    2    1    0    0    0 -0.23810177921E+02 -0.49477868832E+02 -0.28129446529E+02  0.62499999538E+02  0.10000005168E+02 0.  0.
    3000022    2    3    3    0    0 -0.36768657616E+01 -0.14349751302E+02 -0.39604526325E+01  0.15335657438E+02  0.24999948779E+00 0.  0.
    1000022    2    1    0    0    0  0.23810177921E+02  0.49477868832E+02  0.28129446529E+02  0.62500000462E+02  0.10000010949E+02 0.  0.
    3000022    2    5    5    0    0  0.85794151150E+01  0.23363930768E+02  0.17550247968E+02  0.30455760121E+02  0.24999231029E+00 0.  0.
        -13    1    4    4    0    0 -0.17534409390E+01 -0.67425233168E+01 -0.19274582175E+01  0.72292666284E+01  0.10500000000E+00 0. -1.
         13    1    4    4    0    0 -0.19234248226E+01 -0.76072279849E+01 -0.20329944149E+01  0.81063908093E+01  0.10500000000E+00 0.  1.
    3000001    1    5    5    0    0  0.15230762805E+02  0.26113938064E+02  0.10579198561E+02  0.32044240341E+02  0.10000000000E+01 0.  1.
        -13    1    6    6    0    0  0.51196226314E+01  0.14098949817E+02  0.10615481201E+02  0.18376354044E+02  0.10500000000E+00 0.  1.
         13    1    6    6    0    0  0.34597924836E+01  0.92649809516E+01  0.69347667673E+01  0.12079406077E+02  0.10500000000E+00 0. -1.
</event>
<event>
11    0  0.3396091E-009  0.9118800E+02  0.7816531E-02  0.1126479E+00
         25   -1    0    0    0    0  0.00000000000E+00  0.00000000000E+00  0.99999998245E-14  0.12500000000E+03  0.12500000000E+03 0.  0.
    3000001    1    3    3    0    0  0.16023004244E+02  0.32407007376E+02 -0.46820671849E+02  0.59161863599E+02  0.10000000000E+01 0.  1.
    1000022    2    1    0    0    0  0.15269885749E+02  0.35335269751E+02 -0.48213060999E+02  0.62499999853E+02  0.10000001579E+02 0.  0.
    3000022    2    3    3    0    0 -0.75311849569E+00  0.29282623748E+01 -0.13923891492E+01  0.33381362535E+01  0.24999620025E+00 0.  0.
    1000022    2    1    0    0    0 -0.15269885749E+02 -0.35335269751E+02  0.48213060999E+02  0.62500000147E+02  0.10000003423E+02 0.  0.
    3000022    2    5    5    0    0 -0.12500363347E+02 -0.25156550862E+02  0.40926990242E+02  0.49640630038E+02  0.24997038855E+00 0.  0.
        -13    1    4    4    0    0 -0.57321461580E+00  0.20527845235E+01 -0.98893359494E+00  0.23519170800E+01  0.10500000000E+00 0.  1.
         13    1    4    4    0    0 -0.17990387989E+00  0.87547785124E+00 -0.40345555425E+00  0.98621917354E+00  0.10500000000E+00 0. -1.
    3000001    1    5    5    0    0 -0.27695224018E+01 -0.10178718889E+02  0.72860707565E+01  0.12859370110E+02  0.10000000000E+01 0. -1.
        -13    1    6    6    0    0 -0.96322741848E+01 -0.19382743507E+02  0.31541999119E+02  0.38254152523E+02  0.10500000000E+00 0. -1.
         13    1    6    6    0    0 -0.28680891621E+01 -0.57738073549E+01  0.93849911234E+01  0.11386477515E+02  0.10500000000E+00 0.  1.
</event>
<event>
11    0  0.3396091E-009  0.9118800E+02  0.7816531E-02  0.1126479E+00
         25   -1    0    0    0    0  0.00000000000E+00  0.00000000000E+00  0.99999998245E-14  0.12500000000E+03  0.12500000000E+03 0.  0.
    3000001    1    3    3    0    0  0.24166201366E+01 -0.24317622871E+02  0.48985942316E+00  0.24462763483E+02  0.10000000000E+01 0. -1.
    1000022    2    1    0    0    0  0.16564026264E+02 -0.59245675672E+02 -0.46725884164E+01  0.62499999009E+02  0.99999870801E+01 0.  0.
    3000022    2    3    3    0    0  0.14147406128E+02 -0.34928052802E+02 -0.51624478396E+01  0.38037235526E+02  0.24989213658E+00 0.  0.
    1000022    2    1    0    0    0 -0.16564026264E+02  0.59245675672E+02  0.46725884164E+01  0.62500000991E+02  0.99999994725E+01 0.  0.
    3000022    2    5    5    0    0 -0.96564087798E+01  0.17406931313E+02  0.13616387483E+01  0.19954048228E+02  0.24998465226E+00 0.  0.
        -13    1    4    4    0    0  0.10528413415E+02 -0.25944447440E+02 -0.38116428491E+01  0.28257768635E+02  0.10500000000E+00 0.  1.
         13    1    4    4    0    0  0.36189927130E+01 -0.89836053612E+01 -0.13508049905E+01  0.97794668907E+01  0.10500000000E+00 0. -1.
    3000001    1    5    5    0    0 -0.69076174846E+01  0.41838744359E+02  0.33109496681E+01  0.42545952764E+02  0.10000000000E+01 0.  1.
        -13    1    6    6    0    0 -0.38914303614E+01  0.69780706029E+01  0.60729413550E+00  0.80135217454E+01  0.10500000000E+00 0. -1.
         13    1    6    6    0    0 -0.57649784184E+01  0.10428860710E+02  0.75434461278E+00  0.11940526482E+02  0.10500000000E+00 0.  1.
</event>
<event>
11    0  0.3396091E-009  0.9118800E+02  0.7816531E-02  0.1126479E+00
         25   -1    0    0    0    0  0.00000000000E+00  0.00000000000E+00  0.99999998245E-14  0.12500000000E+03  0.12500000000E+03 0.  0.
    3000001    1    3    3    0    0 -0.16052898287E+01 -0.41007998698E+00  0.17034130960E+01  0.25781266853E+01  0.10000000000E+01 0.  1.
    1000022    2    1    0    0    0 -0.60332389364E+02 -0.11764659969E+02  0.52769021292E+01  0.62500001088E+02  0.10000000470E+02 0.  0.
    3000022    2    3    3    0    0 -0.58727099535E+02 -0.11354579982E+02  0.35734890332E+01  0.59921874403E+02  0.25000339284E+00 0.  0.
    1000022    2    1    0    0    0  0.60332389364E+02  0.11764659969E+02 -0.52769021292E+01  0.62499998912E+02  0.99999868711E+01 0.  0.
    3000022    2    5    5    0    0  0.37125089471E+02  0.97423389676E+01  0.84794065991E+00  0.38392277126E+02  0.25000548578E+00 0.  0.
        -13    1    4    4    0    0 -0.15535634720E+02 -0.29694895430E+01  0.94367318979E+00  0.15845357629E+02  0.10500000000E+00 0.  1.
         13    1    4    4    0    0 -0.43191464815E+02 -0.83850904387E+01  0.26298158434E+01  0.44076516774E+02  0.10500000000E+00 0. -1.
    3000001    1    5    5    0    0  0.23207299893E+02  0.20223210011E+01 -0.61248427891E+01  0.24107721786E+02  0.10000000000E+01 0. -1.
        -13    1    6    6    0    0  0.17921196489E+02  0.46641424272E+01  0.35271364672E+00  0.18521850342E+02  0.10500000000E+00 0.  1.
         13    1    6    6    0    0  0.19203892982E+02  0.50781965404E+01  0.49522701319E+00  0.19870426783E+02  0.10500000000E+00 0. -1.
</event>
<event>
11    0  0.3396091E-009  0.9118800E+02  0.7816531E-02  0.1126479E+00
         25   -1    0    0    0    0  0.00000000000E+00  0.00000000000E+00  0.99999998245E-14  0.12500000000E+03  0.12500000000E+03 0.  0.
    3000001    1    3    3    0    0  0.14675133239E+01 -0.15108772507E+01 -0.14585547350E+01  0.27502231432E+01  0.10000000000E+01 0. -1.
    1000022    2    1    0    0    0  0.41840134833E+01 -0.20154740642E+02 -0.58159527011E+02  0.62499999480E+02  0.99999906851E+01 0.  0.
    3000022    2    3    3    0    0  0.27165001594E+01 -0.18643863391E+02 -0.56700972276E+02  0.59749776337E+02  0.24999999819E+00 0.  0.
    1000022    2    1    0    0    0 -0.41840134833E+01  0.20154740642E+02  0.58159527011E+02  0.62500000520E+02  0.99999971816E+01 0.  0.
    3000022    2    5    5    0    0 -0.14539029328E+01 -0.80336285156E+00  0.33350647439E+01  0.37342173755E+01  0.24999390433E+00 0.  0.
        -13    1    4    4    0    0  0.17516538492E+01 -0.12055810533E+02 -0.36481029568E+02  0.38461505458E+02  0.10500000000E+00 0.  1.
         13    1    4    4    0    0  0.96484631015E+00 -0.65880528582E+01 -0.20219942709E+02  0.21288270879E+02  0.10500000000E+00 0. -1.
    3000001    1    5    5    0    0 -0.27301105505E+01  0.20958103493E+02  0.54824462267E+02  0.58765783144E+02  0.10000000000E+01 0. -1.
        -13    1    6    6    0    0 -0.50302418831E+00 -0.22175273412E+00  0.11566726124E+01  0.12849607548E+01  0.10500000000E+00 0. -1.
         13    1    6    6    0    0 -0.95087874449E+00 -0.58161011743E+00  0.21783921315E+01  0.24492566207E+01  0.10500000000E+00 0.  1.
</event>
<event>
11    0  0.3396091E-009  0.9118800E+02  0.7816531E-02  0.1126479E+00
         25   -1    0    0    0    0  0.00000000000E+00  0.00000000000E+00  0.99999998245E-14  0.12500000000E+03  0.12500000000E+03 0.  0.
    3000001    1    3    3    0    0 -0.74388202150E+01 -0.45655725065E+00 -0.10667426537E+02  0.13051378457E+02  0.10000000000E+01 0. -1.
    1000022    2    1    0    0    0 -0.20308007535E+02  0.67536161588E+01 -0.57863842250E+02  0.62500005726E+02  0.99999987241E+01 0.  0.
    3000022    2    3    3    0    0 -0.12869187320E+02  0.72101734094E+01 -0.47196415713E+02  0.49448627268E+02  0.24999933857E+00 0.  0.
    1000022    2    1    0    0    0  0.20308007535E+02 -0.67536161588E+01  0.57863842250E+02  0.62499994274E+02  0.99999271540E+01 0.  0.
    3000022    2    5    5    0    0  0.14861451336E+01  0.26342008038E+00  0.34779491852E+00  0.15689102327E+01  0.25000103214E+00 0.  0.
        -13    1    4    4    0    0 -0.87916313706E+01  0.48731690044E+01 -0.32228712262E+02  0.33760057425E+02  0.10500000000E+00 0.  1.
         13    1    4    4    0    0 -0.40775559492E+01  0.23370044050E+01 -0.14967703452E+02  0.15688569843E+02  0.10500000000E+00 0. -1.
    3000001    1    5    5    0    0  0.18821862401E+02 -0.70170362392E+01  0.57516047332E+02  0.60931084042E+02  0.10000000000E+01 0.  1.
        -13    1    6    6    0    0  0.53257968565E+00  0.38260482356E-01  0.13860567105E+00  0.56155277412E+00  0.10500000000E+00 0. -1.
         13    1    6    6    0    0  0.95356544795E+00  0.22515959803E+00  0.20918924747E+00  0.10073574586E+01  0.10500000000E+00 0.  1.
</event>
<event>
11    0  0.3396091E-009  0.9118800E+02  0.7816531E-02  0.1126479E+00
         25   -1    0    0    0    0  0.00000000000E+00  0.00000000000E+00  0.99999998245E-14  0.12500000000E+03  0.12500000000E+03 0.  0.
    3000001    1    3    3    0    0  0.24079787782E+02 -0.26683781172E+02  0.22981735389E+01  0.36029737147E+02  0.10000000000E+01 0.  1.
    1000022    2    1    0    0    0  0.34675733452E+02 -0.50914329604E+02  0.34021054312E+01  0.62499997987E+02  0.99999988799E+01 0.  0.
    3000022    2    3    3    0    0  0.10595945670E+02 -0.24230548431E+02  0.11039318923E+01  0.26470260840E+02  0.25000277607E+00 0.  0.
    1000022    2    1    0    0    0 -0.34675733452E+02  0.50914329604E+02 -0.34021054312E+01  0.62500002013E+02  0.10000024043E+02 0.  0.
    3000022    2    5    5    0    0 -0.29875188687E+02  0.44781222949E+02 -0.61453401231E+01  0.54182216019E+02  0.24999914195E+00 0.  0.
        -13    1    4    4    0    0  0.62431203028E+01 -0.14376926782E+02  0.60474011135E+00  0.15685959021E+02  0.10500000000E+00 0. -1.
         13    1    4    4    0    0  0.43528253670E+01 -0.98536216489E+01  0.49919178098E+00  0.10784301818E+02  0.10500000000E+00 0.  1.
    3000001    1    5    5    0    0 -0.48005447645E+01  0.61331066547E+01  0.27432346918E+01  0.83177859944E+01  0.10000000000E+01 0. -1.
        -13    1    6    6    0    0 -0.84367896585E+01  0.12690937148E+02 -0.17071862147E+01  0.15335084454E+02  0.10500000000E+00 0. -1.
         13    1    6    6    0    0 -0.21438399029E+02  0.32090285801E+02 -0.44381539084E+01  0.38847131565E+02  0.10500000000E+00 0.  1.
</event>
<event>
11    0  0.3396091E-009  0.9118800E+02  0.7816531E-02  0.1126479E+00
         25   -1    0    0    0    0  0.00000000000E+00  0.00000000000E+00  0.99999998245E-14  0.12500000000E+03  0.12500000000E+03 0.  0.
    3000001    1    3    3    0    0  0.51547404734E+01 -0.66968123229E+00 -0.10479870616E+01  0.53961189000E+01  0.10000000000E+01 0.  1.
    1000022    2    1    0    0    0  0.49350770239E+02  0.81421810366E+01 -0.36117250510E+02  0.62500004075E+02  0.10000054490E+02 0.  0.
    3000022    2    3    3    0    0  0.44196029766E+02  0.88118622689E+01 -0.35069263448E+02  0.57103885175E+02  0.24999926620E+00 0.  0.
    1000022    2    1    0    0    0 -0.49350770239E+02 -0.81421810366E+01  0.36117250510E+02  0.62499995925E+02  0.10000003549E+02 0.  0.
    3000022    2    5    5    0    0 -0.37183424857E+01 -0.11027363981E+01  0.24805687474E-01  0.38865434010E+01  0.25001176265E+00 0.  0.
        -13    1    4    4    0    0  0.11066875776E+02  0.21795015448E+01 -0.87782895959E+01  0.14293192773E+02  0.10500000000E+00 0.  1.
         13    1    4    4    0    0  0.33129153990E+02  0.66323607240E+01 -0.26290973853E+02  0.42810692402E+02  0.10500000000E+00 0. -1.
    3000001    1    5    5    0    0 -0.45632427753E+02 -0.70394446384E+01  0.36092444822E+02  0.58613452524E+02  0.10000000000E+01 0.  1.
        -13    1    6    6    0    0 -0.12079886065E+01 -0.30561134052E+00  0.15764298549E-01  0.12505631843E+01  0.10500000000E+00 0. -1.
         13    1    6    6    0    0 -0.25103538792E+01 -0.79712505761E+00  0.90413889243E-02  0.26359802167E+01  0.10500000000E+00 0.  1.
</event>
<event>
11    0  0.3396091E-009  0.9118800E+02  0.7816531E-02  0.1126479E+00
         25   -1    0    0    0    0  0.00000000000E+00  0.00000000000E+00  0.99999998245E-14  0.12500000000E+03  0.12500000000E+03 0.  0.
    3000001    1    3    3    0    0 -0.28009133315E+01  0.27444166929E+00  0.85634799387E+00  0.31070509502E+01  0.10000000000E+01 0.  1.
    1000022    2    1    0    0    0 -0.55566461876E+02  0.18148121466E+02 -0.19729772996E+02  0.62500000179E+02  0.10000004085E+02 0.  0.
    3000022    2    3    3    0    0 -0.52765548545E+02  0.17873679797E+02 -0.20586120990E+02  0.59392949229E+02  0.24999593631E+00 0.  0.
    1000022    2    1    0    0    0  0.55566461876E+02 -0.18148121466E+02  0.19729772996E+02  0.62499999821E+02  0.10000001847E+02 0.  0.
    3000022    2    5    5    0    0  0.41602550265E+02 -0.13286020959E+02  0.19098508326E+02  0.47666613696E+02  0.24999906527E+00 0.  0.
        -13    1    4    4    0    0 -0.36330146827E+02  0.12312524744E+02 -0.14226221550E+02  0.40913008184E+02  0.10500000000E+00 0.  1.
         13    1    4    4    0    0 -0.16435401718E+02  0.55611550530E+01 -0.63598994404E+01  0.18479941045E+02  0.10500000000E+00 0. -1.
    3000001    1    5    5    0    0  0.13963911612E+02 -0.48621005074E+01  0.63126466979E+00  0.14833386125E+02  0.10000000000E+01 0. -1.
        -13    1    6    6    0    0  0.28746024880E+02 -0.91447992381E+01  0.13229250993E+02  0.32939116660E+02  0.10500000000E+00 0.  1.
         13    1    6    6    0    0  0.12856525385E+02 -0.41412217204E+01  0.58692573331E+01  0.14727497036E+02  0.10500000000E+00 0. -1.
</event>
<event>
11    0  0.3396091E-009  0.9118800E+02  0.7816531E-02  0.1126479E+00
         25   -1    0    0    0    0  0.00000000000E+00  0.00000000000E+00  0.99999998245E-14  0.12500000000E+03  0.12500000000E+03 0.  0.
    3000001    1    3    3    0    0 -0.10399796971E+01 -0.26323880211E+01  0.18544376629E+02  0.18785763999E+02  0.10000000000E+01 0. -1.
    1000022    2    1    0    0    0  0.37813645159E+01 -0.21287402012E+02  0.57782335545E+02  0.62500004609E+02  0.10000003651E+02 0.  0.
    3000022    2    3    3    0    0  0.48213442130E+01 -0.18655013991E+02  0.39237958917E+02  0.43714240610E+02  0.25001036132E+00 0.  0.
    1000022    2    1    0    0    0 -0.37813645159E+01  0.21287402012E+02 -0.57782335545E+02  0.62499995391E+02  0.99999460406E+01 0.  0.
    3000022    2    5    5    0    0 -0.35919373561E+01  0.16805856508E+02 -0.32119209257E+02  0.36428628268E+02  0.25005459289E+00 0.  0.
        -13    1    4    4    0    0  0.28318888744E+01 -0.11201173760E+02  0.23563564290E+02  0.26243827374E+02  0.10500000000E+00 0. -1.
         13    1    4    4    0    0  0.19894553387E+01 -0.74538402308E+01  0.15674394627E+02  0.17470413237E+02  0.10500000000E+00 0.  1.
    3000001    1    5    5    0    0 -0.18942715981E+00  0.44815455039E+01 -0.25663126289E+02  0.26071367123E+02  0.10000000000E+01 0.  1.
        -13    1    6    6    0    0 -0.13288607925E+01  0.60871928008E+01 -0.11535780130E+02  0.13111256058E+02  0.10500000000E+00 0.  1.
         13    1    6    6    0    0 -0.22630765637E+01  0.10718663707E+02 -0.20583429126E+02  0.23317372210E+02  0.10500000000E+00 0. -1.
</event>
<event>
11    0  0.3396091E-009  0.9118800E+02  0.7816531E-02  0.1126479E+00
         25   -1    0    0    0    0  0.00000000000E+00  0.00000000000E+00  0.99999998245E-14  0.12500000000E+03  0.12500000000E+03 0.  0.
    3000001    1    3    3    0    0  0.23946054978E+02 -0.31225040751E+02 -0.15163193488E+02  0.42182213737E+02  0.10000000000E+01 0.  1.
    1000022    2    1    0    0    0  0.40110483623E+02 -0.41174174578E+02 -0.22407252776E+02  0.62500011805E+02  0.10000147499E+02 0.  0.
    3000022    2    3    3    0    0  0.16164428645E+02 -0.99491338263E+01 -0.72440592872E+01  0.20317798068E+02  0.25001214325E+00 0.  0.
    1000022    2    1    0    0    0 -0.40110483623E+02  0.41174174578E+02  0.22407252776E+02  0.62499988195E+02  0.99999999393E+01 0.  0.
    3000022    2    5    5    0    0 -0.38193816431E+02  0.35040896652E+02  0.20247393569E+02  0.55647565044E+02  0.24999468179E+00 0.  0.
        -13    1    4    4    0    0  0.69437391575E+01 -0.43509158604E+01 -0.31260014691E+01  0.87709117255E+01  0.10500000000E+00 0. -1.
         13    1    4    4    0    0  0.92206894874E+01 -0.55982179659E+01 -0.41180578181E+01  0.11546886343E+02  0.10500000000E+00 0.  1.
    3000001    1    5    5    0    0 -0.19166671929E+01  0.61332779259E+01  0.21598592065E+01  0.68524231507E+01  0.10000000000E+01 0. -1.
        -13    1    6    6    0    0 -0.25705542817E+02  0.23646151304E+02  0.13669430004E+02  0.37507062597E+02  0.10500000000E+00 0.  1.
         13    1    6    6    0    0 -0.12488273614E+02  0.11394745348E+02  0.65779635647E+01  0.18140502448E+02  0.10500000000E+00 0. -1.
</event>
<event>
11    0  0.3396091E-009  0.9118800E+02  0.7816531E-02  0.1126479E+00
         25   -1    0    0    0    0  0.00000000000E+00  0.00000000000E+00  0.99999998245E-14  0.12500000000E+03  0.12500000000E+03 0.  0.
    3000001    1    3    3    0    0 -0.29981432432E+02  0.42533358876E+00 -0.52984407608E+02  0.60888542838E+02  0.10000000000E+01 0.  1.
    1000022    2    1    0    0    0 -0.31570104853E+02  0.52571988475E+00 -0.53002852376E+02  0.62499998515E+02  0.99999776307E+01 0.  0.
    3000022    2    3    3    0    0 -0.15886724203E+01  0.10038629600E+00 -0.18444767726E-01  0.16114556771E+01  0.24998344441E+00 0.  0.
    1000022    2    1    0    0    0  0.31570104853E+02 -0.52571988475E+00  0.53002852376E+02  0.62500001485E+02  0.99999961931E+01 0.  0.
    3000022    2    5    5    0    0  0.19707507441E+02 -0.46966830550E+01  0.28883142071E+02  0.35280916704E+02  0.25001268324E+00 0.  0.
        -13    1    4    4    0    0 -0.75014044941E+00  0.23673772222E-01  0.54440322506E-01  0.75977621051E+00  0.10500000000E+00 0.  1.
         13    1    4    4    0    0 -0.83853197086E+00  0.76712523777E-01 -0.72885090232E-01  0.85167946660E+00  0.10500000000E+00 0. -1.
    3000001    1    5    5    0    0  0.11862597411E+02  0.41709631702E+01  0.24119710305E+02  0.27219084781E+02  0.10000000000E+01 0. -1.
        -13    1    6    6    0    0  0.12584537089E+02 -0.30581070149E+01  0.18445270223E+02  0.22538003702E+02  0.10500000000E+00 0.  1.
         13    1    6    6    0    0  0.71229703521E+01 -0.16385760400E+01  0.10437871848E+02  0.12742913003E+02  0.10500000000E+00 0. -1.
</event>
<event>
11    0  0.3396091E-009  0.9118800E+02  0.7816531E-02  0.1126479E+00
         25   -1    0    0    0    0  0.00000000000E+00  0.00000000000E+00  0.99999998245E-14  0.12500000000E+03  0.12500000000E+03 0.  0.
    3000001    1    3    3    0    0 -0.44112580648E+01  0.74729484725E+01  0.37160738920E+01  0.94928057895E+01  0.10000000000E+01 0.  1.
    1000022    2    1    0    0    0 -0.13256696717E+02  0.59178133955E+02  0.11333952927E+02  0.62499999338E+02  0.99999941047E+01 0.  0.
    3000022    2    3    3    0    0 -0.88454386517E+01  0.51705185482E+02  0.76178790352E+01  0.53007193549E+02  0.24999238833E+00 0.  0.
    1000022    2    1    0    0    0  0.13256696717E+02 -0.59178133955E+02 -0.11333952927E+02  0.62500000662E+02  0.10000002380E+02 0.  0.
    3000022    2    5    5    0    0  0.65598609272E+01 -0.47003845406E+02 -0.10031902945E+02  0.48508708891E+02  0.25000654724E+00 0.  0.
        -13    1    4    4    0    0 -0.31240469615E+01  0.18154918939E+02  0.27296411567E+01  0.18623176876E+02  0.10500000000E+00 0. -1.
         13    1    4    4    0    0 -0.57213916902E+01  0.33550266543E+02  0.48882378785E+01  0.34384016673E+02  0.10500000000E+00 0.  1.
    3000001    1    5    5    0    0  0.66968357893E+01 -0.12174288549E+02 -0.13020499825E+01  0.13991291771E+02  0.10000000000E+01 0. -1.
        -13    1    6    6    0    0  0.46990607769E+01 -0.33692331103E+02 -0.72322847858E+01  0.34778891811E+02  0.10500000000E+00 0.  1.
         13    1    6    6    0    0  0.18608001503E+01 -0.13311514302E+02 -0.27996181589E+01  0.13729817080E+02  0.10500000000E+00 0. -1.
</event>
<event>
11    0  0.3396091E-009  0.9118800E+02  0.7816531E-02  0.1126479E+00
         25   -1    0    0    0    0  0.00000000000E+00  0.00000000000E+00  0.99999998245E-14  0.12500000000E+03  0.12500000000E+03 0.  0.
    3000001    1    3    3    0    0 -0.88550389705E+01  0.38624916998E+01 -0.29426074937E+02  0.30987488499E+02  0.10000000000E+01 0. -1.
    1000022    2    1    0    0    0 -0.14788880397E+02 -0.16865290023E+01 -0.59872319876E+02  0.62500000952E+02  0.10000003412E+02 0.  0.
    3000022    2    3    3    0    0 -0.59338414268E+01 -0.55490207021E+01 -0.30446244939E+02  0.31512512453E+02  0.25001076735E+00 0.  0.
    1000022    2    1    0    0    0  0.14788880397E+02  0.16865290023E+01  0.59872319876E+02  0.62499999048E+02  0.99999915074E+01 0.  0.
    3000022    2    5    5    0    0 -0.14199058008E+01 -0.28537668015E+00  0.33558492446E+01  0.36635765301E+01  0.24999301361E+00 0.  0.
        -13    1    4    4    0    0 -0.40968410491E+01 -0.38282153604E+01 -0.20820210627E+02  0.21562271100E+02  0.10500000000E+00 0. -1.
         13    1    4    4    0    0 -0.18370003777E+01 -0.17208053418E+01 -0.96260343118E+01  0.99502413531E+01  0.10500000000E+00 0.  1.
    3000001    1    5    5    0    0  0.16208786198E+02  0.19719056825E+01  0.56516470631E+02  0.58836422518E+02  0.10000000000E+01 0. -1.
        -13    1    6    6    0    0 -0.37169627183E+00 -0.95486709850E-01  0.83939234268E+00  0.92891352408E+00  0.10500000000E+00 0. -1.
         13    1    6    6    0    0 -0.10482095290E+01 -0.18988997030E+00  0.25164569019E+01  0.27346630060E+01  0.10500000000E+00 0.  1.
</event>
<event>
11    0  0.3396091E-009  0.9118800E+02  0.7816531E-02  0.1126479E+00
         25   -1    0    0    0    0  0.00000000000E+00  0.00000000000E+00  0.99999998245E-14  0.12500000000E+03  0.12500000000E+03 0.  0.
    3000001    1    3    3    0    0  0.34175219028E+02  0.29040322750E+02 -0.20014463267E+02  0.49120918974E+02  0.10000000000E+01 0. -1.
    1000022    2    1    0    0    0  0.46086956472E+02  0.32495957256E+02 -0.25025092009E+02  0.62499999645E+02  0.99999965371E+01 0.  0.
    3000022    2    3    3    0    0  0.11911737445E+02  0.34556345063E+01 -0.50106287423E+01  0.13379080671E+02  0.25000084955E+00 0.  0.
    1000022    2    1    0    0    0 -0.46086956472E+02 -0.32495957256E+02  0.25025092009E+02  0.62500000355E+02  0.10000000969E+02 0.  0.
    3000022    2    5    5    0    0 -0.52984667633E+01 -0.79017673810E+01  0.27285129785E+01  0.99004518315E+01  0.24997121555E+00 0.  0.
        -13    1    4    4    0    0  0.34289554597E+01  0.99707289986E+00 -0.13975047223E+01  0.38361353419E+01  0.10500000000E+00 0. -1.
         13    1    4    4    0    0  0.84827819850E+01  0.24585616064E+01 -0.36131240200E+01  0.95429453295E+01  0.10500000000E+00 0.  1.
    3000001    1    5    5    0    0 -0.40788489709E+02 -0.24594189875E+02  0.22296579031E+02  0.52599548523E+02  0.10000000000E+01 0. -1.
        -13    1    6    6    0    0 -0.20902474601E+01 -0.32184116793E+01  0.11308068356E+01  0.40021315922E+01  0.10500000000E+00 0.  1.
         13    1    6    6    0    0 -0.32082193032E+01 -0.46833557017E+01  0.15977061429E+01  0.58983202393E+01  0.10500000000E+00 0. -1.
</event>
<event>
11    0  0.3396091E-009  0.9118800E+02  0.7816531E-02  0.1126479E+00
         25   -1    0    0    0    0  0.00000000000E+00  0.00000000000E+00  0.99999998245E-14  0.12500000000E+03  0.12500000000E+03 0.  0.
    3000001    1    3    3    0    0 -0.22721799165E+02 -0.68212212158E+01  0.32408080886E+02  0.40175775324E+02  0.10000000000E+01 0.  1.
    1000022    2    1    0    0    0 -0.38649952555E+02 -0.15172745413E+02  0.45631336455E+02  0.62500000209E+02  0.10000006182E+02 0.  0.
    3000022    2    3    3    0    0 -0.15928153390E+02 -0.83515241968E+01  0.13223255569E+02  0.22324224885E+02  0.25000412375E+00 0.  0.
    1000022    2    1    0    0    0  0.38649952555E+02  0.15172745413E+02 -0.45631336455E+02  0.62499999791E+02  0.10000003565E+02 0.  0.
    3000022    2    5    5    0    0  0.18154194256E+02  0.11315090198E+02 -0.18634233868E+02  0.28370816383E+02  0.25003017949E+00 0.  0.
        -13    1    4    4    0    0 -0.55375957273E+01 -0.28752232958E+01  0.46501191754E+01  0.77824487654E+01  0.10500000000E+00 0.  1.
         13    1    4    4    0    0 -0.10390557663E+02 -0.54763009010E+01  0.85731363936E+01  0.14541776120E+02  0.10500000000E+00 0. -1.
    3000001    1    5    5    0    0  0.20495758298E+02  0.38576552146E+01 -0.26997102587E+02  0.34129183408E+02  0.10000000000E+01 0. -1.
        -13    1    6    6    0    0  0.64482697558E+01  0.40032603471E+01 -0.66857802134E+01  0.10115184542E+02  0.10500000000E+00 0. -1.
         13    1    6    6    0    0  0.11705924500E+02  0.73118298509E+01 -0.11948453655E+02  0.18255631841E+02  0.10500000000E+00 0.  1.
</event>
<event>
11    0  0.3396091E-009  0.9118800E+02  0.7816531E-02  0.1126479E+00
         25   -1    0    0    0    0  0.00000000000E+00  0.00000000000E+00  0.99999998245E-14  0.12500000000E+03  0.12500000000E+03 0.  0.
    3000001    1    3    3    0    0  0.80035343093E+01 -0.11797224903E+02  0.18002763178E+02  0.22985442326E+02  0.10000000000E+01 0. -1.
    1000022    2    1    0    0    0  0.23916685497E+02 -0.40779284862E+02  0.39639526999E+02  0.62499999497E+02  0.99999958697E+01 0.  0.
    3000022    2    3    3    0    0  0.15913151188E+02 -0.28982059959E+02  0.21636763821E+02  0.39514557171E+02  0.24999925662E+00 0.  0.
    1000022    2    1    0    0    0 -0.23916685497E+02  0.40779284862E+02 -0.39639526999E+02  0.62500000503E+02  0.10000002156E+02 0.  0.
    3000022    2    5    5    0    0 -0.57789412498E+01  0.11937248468E+02 -0.17075501759E+02  0.21622426397E+02  0.25000002778E+00 0.  0.
        -13    1    4    4    0    0  0.56779338952E+01 -0.10441574018E+02  0.77397809840E+01  0.14183815988E+02  0.10500000000E+00 0. -1.
         13    1    4    4    0    0  0.10235217293E+02 -0.18540485941E+02  0.13896982837E+02  0.25330741184E+02  0.10500000000E+00 0.  1.
    3000001    1    5    5    0    0 -0.18137744247E+02  0.28842036394E+02 -0.22564025240E+02  0.40877574106E+02  0.10000000000E+01 0. -1.
        -13    1    6    6    0    0 -0.31168011642E+01  0.63538693419E+01 -0.90196174426E+01  0.11465192058E+02  0.10500000000E+00 0. -1.
         13    1    6    6    0    0 -0.26621400857E+01  0.55833791258E+01 -0.80558843169E+01  0.10157234339E+02  0.10500000000E+00 0.  1.
</event>
<event>
11    0  0.3396091E-009  0.9118800E+02  0.7816531E-02  0.1126479E+00
         25   -1    0    0    0    0  0.00000000000E+00  0.00000000000E+00  0.99999998245E-14  0.12500000000E+03  0.12500000000E+03 0.  0.
    3000001    1    3    3    0    0 -0.12027907869E+02 -0.35806971940E+02 -0.39658552257E+02  0.54777829223E+02  0.10000000000E+01 0. -1.
    1000022    2    1    0    0    0 -0.12088737600E+02 -0.38033981622E+02 -0.47048151392E+02  0.62500001527E+02  0.10000015338E+02 0.  0.
    3000022    2    3    3    0    0 -0.60829730375E-01 -0.22270096818E+01 -0.73895991347E+01  0.77221723046E+01  0.24999470213E+00 0.  0.
    1000022    2    1    0    0    0  0.12088737600E+02  0.38033981622E+02  0.47048151392E+02  0.62499998473E+02  0.99999962451E+01 0.  0.
    3000022    2    5    5    0    0 -0.12629987843E+01  0.17279857134E+01  0.10722797958E+01  0.24069458591E+01  0.25000770654E+00 0.  0.
        -13    1    4    4    0    0 -0.69167329428E-01 -0.11418406627E+01 -0.39842951758E+01  0.41465910416E+01  0.10500000000E+00 0. -1.
         13    1    4    4    0    0  0.83375990529E-02 -0.10851690192E+01 -0.34053039589E+01  0.35755812630E+01  0.10500000000E+00 0.  1.
    3000001    1    5    5    0    0  0.13351736384E+02  0.36305995909E+02  0.45975871596E+02  0.60093052613E+02  0.10000000000E+01 0. -1.
        -13    1    6    6    0    0 -0.35421179011E+00  0.43986853656E+00  0.26216226603E+00  0.63143042011E+00  0.10500000000E+00 0. -1.
         13    1    6    6    0    0 -0.90878699421E+00  0.12881171769E+01  0.81011752974E+00  0.17755154390E+01  0.10500000000E+00 0.  1.
</event>
<event>
11    0  0.3396091E-009  0.9118800E+02  0.7816531E-02  0.1126479E+00
         25   -1    0    0    0    0  0.00000000000E+00  0.00000000000E+00  0.99999998245E-14  0.12500000000E+03  0.12500000000E+03 0.  0.
    3000001    1    3    3    0    0  0.12883220071E+02  0.28278117549E+02 -0.33965093410E+02  0.46046246990E+02  0.10000000000E+01 0.  1.
    1000022    2    1    0    0    0  0.11714960299E+02  0.37799916749E+02 -0.47330496865E+02  0.62500000356E+02  0.10000005498E+02 0.  0.
    3000022    2    3    3    0    0 -0.11682597718E+01  0.95217992000E+01 -0.13365403455E+02  0.16453753366E+02  0.24999882929E+00 0.  0.
    1000022    2    1    0    0    0 -0.11714960299E+02 -0.37799916749E+02  0.47330496865E+02  0.62499999644E+02  0.10000001045E+02 0.  0.
    3000022    2    5    5    0    0 -0.91490308528E+01 -0.33334979812E+02  0.35458515521E+02  0.49520646932E+02  0.25001005443E+00 0.  0.
        -13    1    4    4    0    0 -0.85727666009E+00  0.67639895950E+01 -0.94405445330E+01  0.11645659474E+02  0.10500000000E+00 0. -1.
         13    1    4    4    0    0 -0.31098311168E+00  0.27578096050E+01 -0.39248589220E+01  0.48080938916E+01  0.10500000000E+00 0.  1.
    3000001    1    5    5    0    0 -0.25659294459E+01 -0.44649369376E+01  0.11871981344E+02  0.12979352711E+02  0.10000000000E+01 0.  1.
        -13    1    6    6    0    0 -0.41468079057E+01 -0.14864463890E+02  0.15851384399E+02  0.22122968040E+02  0.10500000000E+00 0.  1.
         13    1    6    6    0    0 -0.50022229471E+01 -0.18470515922E+02  0.19607131123E+02  0.27397678893E+02  0.10500000000E+00 0. -1.
</event>
<event>
11    0  0.3396091E-009  0.9118800E+02  0.7816531E-02  0.1126479E+00
         25   -1    0    0    0    0  0.00000000000E+00  0.00000000000E+00  0.99999998245E-14  0.12500000000E+03  0.12500000000E+03 0.  0.
    3000001    1    3    3    0    0 -0.11376044280E+02  0.30995365475E+01  0.58764976710E+01  0.13211916407E+02  0.10000000000E+01 0. -1.
    1000022    2    1    0    0    0 -0.54562609208E+02 -0.41542193522E+01  0.28494108801E+02  0.62500000163E+02  0.99999961012E+01 0.  0.
    3000022    2    3    3    0    0 -0.43186564928E+02 -0.72537558997E+01  0.22617611130E+02  0.49288083756E+02  0.25000437938E+00 0.  0.
    1000022    2    1    0    0    0  0.54562609208E+02  0.41542193522E+01 -0.28494108801E+02  0.62499999837E+02  0.99999940609E+01 0.  0.
    3000022    2    5    5    0    0  0.24951481779E+02  0.67392297740E+01 -0.12077299286E+02  0.28529236214E+02  0.24999993335E+00 0.  0.
        -13    1    4    4    0    0 -0.30600937466E+02 -0.51644207216E+01  0.16068674832E+02  0.34947130799E+02  0.10500000000E+00 0.  1.
         13    1    4    4    0    0 -0.12585627462E+02 -0.20893351782E+01  0.65489362973E+01  0.14340952957E+02  0.10500000000E+00 0. -1.
    3000001    1    5    5    0    0  0.29611127429E+02 -0.25850104218E+01 -0.16416809514E+02  0.33970763623E+02  0.10000000000E+01 0.  1.
        -13    1    6    6    0    0  0.15781074894E+02  0.42921385263E+01 -0.76990696753E+01  0.18076268332E+02  0.10500000000E+00 0.  1.
         13    1    6    6    0    0  0.91704068856E+01  0.24470912477E+01 -0.43782296111E+01  0.10452967882E+02  0.10500000000E+00 0. -1.
</event>
<event>
11    0  0.3396091E-009  0.9118800E+02  0.7816531E-02  0.1126479E+00
         25   -1    0    0    0    0  0.00000000000E+00  0.00000000000E+00  0.99999998245E-14  0.12500000000E+03  0.12500000000E+03 0.  0.
    3000001    1    3    3    0    0  0.27168809733E+01 -0.14482902030E+02 -0.27027415394E+02  0.30799627860E+02  0.10000000000E+01 0.  1.
    1000022    2    1    0    0    0  0.77762671642E+01 -0.37022080062E+02 -0.48735460341E+02  0.62500000890E+02  0.10000013672E+02 0.  0.
    3000022    2    3    3    0    0  0.50593861909E+01 -0.22539178032E+02 -0.21708044947E+02  0.31700373030E+02  0.24999962188E+00 0.  0.
    1000022    2    1    0    0    0 -0.77762671642E+01  0.37022080062E+02  0.48735460341E+02  0.62499999110E+02  0.10000002551E+02 0.  0.
    3000022    2    5    5    0    0 -0.15707732373E+00  0.38702718671E+01  0.12468446974E+01  0.40768610899E+01  0.24999407271E+00 0.  0.
        -13    1    4    4    0    0  0.13466223501E+01 -0.60718613489E+01 -0.58014005271E+01  0.85057724558E+01  0.10500000000E+00 0. -1.
         13    1    4    4    0    0  0.37127638409E+01 -0.16467316683E+02 -0.15906644420E+02  0.23194600574E+02  0.10500000000E+00 0.  1.
    3000001    1    5    5    0    0 -0.76191898405E+01  0.33151808195E+02  0.47488615643E+02  0.58423138020E+02  0.10000000000E+01 0. -1.
        -13    1    6    6    0    0 -0.81440258781E-01  0.28291840513E+01  0.92373265061E+00  0.29791310682E+01  0.10500000000E+00 0. -1.
         13    1    6    6    0    0 -0.75637064945E-01  0.10410878158E+01  0.32311204684E+00  0.10977300217E+01  0.10500000000E+00 0.  1.
</event>
<event>
11    0  0.3396091E-009  0.9118800E+02  0.7816531E-02  0.1126479E+00
         25   -1    0    0    0    0  0.00000000000E+00  0.00000000000E+00  0.99999998245E-14  0.12500000000E+03  0.12500000000E+03 0.  0.
    3000001    1    3    3    0    0 -0.42715499966E+02  0.19809050816E+02  0.76129075126E+01  0.47707114693E+02  0.10000000000E+01 0. -1.
    1000022    2    1    0    0    0 -0.53341077949E+02  0.27325236491E+02  0.14639359040E+02  0.62500000223E+02  0.10000002439E+02 0.  0.
    3000022    2    3    3    0    0 -0.10625577983E+02  0.75161856750E+01  0.70264515274E+01  0.14792885530E+02  0.24997332617E+00 0.  0.
    1000022    2    1    0    0    0  0.53341077949E+02 -0.27325236491E+02 -0.14639359040E+02  0.62499999777E+02  0.99999996488E+01 0.  0.
    3000022    2    5    5    0    0  0.49347692231E+02 -0.24920344306E+02 -0.10687022892E+02  0.56307133159E+02  0.24999502687E+00 0.  0.
        -13    1    4    4    0    0 -0.52686859696E+01  0.37986328292E+01  0.35452434835E+01  0.74005702196E+01  0.10500000000E+00 0.  1.
         13    1    4    4    0    0 -0.53568920130E+01  0.37175528458E+01  0.34812080439E+01  0.73923153102E+01  0.10500000000E+00 0. -1.
    3000001    1    5    5    0    0  0.39933857181E+01 -0.24048921848E+01 -0.39523361479E+01  0.61928666174E+01  0.10000000000E+01 0. -1.
        -13    1    6    6    0    0  0.24528865800E+02 -0.12357353149E+02 -0.52459251260E+01  0.27962478247E+02  0.10500000000E+00 0.  1.
         13    1    6    6    0    0  0.24818826430E+02 -0.12562991156E+02 -0.54410977662E+01  0.28344654912E+02  0.10500000000E+00 0. -1.
</event>
<event>
11    0  0.3396091E-009  0.9118800E+02  0.7816531E-02  0.1126479E+00
         25   -1    0    0    0    0  0.00000000000E+00  0.00000000000E+00  0.99999998245E-14  0.12500000000E+03  0.12500000000E+03 0.  0.
    3000001    1    3    3    0    0 -0.12578564269E+02 -0.30523290211E+02 -0.32963748487E+02  0.46663692939E+02  0.10000000000E+01 0. -1.
    1000022    2    1    0    0    0 -0.11493689492E+02 -0.39588410619E+02 -0.45901010950E+02  0.62500000045E+02  0.10000002297E+02 0.  0.
    3000022    2    3    3    0    0  0.10848747770E+01 -0.90651204075E+01 -0.12937262462E+02  0.15836307106E+02  0.25000287985E+00 0.  0.
    1000022    2    1    0    0    0  0.11493689492E+02  0.39588410619E+02  0.45901010950E+02  0.62499999955E+02  0.10000001736E+02 0.  0.
    3000022    2    5    5    0    0 -0.18180032235E+00  0.16119023225E+02  0.19161851945E+02  0.25041865574E+02  0.25000073858E+00 0.  0.
        -13    1    4    4    0    0  0.46008466919E+00 -0.41678109517E+01 -0.60372466465E+01  0.73513058773E+01  0.10500000000E+00 0. -1.
         13    1    4    4    0    0  0.62479010778E+00 -0.48973094558E+01 -0.69000158158E+01  0.84850012282E+01  0.10500000000E+00 0.  1.
    3000001    1    5    5    0    0  0.11675489814E+02  0.23469387394E+02  0.26739159004E+02  0.37458134381E+02  0.10000000000E+01 0.  1.
        -13    1    6    6    0    0 -0.44706038275E-01  0.69686291383E+01  0.81965839567E+01  0.10759126556E+02  0.10500000000E+00 0.  1.
         13    1    6    6    0    0 -0.13709428408E+00  0.91503940868E+01  0.10965267989E+02  0.14282739018E+02  0.10500000000E+00 0. -1.
</event>
<event>
11    0  0.3396091E-009  0.9118800E+02  0.7816531E-02  0.1126479E+00
         25   -1    0    0    0    0  0.00000000000E+00  0.00000000000E+00  0.99999998245E-14  0.12500000000E+03  0.12500000000E+03 0.  0.
    3000001    1    3    3    0    0 -0.96396663445E+01 -0.10840123271E+02  0.54499797202E+02  0.56406199436E+02  0.10000000000E+01 0.  1.
    1000022    2    1    0    0    0 -0.13237033636E+02 -0.13241503747E+02  0.58785146982E+02  0.62500000094E+02  0.10000001254E+02 0.  0.
    3000022    2    3    3    0    0 -0.35973672917E+01 -0.24013804765E+01  0.42853497799E+01  0.60938006578E+01  0.25000819243E+00 0.  0.
    1000022    2    1    0    0    0  0.13237033636E+02  0.13241503747E+02 -0.58785146982E+02  0.62499999906E+02  0.10000000079E+02 0.  0.
    3000022    2    5    5    0    0  0.45586565161E+01 -0.52399046823E-01 -0.21219374796E+02  0.21705033049E+02  0.24999606486E+00 0.  0.
        -13    1    4    4    0    0 -0.26774688553E+01 -0.17780356425E+01  0.31397015920E+01  0.44943299060E+01  0.10500000000E+00 0. -1.
         13    1    4    4    0    0 -0.91989843647E+00 -0.62334483397E+00  0.11456481879E+01  0.15994707518E+01  0.10500000000E+00 0.  1.
    3000001    1    5    5    0    0  0.86783771201E+01  0.13293902794E+02 -0.37565772186E+02  0.40794966857E+02  0.10000000000E+01 0. -1.
        -13    1    6    6    0    0  0.27338884635E+01 -0.86793591653E-01 -0.12578525930E+02  0.12872918038E+02  0.10500000000E+00 0. -1.
         13    1    6    6    0    0  0.18247680526E+01  0.34394544830E-01 -0.86408488658E+01  0.88321150101E+01  0.10500000000E+00 0.  1.
</event>
<event>
11    0  0.3396091E-009  0.9118800E+02  0.7816531E-02  0.1126479E+00
         25   -1    0    0    0    0  0.00000000000E+00  0.00000000000E+00  0.99999998245E-14  0.12500000000E+03  0.12500000000E+03 0.  0.
    3000001    1    3    3    0    0 -0.57313817662E+02 -0.22608202791E+01  0.59321315471E+01  0.57673002246E+02  0.10000000000E+01 0.  1.
    1000022    2    1    0    0    0 -0.61329316597E+02 -0.46777766663E+01  0.48045200602E+01  0.62500001063E+02  0.10000002555E+02 0.  0.
    3000022    2    3    3    0    0 -0.40154989343E+01 -0.24169563872E+01 -0.11276114870E+01  0.48269988170E+01  0.25000008900E+00 0.  0.
    1000022    2    1    0    0    0  0.61329316597E+02  0.46777766663E+01 -0.48045200602E+01  0.62499998937E+02  0.99999892671E+01 0.  0.
    3000022    2    5    5    0    0  0.10396532515E+02  0.40363787585E+01 -0.28604203425E+01  0.11516281837E+02  0.25000200147E+00 0.  0.
        -13    1    4    4    0    0 -0.29945180808E+01 -0.17837174212E+01 -0.86387240116E+00  0.35925042659E+01  0.10500000000E+00 0.  1.
         13    1    4    4    0    0 -0.10209808536E+01 -0.63323896596E+00 -0.26373908583E+00  0.12344945511E+01  0.10500000000E+00 0. -1.
    3000001    1    5    5    0    0  0.50932784081E+02  0.64139790779E+00 -0.19440997177E+01  0.50983717099E+02  0.10000000000E+01 0.  1.
        -13    1    6    6    0    0  0.24185901264E+01  0.95088801848E+00 -0.66178673070E+00  0.26837944966E+01  0.10500000000E+00 0.  1.
         13    1    6    6    0    0  0.79779423889E+01  0.30854907400E+01 -0.21986336118E+01  0.88324873409E+01  0.10500000000E+00 0. -1.
</event>
<event>
11    0  0.3396091E-009  0.9118800E+02  0.7816531E-02  0.1126479E+00
         25   -1    0    0    0    0  0.00000000000E+00  0.00000000000E+00  0.99999998245E-14  0.12500000000E+03  0.12500000000E+03 0.  0.
    3000001    1    3    3    0    0  0.27387426687E+01  0.12224031714E+02  0.15257474756E+02  0.19766592997E+02  0.10000000000E+01 0. -1.
    1000022    2    1    0    0    0 -0.48364075330E+01  0.34285241341E+02  0.51062527083E+02  0.62500000774E+02  0.99999906547E+01 0.  0.
    3000022    2    3    3    0    0 -0.75751502017E+01  0.22061209626E+02  0.35805052327E+02  0.42733407778E+02  0.24999485151E+00 0.  0.
    1000022    2    1    0    0    0  0.48364075330E+01 -0.34285241341E+02 -0.51062527083E+02  0.62499999226E+02  0.99999809747E+01 0.  0.
    3000022    2    5    5    0    0  0.67972760927E+01 -0.13291842967E+02 -0.21049870463E+02  0.25807665719E+02  0.25002321728E+00 0.  0.
        -13    1    4    4    0    0 -0.30476440042E+01  0.90181438792E+01  0.14692832502E+02  0.17507295763E+02  0.10500000000E+00 0.  1.
         13    1    4    4    0    0 -0.45275061975E+01  0.13043065747E+02  0.21112219824E+02  0.25226112014E+02  0.10500000000E+00 0. -1.
    3000001    1    5    5    0    0 -0.19608685597E+01 -0.20993398374E+02 -0.30012656620E+02  0.36692333507E+02  0.10000000000E+01 0.  1.
        -13    1    6    6    0    0  0.43135014259E+01 -0.85462592162E+01 -0.13545502958E+02  0.16587239570E+02  0.10500000000E+00 0.  1.
         13    1    6    6    0    0  0.24837746668E+01 -0.47455837512E+01 -0.75043675043E+01  0.92204261493E+01  0.10500000000E+00 0. -1.
</event>
<event>
11    0  0.3396091E-009  0.9118800E+02  0.7816531E-02  0.1126479E+00
         25   -1    0    0    0    0  0.00000000000E+00  0.00000000000E+00  0.99999998245E-14  0.12500000000E+03  0.12500000000E+03 0.  0.
    3000001    1    3    3    0    0  0.20097437405E+02 -0.23622914259E+02 -0.27068661849E+02  0.41178410880E+02  0.10000000000E+01 0. -1.
    1000022    2    1    0    0    0  0.24383184721E+02 -0.34925831698E+02 -0.44630666269E+02  0.62499997960E+02  0.99999978246E+01 0.  0.
    3000022    2    3    3    0    0  0.42857473164E+01 -0.11302917439E+02 -0.17562004420E+02  0.21321587080E+02  0.25000735225E+00 0.  0.
    1000022    2    1    0    0    0 -0.24383184721E+02  0.34925831698E+02  0.44630666269E+02  0.62500002040E+02  0.10000023321E+02 0.  0.
    3000022    2    5    5    0    0 -0.12465575127E+00  0.13212273242E+01  0.48832232899E+01  0.50665197644E+01  0.25014420997E+00 0.  0.
        -13    1    4    4    0    0  0.10991429473E+01 -0.29817570566E+01 -0.45921695560E+01  0.55855202617E+01  0.10500000000E+00 0.  1.
         13    1    4    4    0    0  0.31866043691E+01 -0.83211603827E+01 -0.12969834864E+02  0.15736066819E+02  0.10500000000E+00 0. -1.
    3000001    1    5    5    0    0 -0.24258528970E+02  0.33604604374E+02  0.39747442979E+02  0.57433482275E+02  0.10000000000E+01 0.  1.
        -13    1    6    6    0    0 -0.10402164255E+00  0.80887261215E+00  0.27721648949E+01  0.28915426003E+01  0.10500000000E+00 0. -1.
         13    1    6    6    0    0 -0.20634108721E-01  0.51235471206E+00  0.21110583950E+01  0.21749771641E+01  0.10500000000E+00 0.  1.
</event>
<event>
11    0  0.3396091E-009  0.9118800E+02  0.7816531E-02  0.1126479E+00
         25   -1    0    0    0    0  0.00000000000E+00  0.00000000000E+00  0.99999998245E-14  0.12500000000E+03  0.12500000000E+03 0.  0.
    3000001    1    3    3    0    0  0.37058227928E+01 -0.21352342157E+02 -0.30944182933E+01  0.21914174927E+02  0.10000000000E+01 0. -1.
    1000022    2    1    0    0    0 -0.12634415360E+00 -0.59373332999E+02 -0.16764265053E+02  0.62499990932E+02  0.99999824740E+01 0.  0.
    3000022    2    3    3    0    0 -0.38321669464E+01 -0.38020990842E+02 -0.13669846760E+02  0.40585816005E+02  0.25000447506E+00 0.  0.
    1000022    2    1    0    0    0  0.12634415360E+00  0.59373332999E+02  0.16764265053E+02  0.62500009068E+02  0.10000095822E+02 0.  0.
    3000022    2    5    5    0    0 -0.15678359699E+01  0.65460891643E+01 -0.82619468540E+00  0.67863463693E+01  0.25001282108E+00 0.  0.
        -13    1    4    4    0    0 -0.18418322667E+01 -0.17635007936E+02 -0.63210642581E+01  0.18824259066E+02  0.10500000000E+00 0. -1.
         13    1    4    4    0    0 -0.19903346797E+01 -0.20385982905E+02 -0.73487825018E+01  0.21761556939E+02  0.10500000000E+00 0.  1.
    3000001    1    5    5    0    0  0.16941801235E+01  0.52827243835E+02  0.17590459739E+02  0.55713662699E+02  0.10000000000E+01 0. -1.
        -13    1    6    6    0    0 -0.83229712599E+00  0.35196648292E+01 -0.37699530484E+00  0.36378440697E+01  0.10500000000E+00 0. -1.
         13    1    6    6    0    0 -0.73553884387E+00  0.30264243351E+01 -0.44919938056E+00  0.31485022996E+01  0.10500000000E+00 0.  1.
</event>
<event>
11    0  0.3396091E-009  0.9118800E+02  0.7816531E-02  0.1126479E+00
         25   -1    0    0    0    0  0.00000000000E+00  0.00000000000E+00  0.99999998245E-14  0.12500000000E+03  0.12500000000E+03 0.  0.
    3000001    1    3    3    0    0 -0.14723718797E+02 -0.47750955521E+01  0.19087048340E+01  0.15627942503E+02  0.10000000000E+01 0.  1.
    1000022    2    1    0    0    0 -0.52633912935E+02 -0.32163705678E+02 -0.11909180995E+01  0.62499991198E+02  0.99998930006E+01 0.  0.
    3000022    2    3    3    0    0 -0.37910194139E+02 -0.27388610126E+02 -0.30996229335E+01  0.46872048695E+02  0.25000457914E+00 0.  0.
    1000022    2    1    0    0    0  0.52633912935E+02  0.32163705678E+02  0.11909180995E+01  0.62500008802E+02  0.10000003027E+02 0.  0.
    3000022    2    5    5    0    0  0.31164427762E+02  0.15635893282E+02 -0.32769978452E+01  0.35021478109E+02  0.24999510748E+00 0.  0.
        -13    1    4    4    0    0 -0.15758656502E+02 -0.11419112119E+02 -0.12313886662E+01  0.19500223573E+02  0.10500000000E+00 0. -1.
         13    1    4    4    0    0 -0.22151537636E+02 -0.15969498006E+02 -0.18682342673E+01  0.27371825122E+02  0.10500000000E+00 0.  1.
    3000001    1    5    5    0    0  0.21469485173E+02  0.16527812396E+02  0.44679159447E+01  0.27478530693E+02  0.10000000000E+01 0.  1.
        -13    1    6    6    0    0  0.20998713035E+02  0.10577776470E+02 -0.21739601080E+01  0.23612971683E+02  0.10500000000E+00 0. -1.
         13    1    6    6    0    0  0.10165714728E+02  0.50581168123E+01 -0.11030377372E+01  0.11408506426E+02  0.10500000000E+00 0.  1.
</event>
<event>
11    0  0.3396091E-009  0.9118800E+02  0.7816531E-02  0.1126479E+00
         25   -1    0    0    0    0  0.00000000000E+00  0.00000000000E+00  0.99999998245E-14  0.12500000000E+03  0.12500000000E+03 0.  0.
    3000001    1    3    3    0    0  0.76016444127E+01  0.14798854370E+02  0.66681108512E+01  0.17951456508E+02  0.10000000000E+01 0. -1.
    1000022    2    1    0    0    0  0.39061070841E+02  0.44258116706E+02  0.17936051155E+02  0.62499998858E+02  0.99999888288E+01 0.  0.
    3000022    2    3    3    0    0  0.31459426429E+02  0.29459262336E+02  0.11267940304E+02  0.44548542350E+02  0.24999639504E+00 0.  0.
    1000022    2    1    0    0    0 -0.39061070841E+02 -0.44258116706E+02 -0.17936051155E+02  0.62500001142E+02  0.10000003108E+02 0.  0.
    3000022    2    5    5    0    0 -0.34576074211E+01 -0.11706557690E+01  0.36639001867E+00  0.36772568132E+01  0.24998403377E+00 0.  0.
        -13    1    4    4    0    0  0.19985631432E+02  0.18653357162E+02  0.71079069777E+01  0.28247239931E+02  0.10500000000E+00 0.  1.
         13    1    4    4    0    0  0.11473794997E+02  0.10805905174E+02  0.41600333259E+01  0.16301302418E+02  0.10500000000E+00 0. -1.
    3000001    1    5    5    0    0 -0.35603463420E+02 -0.43087460937E+02 -0.18302441173E+02  0.58822744329E+02  0.10000000000E+01 0.  1.
        -13    1    6    6    0    0 -0.17172644408E+01 -0.51147737122E+00  0.19407107879E+00  0.18053517232E+01  0.10500000000E+00 0.  1.
         13    1    6    6    0    0 -0.17403429803E+01 -0.65917839777E+00  0.17231893988E+00  0.18719050900E+01  0.10500000000E+00 0. -1.
</event>
<event>
11    0  0.3396091E-009  0.9118800E+02  0.7816531E-02  0.1126479E+00
         25   -1    0    0    0    0  0.00000000000E+00  0.00000000000E+00  0.99999998245E-14  0.12500000000E+03  0.12500000000E+03 0.  0.
    3000001    1    3    3    0    0 -0.87659064467E+00  0.21107618767E+01 -0.32322792588E+01  0.40830571959E+01  0.10000000000E+01 0.  1.
    1000022    2    1    0    0    0  0.18166178267E+02  0.43368252058E+02 -0.39942888437E+02  0.62499996992E+02  0.99999983959E+01 0.  0.
    3000022    2    3    3    0    0  0.19042768912E+02  0.41257490181E+02 -0.36710609178E+02  0.58416939796E+02  0.24997003891E+00 0.  0.
    1000022    2    1    0    0    0 -0.18166178267E+02 -0.43368252058E+02  0.39942888437E+02  0.62500003008E+02  0.10000035997E+02 0.  0.
    3000022    2    5    5    0    0 -0.15334188439E+02 -0.32434775597E+02  0.24940534832E+02  0.43694905625E+02  0.24999351905E+00 0.  0.
        -13    1    4    4    0    0  0.95510646320E+01  0.20764417777E+02 -0.18386659280E+02  0.29333669148E+02  0.10500000000E+00 0.  1.
         13    1    4    4    0    0  0.94917042799E+01  0.20493072404E+02 -0.18323949898E+02  0.29083270648E+02  0.10500000000E+00 0. -1.
    3000001    1    5    5    0    0 -0.28319898284E+01 -0.10933476461E+02  0.15002353605E+02  0.18805097383E+02  0.10000000000E+01 0. -1.
        -13    1    6    6    0    0 -0.78733602776E+01 -0.16580175329E+02  0.12686430999E+02  0.22312520532E+02  0.10500000000E+00 0.  1.
         13    1    6    6    0    0 -0.74608281612E+01 -0.15854600268E+02  0.12254103833E+02  0.21382385093E+02  0.10500000000E+00 0. -1.
</event>
<event>
11    0  0.3396091E-009  0.9118800E+02  0.7816531E-02  0.1126479E+00
         25   -1    0    0    0    0  0.00000000000E+00  0.00000000000E+00  0.99999998245E-14  0.12500000000E+03  0.12500000000E+03 0.  0.
    3000001    1    3    3    0    0 -0.30406368632E+02  0.93136700121E+00  0.13722592159E+02  0.33387486180E+02  0.10000000000E+01 0.  1.
    1000022    2    1    0    0    0 -0.59171874925E+02 -0.16386704259E+01  0.17385454506E+02  0.62500000763E+02  0.10000002204E+02 0.  0.
    3000022    2    3    3    0    0 -0.28765506293E+02 -0.25700374271E+01  0.36628623475E+01  0.29112514582E+02  0.25000017391E+00 0.  0.
    1000022    2    1    0    0    0  0.59171874925E+02  0.16386704259E+01 -0.17385454506E+02  0.62499999237E+02  0.99999926722E+01 0.  0.
    3000022    2    5    5    0    0  0.21166580344E+02 -0.41664129670E+01 -0.62679545211E+01  0.22466260775E+02  0.24999773117E+00 0.  0.
        -13    1    4    4    0    0 -0.13594481179E+02 -0.11690157168E+01  0.17808688563E+01  0.13760778872E+02  0.10500000000E+00 0.  1.
         13    1    4    4    0    0 -0.15171025113E+02 -0.14010217103E+01  0.18819934912E+01  0.15351735710E+02  0.10500000000E+00 0. -1.
    3000001    1    5    5    0    0  0.38005294581E+02  0.58050833930E+01 -0.11117499985E+02  0.40033738462E+02  0.10000000000E+01 0.  1.
        -13    1    6    6    0    0  0.11185559619E+02 -0.22674807532E+01 -0.33365130125E+01  0.11891238667E+02  0.10500000000E+00 0.  1.
         13    1    6    6    0    0  0.99810207246E+01 -0.18989322139E+01 -0.29314415086E+01  0.10575022108E+02  0.10500000000E+00 0. -1.
</event>
<event>
11    0  0.3396091E-009  0.9118800E+02  0.7816531E-02  0.1126479E+00
         25   -1    0    0    0    0  0.00000000000E+00  0.00000000000E+00  0.99999998245E-14  0.12500000000E+03  0.12500000000E+03 0.  0.
    3000001    1    3    3    0    0 -0.58101840591E+01  0.86642184559E+01  0.48634724161E+02  0.49751013201E+02  0.10000000000E+01 0. -1.
    1000022    2    1    0    0    0 -0.98788447141E+01  0.14701494725E+02  0.59097582270E+02  0.62499997779E+02  0.99999986050E+01 0.  0.
    3000022    2    3    3    0    0 -0.40686606550E+01  0.60372762691E+01  0.10462858109E+02  0.12748984578E+02  0.25000736929E+00 0.  0.
    1000022    2    1    0    0    0  0.98788447141E+01 -0.14701494725E+02 -0.59097582270E+02  0.62500002221E+02  0.10000026370E+02 0.  0.
    3000022    2    5    5    0    0  0.74056258083E+01 -0.26643831041E+01 -0.19590685703E+02  0.21113969017E+02  0.24998085787E+00 0.  0.
        -13    1    4    4    0    0 -0.27579610404E+01  0.41739238461E+01  0.72193575996E+01  0.87839705444E+01  0.10500000000E+00 0. -1.
         13    1    4    4    0    0 -0.13106996146E+01  0.18633524230E+01  0.32435005096E+01  0.39650140337E+01  0.10500000000E+00 0.  1.
    3000001    1    5    5    0    0  0.24732189058E+01 -0.12037111621E+02 -0.39506896568E+02  0.41386033204E+02  0.10000000000E+01 0. -1.
        -13    1    6    6    0    0  0.23029534870E+01 -0.82990716480E+00 -0.62275040821E+01  0.66921724991E+01  0.10500000000E+00 0.  1.
         13    1    6    6    0    0  0.51026723213E+01 -0.18344759393E+01 -0.13363181621E+02  0.14421796518E+02  0.10500000000E+00 0. -1.
</event>
<event>
11    0  0.3396091E-009  0.9118800E+02  0.7816531E-02  0.1126479E+00
         25   -1    0    0    0    0  0.00000000000E+00  0.00000000000E+00  0.99999998245E-14  0.12500000000E+03  0.12500000000E+03 0.  0.
    3000001    1    3    3    0    0  0.27700428848E+02 -0.51564262572E+01  0.38141522257E+01  0.28450839132E+02  0.10000000000E+01 0.  1.
    1000022    2    1    0    0    0  0.58898856325E+02 -0.57555734482E+01  0.17437004478E+02  0.62500001569E+02  0.99999584392E+01 0.  0.
    3000022    2    3    3    0    0  0.31198427477E+02 -0.59914719105E+00  0.13622852252E+02  0.34049162436E+02  0.25000950354E+00 0.  0.
    1000022    2    1    0    0    0 -0.58898856325E+02  0.57555734482E+01 -0.17437004478E+02  0.62499998431E+02  0.99999388316E+01 0.  0.
    3000022    2    5    5    0    0 -0.33046584926E+01  0.10062079118E+00  0.12874582711E+01  0.35568153868E+01  0.24998919851E+00 0.  0.
        -13    1    4    4    0    0  0.18414898914E+02 -0.29478256828E+00  0.80676882769E+01  0.20107063880E+02  0.10500000000E+00 0. -1.
         13    1    4    4    0    0  0.12783528563E+02 -0.30436462276E+00  0.55551639751E+01  0.13942098556E+02  0.10500000000E+00 0.  1.
    3000001    1    5    5    0    0 -0.55594197833E+02  0.56549526571E+01 -0.18724462749E+02  0.58943183045E+02  0.10000000000E+01 0.  1.
        -13    1    6    6    0    0 -0.21136268572E+01  0.56481626474E-01  0.76045379080E+00  0.22494274012E+01  0.10500000000E+00 0.  1.
         13    1    6    6    0    0 -0.11910316355E+01  0.44139164707E-01  0.52700448030E+00  0.13073879856E+01  0.10500000000E+00 0. -1.
</event>
<event>
11    0  0.3396091E-009  0.9118800E+02  0.7816531E-02  0.1126479E+00
         25   -1    0    0    0    0  0.00000000000E+00  0.00000000000E+00  0.99999998245E-14  0.12500000000E+03  0.12500000000E+03 0.  0.
    3000001    1    3    3    0    0  0.10507070721E+01 -0.15542488139E+02  0.11224229267E+01  0.15650327669E+02  0.10000000000E+01 0. -1.
    1000022    2    1    0    0    0 -0.12395440844E+02 -0.60001677623E+02  0.72388703883E+01  0.62500000647E+02  0.10000028251E+02 0.  0.
    3000022    2    3    3    0    0 -0.13446147916E+02 -0.44459189484E+02  0.61164474615E+01  0.46849672978E+02  0.25001048897E+00 0.  0.
    1000022    2    1    0    0    0  0.12395440844E+02  0.60001677623E+02 -0.72388703883E+01  0.62499999353E+02  0.10000020167E+02 0.  0.
    3000022    2    5    5    0    0  0.12886068181E+02  0.58986767025E+02 -0.62576994261E+01  0.60701818283E+02  0.25000689931E+00 0.  0.
        -13    1    4    4    0    0 -0.51985967825E+01 -0.16990628183E+02  0.23609937099E+01  0.17924624707E+02  0.10500000000E+00 0.  1.
         13    1    4    4    0    0 -0.82475511337E+01 -0.27468561300E+02  0.37554537516E+01  0.28925048271E+02  0.10500000000E+00 0. -1.
    3000001    1    5    5    0    0 -0.49062733701E+00  0.10149105979E+01 -0.98117096221E+00  0.17981810706E+01  0.10000000000E+01 0. -1.
        -13    1    6    6    0    0  0.35074616598E+01  0.15897248134E+02 -0.16992240238E+01  0.16368358892E+02  0.10500000000E+00 0. -1.
         13    1    6    6    0    0  0.93786065212E+01  0.43089518891E+02 -0.45584754022E+01  0.44333459391E+02  0.10500000000E+00 0.  1.
</event>
<event>
11    0  0.3396091E-009  0.9118800E+02  0.7816531E-02  0.1126479E+00
         25   -1    0    0    0    0  0.00000000000E+00  0.00000000000E+00  0.99999998245E-14  0.12500000000E+03  0.12500000000E+03 0.  0.
    3000001    1    3    3    0    0  0.22585721769E+02 -0.45902274898E+02 -0.24065975611E+01  0.51224265544E+02  0.10000000000E+01 0.  1.
    1000022    2    1    0    0    0  0.29211035735E+02 -0.54330478613E+02  0.10791291611E+01  0.62500000110E+02  0.99999989497E+01 0.  0.
    3000022    2    3    3    0    0  0.66253139659E+01 -0.84282037150E+01  0.34857267222E+01  0.11275734567E+02  0.24999245781E+00 0.  0.
    1000022    2    1    0    0    0 -0.29211035735E+02  0.54330478613E+02 -0.10791291611E+01  0.62499999890E+02  0.99999975706E+01 0.  0.
    3000022    2    5    5    0    0 -0.12046295271E+02  0.15908159584E+02  0.31144396754E+01  0.20197648485E+02  0.24999744944E+00 0.  0.
        -13    1    4    4    0    0  0.25700267656E+01 -0.33634079065E+01  0.13521389851E+01  0.44448684071E+01  0.10500000000E+00 0. -1.
         13    1    4    4    0    0  0.40552872003E+01 -0.50647958084E+01  0.21335877371E+01  0.68308661596E+01  0.10500000000E+00 0.  1.
    3000001    1    5    5    0    0 -0.17164740464E+02  0.38422319029E+02 -0.41935688366E+01  0.42302351405E+02  0.10000000000E+01 0.  1.
        -13    1    6    6    0    0 -0.53088770163E+01  0.69031090622E+01  0.13701982477E+01  0.88162099644E+01  0.10500000000E+00 0.  1.
         13    1    6    6    0    0 -0.67374182548E+01  0.90050505218E+01  0.17442414277E+01  0.11381438521E+02  0.10500000000E+00 0. -1.
</event>
<event>
11    0  0.3396091E-009  0.9118800E+02  0.7816531E-02  0.1126479E+00
         25   -1    0    0    0    0  0.00000000000E+00  0.00000000000E+00  0.99999998245E-14  0.12500000000E+03  0.12500000000E+03 0.  0.
    3000001    1    3    3    0    0  0.33670666712E+02 -0.17575726047E+02 -0.16638025243E+02  0.41478233170E+02  0.10000000000E+01 0.  1.
    1000022    2    1    0    0    0  0.45715679614E+02 -0.29995007141E+02 -0.28576672237E+02  0.62499999864E+02  0.99999985443E+01 0.  0.
    3000022    2    3    3    0    0  0.12045012902E+02 -0.12419281094E+02 -0.11938646994E+02  0.21021766694E+02  0.25000838299E+00 0.  0.
    1000022    2    1    0    0    0 -0.45715679614E+02  0.29995007141E+02  0.28576672237E+02  0.62500000136E+02  0.10000000243E+02 0.  0.
    3000022    2    5    5    0    0 -0.36537105792E+02  0.26998538016E+02  0.20368113937E+02  0.49787585967E+02  0.24999289155E+00 0.  0.
        -13    1    4    4    0    0  0.48026549649E+01 -0.49217260486E+01 -0.48174709594E+01  0.83969002289E+01  0.10500000000E+00 0.  1.
         13    1    4    4    0    0  0.72423579375E+01 -0.74975550451E+01 -0.71211760349E+01  0.12624866465E+02  0.10500000000E+00 0. -1.
    3000001    1    5    5    0    0 -0.91785738218E+01  0.29964691251E+01  0.82085583004E+01  0.12712414169E+02  0.10000000000E+01 0.  1.
        -13    1    6    6    0    0 -0.13887617182E+02  0.10316508977E+02  0.77100314938E+01  0.18940746530E+02  0.10500000000E+00 0.  1.
         13    1    6    6    0    0 -0.22649488611E+02  0.16682029038E+02  0.12658082443E+02  0.30846839438E+02  0.10500000000E+00 0. -1.
</event>
<event>
11    0  0.3396091E-009  0.9118800E+02  0.7816531E-02  0.1126479E+00
         25   -1    0    0    0    0  0.00000000000E+00  0.00000000000E+00  0.99999998245E-14  0.12500000000E+03  0.12500000000E+03 0.  0.
    3000001    1    3    3    0    0 -0.96074438621E+01 -0.20003010103E+02 -0.74409678731E+01  0.23426297053E+02  0.10000000000E+01 0.  1.
    1000022    2    1    0    0    0 -0.13646091466E+02 -0.57344429318E+02 -0.18211273822E+02  0.62499999943E+02  0.10000005625E+02 0.  0.
    3000022    2    3    3    0    0 -0.40386476035E+01 -0.37341419215E+02 -0.10770305949E+02  0.39073702889E+02  0.25000757259E+00 0.  0.
    1000022    2    1    0    0    0  0.13646091466E+02  0.57344429318E+02  0.18211273822E+02  0.62500000057E+02  0.10000006342E+02 0.  0.
    3000022    2    5    5    0    0 -0.16059711988E+00  0.28733288814E+00  0.13538657956E+01  0.14155576183E+01  0.24999830953E+00 0.  0.
        -13    1    4    4    0    0 -0.27703415579E+01 -0.25295479968E+02 -0.72572351744E+01  0.26461568104E+02  0.10500000000E+00 0. -1.
         13    1    4    4    0    0 -0.12683060456E+01 -0.12045939247E+02 -0.35130707749E+01  0.12612134785E+02  0.10500000000E+00 0.  1.
    3000001    1    5    5    0    0  0.13806688585E+02  0.57057096430E+02  0.16857408027E+02  0.61084442439E+02  0.10000000000E+01 0. -1.
        -13    1    6    6    0    0 -0.11632202988E+00  0.99569321962E-01  0.76085000745E+00  0.78317469210E+00  0.10500000000E+00 0. -1.
         13    1    6    6    0    0 -0.44275089997E-01  0.18776356618E+00  0.59301578817E+00  0.63238292624E+00  0.10500000000E+00 0. -1.
</event>
<event>
11    0  0.3396091E-009  0.9118800E+02  0.7816531E-02  0.1126479E+00
         25   -1    0    0    0    0  0.00000000000E+00  0.00000000000E+00  0.99999998245E-14  0.12500000000E+03  0.12500000000E+03 0.  0.
    3000001    1    3    3    0    0 -0.20977145336E+02  0.69801704320E+01 -0.55535658937E+02  0.59782713382E+02  0.10000000000E+01 0.  1.
    1000022    2    1    0    0    0 -0.22771250249E+02  0.86496360646E+01 -0.56682483712E+02  0.62500000625E+02  0.10000003819E+02 0.  0.
    3000022    2    3    3    0    0 -0.17941049133E+01  0.16694656326E+01 -0.11468247751E+01  0.27172872432E+01  0.25002991607E+00 0.  0.
    1000022    2    1    0    0    0  0.22771250249E+02 -0.86496360646E+01  0.56682483712E+02  0.62499999375E+02  0.99999960098E+01 0.  0.
    3000022    2    5    5    0    0  0.77598425240E+01 -0.76309753494E+01  0.18764134284E+02  0.21693366889E+02  0.24998153400E+00 0.  0.
        -13    1    4    4    0    0 -0.54511662549E+00  0.54146072751E+00 -0.31449172860E+00  0.83681652838E+00  0.10500000000E+00 0. -1.
         13    1    4    4    0    0 -0.12489882878E+01  0.11280049051E+01 -0.83233304647E+00  0.18804707148E+01  0.10500000000E+00 0.  1.
    3000001    1    5    5    0    0  0.15011407725E+02 -0.10186607152E+01  0.37918349428E+02  0.40806632486E+02  0.10000000000E+01 0. -1.
        -13    1    6    6    0    0  0.31143858340E+01 -0.31386068420E+01  0.75570581293E+01  0.87561638062E+01  0.10500000000E+00 0. -1.
         13    1    6    6    0    0  0.46454566900E+01 -0.44923685074E+01  0.11207076155E+02  0.12937203083E+02  0.10500000000E+00 0.  1.
</event>
<event>
11    0  0.3396091E-009  0.9118800E+02  0.7816531E-02  0.1126479E+00
         25   -1    0    0    0    0  0.00000000000E+00  0.00000000000E+00  0.99999998245E-14  0.12500000000E+03  0.12500000000E+03 0.  0.
    3000001    1    3    3    0    0  0.66036711284E+00  0.57165370554E+00 -0.97799178913E+00  0.16490423349E+01  0.10000000000E+01 0. -1.
    1000022    2    1    0    0    0  0.57160010780E+02  0.23157441825E+02 -0.16479597652E+01  0.62499998906E+02  0.10000007378E+02 0.  0.
    3000022    2    3    3    0    0  0.56499643667E+02  0.22585788119E+02 -0.66996797608E+00  0.60850956571E+02  0.24999796853E+00 0.  0.
    1000022    2    1    0    0    0 -0.57160010780E+02 -0.23157441825E+02  0.16479597652E+01  0.62500001094E+02  0.10000021058E+02 0.  0.
    3000022    2    5    5    0    0 -0.44593787270E+02 -0.16148331539E+02  0.50031625368E+01  0.47691389210E+02  0.24998966050E+00 0.  0.
        -13    1    4    4    0    0  0.27207688083E+02  0.10906476865E+02 -0.26115294315E+00  0.29313627450E+02  0.10500000000E+00 0.  1.
         13    1    4    4    0    0  0.29291955585E+02  0.11679311254E+02 -0.40881503293E+00  0.31537329121E+02  0.10500000000E+00 0. -1.
    3000001    1    5    5    0    0 -0.12566223510E+02 -0.70091102853E+01 -0.33552027716E+01  0.14808611884E+02  0.10000000000E+01 0. -1.
        -13    1    6    6    0    0 -0.17816060679E+02 -0.65171124524E+01  0.20145322408E+01  0.19077582079E+02  0.10500000000E+00 0.  1.
         13    1    6    6    0    0 -0.26777726592E+02 -0.96312190869E+01  0.29886302960E+01  0.28613807132E+02  0.10500000000E+00 0. -1.
</event>
<event>
11    0  0.3396091E-009  0.9118800E+02  0.7816531E-02  0.1126479E+00
         25   -1    0    0    0    0  0.00000000000E+00  0.00000000000E+00  0.99999998245E-14  0.12500000000E+03  0.12500000000E+03 0.  0.
    3000001    1    3    3    0    0  0.28846507684E+02  0.58390193679E+01 -0.75866723394E+01  0.30410076454E+02  0.10000000000E+01 0.  1.
    1000022    2    1    0    0    0  0.60052326188E+02  0.19955125319E+01 -0.13999512067E+02  0.62499991760E+02  0.99999340560E+01 0.  0.
    3000022    2    3    3    0    0  0.31205818503E+02 -0.38435068360E+01 -0.64128397275E+01  0.32089915306E+02  0.24999546122E+00 0.  0.
    1000022    2    1    0    0    0 -0.60052326188E+02 -0.19955125319E+01  0.13999512067E+02  0.62500008240E+02  0.10000037051E+02 0.  0.
    3000022    2    5    5    0    0 -0.56695613073E+02 -0.40222482628E+01  0.12602635831E+02  0.58219068637E+02  0.25000068931E+00 0.  0.
        -13    1    4    4    0    0  0.18188665652E+02 -0.22850851872E+01 -0.37866066202E+01  0.18718936594E+02  0.10500000000E+00 0. -1.
         13    1    4    4    0    0  0.13017152851E+02 -0.15584216488E+01 -0.26262331073E+01  0.13370978712E+02  0.10500000000E+00 0.  1.
    3000001    1    5    5    0    0 -0.33567131150E+01  0.20267357309E+01  0.13968762359E+01  0.42809396022E+01  0.10000000000E+01 0.  1.
        -13    1    6    6    0    0 -0.33329663614E+02 -0.23029076892E+01  0.74265119454E+01  0.34224756612E+02  0.10500000000E+00 0. -1.
         13    1    6    6    0    0 -0.23365949459E+02 -0.17193405736E+01  0.51761238856E+01  0.23994312026E+02  0.10500000000E+00 0.  1.
</event>
<event>
11    0  0.3396091E-009  0.9118800E+02  0.7816531E-02  0.1126479E+00
         25   -1    0    0    0    0  0.00000000000E+00  0.00000000000E+00  0.99999998245E-14  0.12500000000E+03  0.12500000000E+03 0.  0.
    3000001    1    3    3    0    0 -0.70015234881E+01 -0.78025290186E+01  0.14572207570E+02  0.17979155256E+02  0.10000000000E+01 0. -1.
    1000022    2    1    0    0    0 -0.97697392048E+01 -0.32160675070E+02  0.51734834999E+02  0.62500000644E+02  0.10000005153E+02 0.  0.
    3000022    2    3    3    0    0 -0.27682157167E+01 -0.24358146052E+02  0.37162627428E+02  0.44520845388E+02  0.24999874240E+00 0.  0.
    1000022    2    1    0    0    0  0.97697392048E+01  0.32160675070E+02 -0.51734834999E+02  0.62499999356E+02  0.99999971014E+01 0.  0.
    3000022    2    5    5    0    0  0.53092455088E+01  0.23593938848E+02 -0.28888736058E+02  0.37676034920E+02  0.24999600900E+00 0.  0.
        -13    1    4    4    0    0 -0.12454139867E+01 -0.10895866681E+02  0.16504848815E+02  0.19816458466E+02  0.10500000000E+00 0. -1.
         13    1    4    4    0    0 -0.15228017299E+01 -0.13462279370E+02  0.20657778613E+02  0.24704386922E+02  0.10500000000E+00 0.  1.
    3000001    1    5    5    0    0  0.44604936960E+01  0.85667362218E+01 -0.22846098940E+02  0.24823964436E+02  0.10000000000E+01 0.  1.
        -13    1    6    6    0    0  0.15058780809E+01  0.68018726443E+01 -0.82682645233E+01  0.10812417097E+02  0.10500000000E+00 0. -1.
         13    1    6    6    0    0  0.38033674279E+01  0.16792066204E+02 -0.20620471535E+02  0.26863617823E+02  0.10500000000E+00 0.  1.
</event>
<event>
11    0  0.3396091E-009  0.9118800E+02  0.7816531E-02  0.1126479E+00
         25   -1    0    0    0    0  0.00000000000E+00  0.00000000000E+00  0.99999998245E-14  0.12500000000E+03  0.12500000000E+03 0.  0.
    3000001    1    3    3    0    0  0.80948190199E+01 -0.17365831325E+02  0.28851183783E+01  0.19401600466E+02  0.10000000000E+01 0. -1.
    1000022    2    1    0    0    0  0.28456593506E+02 -0.54502424513E+02 -0.50949217911E+01  0.62499999134E+02  0.99999836004E+01 0.  0.
    3000022    2    3    3    0    0  0.20361774486E+02 -0.37136593188E+02 -0.79800401694E+01  0.43098398668E+02  0.25002577401E+00 0.  0.
    1000022    2    1    0    0    0 -0.28456593506E+02  0.54502424513E+02  0.50949217911E+01  0.62500000866E+02  0.99999944252E+01 0.  0.
    3000022    2    5    5    0    0 -0.99990826622E+01  0.13016088505E+02 -0.19798115153E+01  0.16534278494E+02  0.24999522397E+00 0.  0.
        -13    1    4    4    0    0  0.86044802985E+01 -0.15588975423E+02 -0.33130880131E+01  0.18111897005E+02  0.10500000000E+00 0.  1.
         13    1    4    4    0    0  0.11757294187E+02 -0.21547617765E+02 -0.46669521563E+01  0.24986501663E+02  0.10500000000E+00 0. -1.
    3000001    1    5    5    0    0 -0.18457510843E+02  0.41486336007E+02  0.70747333063E+01  0.45965722372E+02  0.10000000000E+01 0. -1.
        -13    1    6    6    0    0 -0.69347236035E+01  0.90816784237E+01 -0.13449385999E+01  0.11505961902E+02  0.10500000000E+00 0. -1.
         13    1    6    6    0    0 -0.30643590586E+01  0.39344100815E+01 -0.63487291537E+00  0.50283165919E+01  0.10500000000E+00 0.  1.
</event>
<event>
11    0  0.3396091E-009  0.9118800E+02  0.7816531E-02  0.1126479E+00
         25   -1    0    0    0    0  0.00000000000E+00  0.00000000000E+00  0.99999998245E-14  0.12500000000E+03  0.12500000000E+03 0.  0.
    3000001    1    3    3    0    0 -0.79663634075E+01 -0.83669109833E+01 -0.35284696618E+01  0.12120983603E+02  0.10000000000E+01 0.  1.
    1000022    2    1    0    0    0 -0.52182464697E+02 -0.26725425170E+02 -0.19209165890E+02  0.62500000935E+02  0.10000004515E+02 0.  0.
    3000022    2    3    3    0    0 -0.44216101289E+02 -0.18358514187E+02 -0.15680696228E+02  0.50379017332E+02  0.24999354204E+00 0.  0.
    1000022    2    1    0    0    0  0.52182464697E+02  0.26725425170E+02  0.19209165890E+02  0.62499999065E+02  0.99999928303E+01 0.  0.
    3000022    2    5    5    0    0  0.14831065562E+02  0.31684075366E+01  0.67773163404E+01  0.16613062141E+02  0.25000976177E+00 0.  0.
        -13    1    4    4    0    0 -0.26363853280E+02 -0.10953118654E+02 -0.92840549976E+01  0.30020464190E+02  0.10500000000E+00 0.  1.
         13    1    4    4    0    0 -0.17852248010E+02 -0.74053955333E+01 -0.63966412307E+01  0.20358553142E+02  0.10500000000E+00 0. -1.
    3000001    1    5    5    0    0  0.37351399134E+02  0.23557017634E+02  0.12431849550E+02  0.45886936924E+02  0.10000000000E+01 0. -1.
        -13    1    6    6    0    0  0.44820069255E+01  0.10018430580E+01  0.20713358012E+01  0.50391995986E+01  0.10500000000E+00 0.  1.
         13    1    6    6    0    0  0.10349058637E+02  0.21665644787E+01  0.47059805392E+01  0.11573862542E+02  0.10500000000E+00 0.  1.
</event>
<event>
11    0  0.3396091E-009  0.9118800E+02  0.7816531E-02  0.1126479E+00
         25   -1    0    0    0    0  0.00000000000E+00  0.00000000000E+00  0.99999998245E-14  0.12500000000E+03  0.12500000000E+03 0.  0.
    3000001    1    3    3    0    0  0.23453935974E+02 -0.23912273840E+02  0.20818235209E+02  0.39449751204E+02  0.10000000000E+01 0.  1.
    1000022    2    1    0    0    0  0.41026169920E+02 -0.37715513845E+02  0.26469685910E+02  0.62500005771E+02  0.99999923183E+01 0.  0.
    3000022    2    3    3    0    0  0.17572233945E+02 -0.13803240006E+02  0.56514507007E+01  0.23050254567E+02  0.25000019471E+00 0.  0.
    1000022    2    1    0    0    0 -0.41026169920E+02  0.37715513845E+02 -0.26469685910E+02  0.62499994229E+02  0.99999201755E+01 0.  0.
    3000022    2    5    5    0    0 -0.15696770014E+02  0.18352512467E+02 -0.70650083813E+01  0.25163071057E+02  0.24999770176E+00 0.  0.
        -13    1    4    4    0    0  0.12197158085E+02 -0.95546069365E+01  0.39626275128E+01  0.15992955351E+02  0.10500000000E+00 0. -1.
         13    1    4    4    0    0  0.53750758602E+01 -0.42486330692E+01  0.16888231879E+01  0.70572992157E+01  0.10500000000E+00 0.  1.
    3000001    1    5    5    0    0 -0.25329399906E+02  0.19363001378E+02 -0.19404677528E+02  0.37336923172E+02  0.10000000000E+01 0. -1.
        -13    1    6    6    0    0 -0.77396046145E+01  0.90880898431E+01 -0.35577422200E+01  0.12456460624E+02  0.10500000000E+00 0.  1.
         13    1    6    6    0    0 -0.79571653992E+01  0.92644226243E+01 -0.35072661614E+01  0.12706610432E+02  0.10500000000E+00 0. -1.
</event>
<event>
11    0  0.3396091E-009  0.9118800E+02  0.7816531E-02  0.1126479E+00
         25   -1    0    0    0    0  0.00000000000E+00  0.00000000000E+00  0.99999998245E-14  0.12500000000E+03  0.12500000000E+03 0.  0.
    3000001    1    3    3    0    0 -0.65002312506E+01  0.14759807605E+02  0.19678509654E+02  0.25462691709E+02  0.10000000000E+01 0. -1.
    1000022    2    1    0    0    0 -0.14140539915E+02  0.26006922806E+02  0.54128883272E+02  0.62500006126E+02  0.99999929296E+01 0.  0.
    3000022    2    3    3    0    0 -0.76403086645E+01  0.11247115201E+02  0.34450373618E+02  0.37037314418E+02  0.25000006956E+00 0.  0.
    1000022    2    1    0    0    0  0.14140539915E+02 -0.26006922806E+02 -0.54128883272E+02  0.62499993874E+02  0.99999163503E+01 0.  0.
    3000022    2    5    5    0    0  0.11373005551E+02 -0.24540232882E+02 -0.51906866893E+02  0.58531646286E+02  0.25000230540E+00 0.  0.
        -13    1    4    4    0    0 -0.19472414065E+01  0.28690432753E+01  0.88676990457E+01  0.95220937706E+01  0.10500000000E+00 0. -1.
         13    1    4    4    0    0 -0.56930672580E+01  0.83780719262E+01  0.25582674572E+02  0.27515220647E+02  0.10500000000E+00 0.  1.
    3000001    1    5    5    0    0  0.27675343636E+01 -0.14666899242E+01 -0.22220163791E+01  0.39683475877E+01  0.10000000000E+01 0.  1.
        -13    1    6    6    0    0  0.53390743690E+01 -0.11581412487E+02 -0.24339025978E+02  0.27477882758E+02  0.10500000000E+00 0. -1.
         13    1    6    6    0    0  0.60339311824E+01 -0.12958820395E+02 -0.27567840915E+02  0.31053763528E+02  0.10500000000E+00 0.  1.
</event>
<event>
11    0  0.3396091E-009  0.9118800E+02  0.7816531E-02  0.1126479E+00
         25   -1    0    0    0    0  0.00000000000E+00  0.00000000000E+00  0.99999998245E-14  0.12500000000E+03  0.12500000000E+03 0.  0.
    3000001    1    3    3    0    0  0.55050364298E+01  0.71067366185E+01 -0.19883190825E+02  0.21843818550E+02  0.10000000000E+01 0.  1.
    1000022    2    1    0    0    0  0.27602709935E+02  0.15328858209E+02 -0.53003457109E+02  0.62499998848E+02  0.99999950402E+01 0.  0.
    3000022    2    3    3    0    0  0.22097673505E+02  0.82221215900E+01 -0.33120266284E+02  0.40656180298E+02  0.24999990299E+00 0.  0.
    1000022    2    1    0    0    0 -0.27602709935E+02 -0.15328858209E+02  0.53003457109E+02  0.62500001152E+02  0.10000009442E+02 0.  0.
    3000022    2    5    5    0    0 -0.10185988185E+00 -0.49869921327E+00  0.61449187008E+01  0.61710299990E+01  0.25001813538E+00 0.  0.
        -13    1    4    4    0    0  0.12629059971E+02  0.47126504409E+01 -0.19045612381E+02  0.23333422507E+02  0.10500000000E+00 0.  1.
         13    1    4    4    0    0  0.94686135335E+01  0.35094711491E+01 -0.14074653903E+02  0.17322757791E+02  0.10500000000E+00 0. -1.
    3000001    1    5    5    0    0 -0.27500850053E+02 -0.14830158995E+02  0.46858538408E+02  0.56328971153E+02  0.10000000000E+01 0.  1.
        -13    1    6    6    0    0 -0.61503015152E-02 -0.11881221273E+00  0.14646987853E+01  0.14732690520E+01  0.10500000000E+00 0.  1.
         13    1    6    6    0    0 -0.95709580339E-01 -0.37988700054E+00  0.46802199156E+01  0.46977609470E+01  0.10500000000E+00 0. -1.
</event>
<event>
11    0  0.3396091E-009  0.9118800E+02  0.7816531E-02  0.1126479E+00
         25   -1    0    0    0    0  0.00000000000E+00  0.00000000000E+00  0.99999998245E-14  0.12500000000E+03  0.12500000000E+03 0.  0.
    3000001    1    3    3    0    0 -0.80685136280E+01  0.63948365296E+01  0.15890668680E+01  0.10465179402E+02  0.10000000000E+01 0.  1.
    1000022    2    1    0    0    0 -0.39759265135E+02  0.36930185023E+02  0.29353231762E+02  0.62500000366E+02  0.10000005051E+02 0.  0.
    3000022    2    3    3    0    0 -0.31690751507E+02  0.30535348493E+02  0.27764164894E+02  0.52034820964E+02  0.25000370230E+00 0.  0.
    1000022    2    1    0    0    0  0.39759265135E+02 -0.36930185023E+02 -0.29353231762E+02  0.62499999634E+02  0.10000000471E+02 0.  0.
    3000022    2    5    5    0    0  0.33067422553E+02 -0.26444501855E+02 -0.25553556680E+02  0.49455160065E+02  0.24997078104E+00 0.  0.
        -13    1    4    4    0    0 -0.11938933711E+02  0.11471948628E+02  0.10511954415E+02  0.19612647809E+02  0.10500000000E+00 0. -1.
         13    1    4    4    0    0 -0.19751817796E+02  0.19063399866E+02  0.17252210479E+02  0.32422173155E+02  0.10500000000E+00 0.  1.
    3000001    1    5    5    0    0  0.66918425817E+01 -0.10485683168E+02 -0.37996750821E+01  0.13044839569E+02  0.10000000000E+01 0.  1.
        -13    1    6    6    0    0  0.11317443245E+02 -0.91058079086E+01 -0.87261212547E+01  0.16945691972E+02  0.10500000000E+00 0. -1.
         13    1    6    6    0    0  0.21749979308E+02 -0.17338693946E+02 -0.16827435425E+02  0.32509468093E+02  0.10500000000E+00 0.  1.
</event>
<event>
11    0  0.3396091E-009  0.9118800E+02  0.7816531E-02  0.1126479E+00
         25   -1    0    0    0    0  0.00000000000E+00  0.00000000000E+00  0.99999998245E-14  0.12500000000E+03  0.12500000000E+03 0.  0.
    3000001    1    3    3    0    0  0.30358310156E+02  0.11955444487E+02  0.11714547613E+02  0.34681266905E+02  0.10000000000E+01 0. -1.
    1000022    2    1    0    0    0  0.50963991082E+02  0.19395316555E+02  0.28857290891E+02  0.62500000339E+02  0.10000005677E+02 0.  0.
    3000022    2    3    3    0    0  0.20605680927E+02  0.74398720677E+01  0.17142743278E+02  0.27818733434E+02  0.24999984647E+00 0.  0.
    1000022    2    1    0    0    0 -0.50963991082E+02 -0.19395316555E+02 -0.28857290891E+02  0.62499999661E+02  0.10000001439E+02 0.  0.
    3000022    2    5    5    0    0 -0.16016613486E+02 -0.64715015877E+01 -0.41092061673E+01  0.17758387133E+02  0.24999574066E+00 0.  0.
        -13    1    4    4    0    0  0.90160293532E+01  0.32774315325E+01  0.74272696945E+01  0.12132835730E+02  0.10500000000E+00 0.  1.
         13    1    4    4    0    0  0.11589651573E+02  0.41624405352E+01  0.97154735837E+01  0.15685897703E+02  0.10500000000E+00 0. -1.
    3000001    1    5    5    0    0 -0.34947377596E+02 -0.12923814967E+02 -0.24748084723E+02  0.44741612528E+02  0.10000000000E+01 0. -1.
        -13    1    6    6    0    0 -0.94359873569E+01 -0.37444664138E+01 -0.24031038208E+01  0.10432872045E+02  0.10500000000E+00 0. -1.
         13    1    6    6    0    0 -0.65806261293E+01 -0.27270351739E+01 -0.17061023465E+01  0.73255150884E+01  0.10500000000E+00 0.  1.
</event>
<event>
11    0  0.3396091E-009  0.9118800E+02  0.7816531E-02  0.1126479E+00
         25   -1    0    0    0    0  0.00000000000E+00  0.00000000000E+00  0.99999998245E-14  0.12500000000E+03  0.12500000000E+03 0.  0.
    3000001    1    3    3    0    0 -0.25207666968E+02  0.26581303438E+02 -0.11904038959E+02  0.38531783114E+02  0.10000000000E+01 0.  1.
    1000022    2    1    0    0    0 -0.45889040626E+02  0.37680226013E+02 -0.16752507791E+02  0.62500000901E+02  0.10000005671E+02 0.  0.
    3000022    2    3    3    0    0 -0.20681373658E+02  0.11098922575E+02 -0.48484688320E+01  0.23968217787E+02  0.25003032865E+00 0.  0.
    1000022    2    1    0    0    0  0.45889040626E+02 -0.37680226013E+02  0.16752507791E+02  0.62499999099E+02  0.99999944057E+01 0.  0.
    3000022    2    5    5    0    0  0.45517144962E+02 -0.37335545011E+02  0.17136988603E+02  0.61314698768E+02  0.24999985645E+00 0.  0.
        -13    1    4    4    0    0 -0.97351868993E+01  0.52392958501E+01 -0.23513342336E+01  0.11303268671E+02  0.10500000000E+00 0. -1.
         13    1    4    4    0    0 -0.10946186759E+02  0.58596267248E+01 -0.24971345984E+01  0.12664949116E+02  0.10500000000E+00 0.  1.
    3000001    1    5    5    0    0  0.37189566445E+00 -0.34468100198E+00 -0.38448081271E+00  0.11853003306E+01  0.10000000000E+01 0.  1.
        -13    1    6    6    0    0  0.32530525594E+02 -0.26729813175E+02  0.12235050338E+02  0.43845472852E+02  0.10500000000E+00 0. -1.
         13    1    6    6    0    0  0.12986619368E+02 -0.10605731835E+02  0.49019382651E+01  0.17469225916E+02  0.10500000000E+00 0.  1.
</event>
<event>
11    0  0.3396091E-009  0.9118800E+02  0.7816531E-02  0.1126479E+00
         25   -1    0    0    0    0  0.00000000000E+00  0.00000000000E+00  0.99999998245E-14  0.12500000000E+03  0.12500000000E+03 0.  0.
    3000001    1    3    3    0    0  0.17321413501E+00  0.56793490028E+01  0.58500507659E+01  0.82163314317E+01  0.10000000000E+01 0.  1.
    1000022    2    1    0    0    0  0.24392926492E+02  0.43982010113E+02  0.35732586855E+02  0.62500000969E+02  0.10000014071E+02 0.  0.
    3000022    2    3    3    0    0  0.24219712357E+02  0.38302661110E+02  0.29882536090E+02  0.54283669538E+02  0.25000118708E+00 0.  0.
    1000022    2    1    0    0    0 -0.24392926492E+02 -0.43982010113E+02 -0.35732586855E+02  0.62499999031E+02  0.10000001953E+02 0.  0.
    3000022    2    5    5    0    0 -0.23680349332E+02 -0.42372993887E+02 -0.36032914160E+02  0.60453808445E+02  0.24999440376E+00 0.  0.
        -13    1    4    4    0    0  0.71441334515E+01  0.11307608321E+02  0.88728571393E+01  0.16051145365E+02  0.10500000000E+00 0. -1.
         13    1    4    4    0    0  0.17075578905E+02  0.26995052788E+02  0.21009678950E+02  0.38232524172E+02  0.10500000000E+00 0.  1.
    3000001    1    5    5    0    0 -0.71257715989E+00 -0.16090162255E+01  0.30032730455E+00  0.20461905856E+01  0.10000000000E+01 0.  1.
        -13    1    6    6    0    0 -0.10383873915E+02 -0.18557898690E+02 -0.15704759718E+02  0.26436167349E+02  0.10500000000E+00 0. -1.
         13    1    6    6    0    0 -0.13296475417E+02 -0.23815095197E+02 -0.20328154442E+02  0.34017641096E+02  0.10500000000E+00 0.  1.
</event>
<event>
11    0  0.3396091E-009  0.9118800E+02  0.7816531E-02  0.1126479E+00
         25   -1    0    0    0    0  0.00000000000E+00  0.00000000000E+00  0.99999998245E-14  0.12500000000E+03  0.12500000000E+03 0.  0.
    3000001    1    3    3    0    0  0.44907597555E+02 -0.16656728965E+02 -0.37972525396E+01  0.48057861634E+02  0.10000000000E+01 0. -1.
    1000022    2    1    0    0    0  0.59154606676E+02 -0.16410899966E+02 -0.61371554709E+01  0.62499999351E+02  0.10000005651E+02 0.  0.
    3000022    2    3    3    0    0  0.14247009120E+02  0.24582899916E+00 -0.23399029314E+01  0.14442137717E+02  0.24999068877E+00 0.  0.
    1000022    2    1    0    0    0 -0.59154606676E+02  0.16410899966E+02  0.61371554709E+01  0.62500000649E+02  0.10000013757E+02 0.  0.
    3000022    2    5    5    0    0 -0.29549574074E+02  0.41357766762E+01  0.59960076368E+01  0.30435120642E+02  0.24996848434E+00 0.  0.
        -13    1    4    4    0    0  0.39925962479E+01  0.88095256096E-01 -0.62064657608E+00  0.40428718437E+01  0.10500000000E+00 0. -1.
         13    1    4    4    0    0  0.10254412872E+02  0.15773374306E+00 -0.17192563553E+01  0.10399265873E+02  0.10500000000E+00 0.  1.
    3000001    1    5    5    0    0 -0.29605032602E+02  0.12275123290E+02  0.14114783416E+00  0.32064880007E+02  0.10000000000E+01 0.  1.
        -13    1    6    6    0    0 -0.21555000677E+02  0.30522828793E+01  0.43832613735E+01  0.22207172045E+02  0.10500000000E+00 0.  1.
         13    1    6    6    0    0 -0.79945733969E+01  0.10834937970E+01  0.16127462632E+01  0.82279485971E+01  0.10500000000E+00 0. -1.
</event>
<event>
11    0  0.3396091E-009  0.9118800E+02  0.7816531E-02  0.1126479E+00
         25   -1    0    0    0    0  0.00000000000E+00  0.00000000000E+00  0.99999998245E-14  0.12500000000E+03  0.12500000000E+03 0.  0.
    3000001    1    3    3    0    0  0.26977954940E+01 -0.24426574650E+01 -0.44024704496E+01  0.57988293714E+01  0.10000000000E+01 0.  1.
    1000022    2    1    0    0    0  0.11835291689E+02 -0.60599156741E+01 -0.60244943037E+02  0.62499998757E+02  0.99999987871E+01 0.  0.
    3000022    2    3    3    0    0  0.91374961949E+01 -0.36172582091E+01 -0.55842472588E+02  0.56701169386E+02  0.24994268350E+00 0.  0.
    1000022    2    1    0    0    0 -0.11835291689E+02  0.60599156741E+01  0.60244943037E+02  0.62500001243E+02  0.10000014321E+02 0.  0.
    3000022    2    5    5    0    0 -0.81774849434E+01  0.71610898179E+01  0.54199036834E+02  0.55278843683E+02  0.24999563268E+00 0.  0.
        -13    1    4    4    0    0  0.50484273116E+01 -0.19395323975E+01 -0.30509662813E+02  0.30985463595E+02  0.10500000000E+00 0.  1.
         13    1    4    4    0    0  0.40890688832E+01 -0.16777258117E+01 -0.25332809775E+02  0.25715705791E+02  0.10500000000E+00 0. -1.
    3000001    1    5    5    0    0 -0.36578067455E+01 -0.11011741438E+01  0.60459062036E+01  0.72211575599E+01  0.10000000000E+01 0. -1.
        -13    1    6    6    0    0 -0.31726216419E+01  0.28193107697E+01  0.21439183882E+02  0.21855518110E+02  0.10500000000E+00 0. -1.
         13    1    6    6    0    0 -0.50048633015E+01  0.43417790482E+01  0.32759852951E+02  0.33423325573E+02  0.10500000000E+00 0.  1.
</event>
<event>
11    0  0.3396091E-009  0.9118800E+02  0.7816531E-02  0.1126479E+00
         25   -1    0    0    0    0  0.00000000000E+00  0.00000000000E+00  0.99999998245E-14  0.12500000000E+03  0.12500000000E+03 0.  0.
    3000001    1    3    3    0    0 -0.11451760399E+02 -0.54731331070E+01  0.45996384577E+02  0.47725940497E+02  0.10000000000E+01 0. -1.
    1000022    2    1    0    0    0 -0.19612989357E+02 -0.48460847563E+01  0.58293191797E+02  0.62499999556E+02  0.99999922774E+01 0.  0.
    3000022    2    3    3    0    0 -0.81612289583E+01  0.62704835068E+00  0.12296807221E+02  0.14774059058E+02  0.25001097967E+00 0.  0.
    1000022    2    1    0    0    0  0.19612989357E+02  0.48460847563E+01 -0.58293191797E+02  0.62500000444E+02  0.99999978332E+01 0.  0.
    3000022    2    5    5    0    0  0.12216732345E+02  0.68829724903E+01 -0.44827187334E+02  0.46969810310E+02  0.24999346463E+00 0.  0.
        -13    1    4    4    0    0 -0.30083137691E+01  0.19233856871E+00  0.44486726353E+01  0.53748171201E+01  0.10500000000E+00 0. -1.
         13    1    4    4    0    0 -0.51529151892E+01  0.43470978197E+00  0.78481345853E+01  0.93992419381E+01  0.10500000000E+00 0.  1.
    3000001    1    5    5    0    0  0.73962570118E+01 -0.20368877340E+01 -0.13466004463E+02  0.15530190135E+02  0.10000000000E+01 0. -1.
        -13    1    6    6    0    0  0.60608539893E+01  0.33383427756E+01 -0.22075984613E+02  0.23135224339E+02  0.10500000000E+00 0. -1.
         13    1    6    6    0    0  0.61558783560E+01  0.35446297146E+01 -0.22751202721E+02  0.23834585971E+02  0.10500000000E+00 0.  1.
</event>
<event>
11    0  0.3396091E-009  0.9118800E+02  0.7816531E-02  0.1126479E+00
         25   -1    0    0    0    0  0.00000000000E+00  0.00000000000E+00  0.99999998245E-14  0.12500000000E+03  0.12500000000E+03 0.  0.
    3000001    1    3    3    0    0 -0.41342034204E+02  0.20495649396E+02 -0.36171178424E+02  0.58639488272E+02  0.10000000000E+01 0.  1.
    1000022    2    1    0    0    0 -0.44994009382E+02  0.19884363984E+02 -0.37234408486E+02  0.62500000399E+02  0.10000003167E+02 0.  0.
    3000022    2    3    3    0    0 -0.36519751781E+01 -0.61128541192E+00 -0.10632300619E+01  0.38605121272E+01  0.25000632680E+00 0.  0.
    1000022    2    1    0    0    0  0.44994009382E+02 -0.19884363984E+02  0.37234408486E+02  0.62499999601E+02  0.99999981746E+01 0.  0.
    3000022    2    5    5    0    0  0.19599862529E+02 -0.55178689276E+01  0.10482499842E+02  0.22902985942E+02  0.24994693605E+00 0.  0.
        -13    1    4    4    0    0 -0.12803877810E+01 -0.16299570416E+00 -0.39669847071E+00  0.13543836775E+01  0.10500000000E+00 0. -1.
         13    1    4    4    0    0 -0.23715873971E+01 -0.44828970776E+00 -0.66653159123E+00  0.25061284497E+01  0.10500000000E+00 0.  1.
    3000001    1    5    5    0    0  0.25394146853E+02 -0.14366495056E+02  0.26751908644E+02  0.39597013658E+02  0.10000000000E+01 0. -1.
        -13    1    6    6    0    0  0.96554120944E+01 -0.27501099458E+01  0.51004655416E+01  0.11261254867E+02  0.10500000000E+00 0.  1.
         13    1    6    6    0    0  0.99444504345E+01 -0.27677589818E+01  0.53820343008E+01  0.11641731076E+02  0.10500000000E+00 0. -1.
</event>
<event>
11    0  0.3396091E-009  0.9118800E+02  0.7816531E-02  0.1126479E+00
         25   -1    0    0    0    0  0.00000000000E+00  0.00000000000E+00  0.99999998245E-14  0.12500000000E+03  0.12500000000E+03 0.  0.
    3000001    1    3    3    0    0 -0.11603614051E+02  0.27711304982E+02  0.14723318421E+02  0.33471426443E+02  0.10000000000E+01 0.  1.
    1000022    2    1    0    0    0 -0.12625337000E+02  0.53266543246E+02  0.28452173844E+02  0.62500000008E+02  0.10000002038E+02 0.  0.
    3000022    2    3    3    0    0 -0.10217229488E+01  0.25555238265E+02  0.13728855423E+02  0.29028573564E+02  0.24998281858E+00 0.  0.
    1000022    2    1    0    0    0  0.12625337000E+02 -0.53266543246E+02 -0.28452173844E+02  0.62499999992E+02  0.10000001944E+02 0.  0.
    3000022    2    5    5    0    0  0.10533682143E+02 -0.36247136897E+02 -0.14747582691E+02  0.40526128436E+02  0.24999613556E+00 0.  0.
        -13    1    4    4    0    0 -0.66686785645E+00  0.15081723972E+02  0.81077221291E+01  0.17136198348E+02  0.10500000000E+00 0. -1.
         13    1    4    4    0    0 -0.35485509231E+00  0.10473514293E+02  0.56211332938E+01  0.11892375217E+02  0.10500000000E+00 0.  1.
    3000001    1    5    5    0    0  0.20916548568E+01 -0.17019406349E+02 -0.13704591153E+02  0.21973871557E+02  0.10000000000E+01 0.  1.
        -13    1    6    6    0    0  0.73050010142E+01 -0.25238413712E+02 -0.10305330796E+02  0.28223242803E+02  0.10500000000E+00 0. -1.
         13    1    6    6    0    0  0.32286811288E+01 -0.11008723185E+02 -0.44422518948E+01  0.12302885633E+02  0.10500000000E+00 0.  1.
</event>
<event>
11    0  0.3396091E-009  0.9118800E+02  0.7816531E-02  0.1126479E+00
         25   -1    0    0    0    0  0.00000000000E+00  0.00000000000E+00  0.99999998245E-14  0.12500000000E+03  0.12500000000E+03 0.  0.
    3000001    1    3    3    0    0 -0.35399039174E+02  0.46356468167E+01  0.27926567253E+02  0.45337339516E+02  0.10000000000E+01 0. -1.
    1000022    2    1    0    0    0 -0.49345315709E+02  0.11497071469E+02  0.35200955988E+02  0.62500002798E+02  0.10000010630E+02 0.  0.
    3000022    2    3    3    0    0 -0.13946276535E+02  0.68614246524E+01  0.72743887350E+01  0.17162663283E+02  0.25000407922E+00 0.  0.
    1000022    2    1    0    0    0  0.49345315709E+02 -0.11497071469E+02 -0.35200955988E+02  0.62499997202E+02  0.99999756493E+01 0.  0.
    3000022    2    5    5    0    0  0.85681295750E+01 -0.34501659884E+01 -0.11104860239E+02  0.14446345653E+02  0.24998408898E+00 0.  0.
        -13    1    4    4    0    0 -0.63750948534E+01  0.30677778823E+01  0.32824666636E+01  0.77999171741E+01  0.10500000000E+00 0. -1.
         13    1    4    4    0    0 -0.75711816816E+01  0.37936467701E+01  0.39919220714E+01  0.93627461087E+01  0.10500000000E+00 0.  1.
    3000001    1    5    5    0    0  0.40777186134E+02 -0.80469054806E+01 -0.24096095749E+02  0.48053651549E+02  0.10000000000E+01 0. -1.
        -13    1    6    6    0    0  0.22324008773E+01 -0.92011931973E+00 -0.28647269588E+01  0.37480553341E+01  0.10500000000E+00 0.  1.
         13    1    6    6    0    0  0.63357286978E+01 -0.25300466687E+01 -0.82401332798E+01  0.10698290319E+02  0.10500000000E+00 0. -1.
</event>
<event>
11    0  0.3396091E-009  0.9118800E+02  0.7816531E-02  0.1126479E+00
         25   -1    0    0    0    0  0.00000000000E+00  0.00000000000E+00  0.99999998245E-14  0.12500000000E+03  0.12500000000E+03 0.  0.
    3000001    1    3    3    0    0  0.92605959947E+01  0.62910204385E+01 -0.45435301670E+01  0.12123499607E+02  0.10000000000E+01 0.  1.
    1000022    2    1    0    0    0  0.57363968860E+02  0.19003020745E+02 -0.12430216887E+02  0.62499999606E+02  0.99999968999E+01 0.  0.
    3000022    2    3    3    0    0  0.48103372866E+02  0.12712000306E+02 -0.78866867197E+01  0.50376499999E+02  0.24998375156E+00 0.  0.
    1000022    2    1    0    0    0 -0.57363968860E+02 -0.19003020745E+02  0.12430216887E+02  0.62500000394E+02  0.10000001829E+02 0.  0.
    3000022    2    5    5    0    0 -0.20550053346E+02 -0.10775543137E+02  0.16931643438E+01  0.23266850373E+02  0.24999672008E+00 0.  0.
        -13    1    4    4    0    0  0.15600019663E+02  0.41519040789E+01 -0.26026240461E+01  0.16351868330E+02  0.10500000000E+00 0.  1.
         13    1    4    4    0    0  0.32503353203E+02  0.85600962276E+01 -0.52840626736E+01  0.34024631669E+02  0.10500000000E+00 0. -1.
    3000001    1    5    5    0    0 -0.36813915514E+02 -0.82274776082E+01  0.10737052543E+02  0.39233150021E+02  0.10000000000E+01 0. -1.
        -13    1    6    6    0    0 -0.95877722870E+01 -0.49623800915E+01  0.82260536939E+00  0.10827663561E+02  0.10500000000E+00 0. -1.
         13    1    6    6    0    0 -0.10962281059E+02 -0.58131630454E+01  0.87055897436E+00  0.12439186812E+02  0.10500000000E+00 0.  1.
</event>
<event>
11    0  0.3396091E-009  0.9118800E+02  0.7816531E-02  0.1126479E+00
         25   -1    0    0    0    0  0.00000000000E+00  0.00000000000E+00  0.99999998245E-14  0.12500000000E+03  0.12500000000E+03 0.  0.
    3000001    1    3    3    0    0 -0.34172135396E+02 -0.28232562121E+02  0.15878148058E+02  0.47094882813E+02  0.10000000000E+01 0.  1.
    1000022    2    1    0    0    0 -0.48349550027E+02 -0.32832430494E+02  0.19763665963E+02  0.62499999358E+02  0.99999973749E+01 0.  0.
    3000022    2    3    3    0    0 -0.14177414631E+02 -0.45998683735E+01  0.38855179049E+01  0.15405116545E+02  0.24998341081E+00 0.  0.
    1000022    2    1    0    0    0  0.48349550027E+02  0.32832430494E+02 -0.19763665963E+02  0.62500000642E+02  0.10000005397E+02 0.  0.
    3000022    2    5    5    0    0  0.20433136287E+02  0.15060569771E+02 -0.35409074881E+01  0.25630730481E+02  0.24999757081E+00 0.  0.
        -13    1    4    4    0    0 -0.95647036993E+01 -0.31514993255E+01  0.26496194856E+01  0.10413789573E+02  0.10500000000E+00 0. -1.
         13    1    4    4    0    0 -0.46127109316E+01 -0.14483690480E+01  0.12358984193E+01  0.49913269719E+01  0.10500000000E+00 0.  1.
    3000001    1    5    5    0    0  0.27916413740E+02  0.17771860723E+02 -0.16222758475E+02  0.36869270161E+02  0.10000000000E+01 0.  1.
        -13    1    6    6    0    0  0.12061253523E+02  0.88197688470E+01 -0.20536921887E+01  0.15082799331E+02  0.10500000000E+00 0. -1.
         13    1    6    6    0    0  0.83718827638E+01  0.62408009244E+01 -0.14872152994E+01  0.10547931150E+02  0.10500000000E+00 0.  1.
</event>
<event>
11    0  0.3396091E-009  0.9118800E+02  0.7816531E-02  0.1126479E+00
         25   -1    0    0    0    0  0.00000000000E+00  0.00000000000E+00  0.99999998245E-14  0.12500000000E+03  0.12500000000E+03 0.  0.
    3000001    1    3    3    0    0  0.44978733996E+02  0.35748259251E+01 -0.22405309503E+01  0.45187231285E+02  0.10000000000E+01 0. -1.
    1000022    2    1    0    0    0  0.60889700777E+02  0.41236563603E+01 -0.90382689755E+01  0.62499995971E+02  0.99999493873E+01 0.  0.
    3000022    2    3    3    0    0  0.15910966781E+02  0.54883043525E+00 -0.67977380252E+01  0.17312764686E+02  0.25000007720E+00 0.  0.
    1000022    2    1    0    0    0 -0.60889700777E+02 -0.41236563603E+01  0.90382689755E+01  0.62500004029E+02  0.99999997537E+01 0.  0.
    3000022    2    5    5    0    0 -0.22863178439E+02 -0.63576880360E+01  0.38858733081E+01  0.24048027750E+02  0.25000360834E+00 0.  0.
        -13    1    4    4    0    0  0.94686571330E+01  0.31802029586E+00 -0.39766300034E+01  0.10275272064E+02  0.10500000000E+00 0. -1.
         13    1    4    4    0    0  0.64423096481E+01  0.23081013940E+00 -0.28211080219E+01  0.70374926212E+01  0.10500000000E+00 0.  1.
    3000001    1    5    5    0    0 -0.38026522338E+02  0.22340316756E+01  0.51523956674E+01  0.38451976280E+02  0.10000000000E+01 0. -1.
        -13    1    6    6    0    0 -0.12105042141E+02 -0.32996774208E+01  0.20760109880E+01  0.12717734191E+02  0.10500000000E+00 0.  1.
         13    1    6    6    0    0 -0.10758136297E+02 -0.30580106152E+01  0.18098623201E+01  0.11330293559E+02  0.10500000000E+00 0. -1.
</event>
<event>
11    0  0.3396091E-009  0.9118800E+02  0.7816531E-02  0.1126479E+00
         25   -1    0    0    0    0  0.00000000000E+00  0.00000000000E+00  0.99999998245E-14  0.12500000000E+03  0.12500000000E+03 0.  0.
    3000001    1    3    3    0    0 -0.29948922156E+01  0.26929788666E+02  0.11911784972E+02  0.29615427030E+02  0.10000000000E+01 0. -1.
    1000022    2    1    0    0    0 -0.12199227282E+02  0.51423756752E+02  0.31828068704E+02  0.62499999646E+02  0.10000004674E+02 0.  0.
    3000022    2    3    3    0    0 -0.92043350661E+01  0.24493968086E+02  0.19916283733E+02  0.32884572615E+02  0.25000351206E+00 0.  0.
    1000022    2    1    0    0    0  0.12199227282E+02 -0.51423756752E+02 -0.31828068704E+02  0.62500000354E+02  0.10000009105E+02 0.  0.
    3000022    2    5    5    0    0  0.73938371503E+01 -0.40451896311E+02 -0.28482414314E+02  0.50023346190E+02  0.24999176482E+00 0.  0.
        -13    1    4    4    0    0 -0.21123609722E+01  0.56297119742E+01  0.45839664832E+01  0.75617127365E+01  0.10500000000E+00 0. -1.
         13    1    4    4    0    0 -0.70919740939E+01  0.18864256112E+02  0.15332317250E+02  0.25322859879E+02  0.10500000000E+00 0.  1.
    3000001    1    5    5    0    0  0.48053901314E+01 -0.10971860441E+02 -0.33456543902E+01  0.12476654165E+02  0.10000000000E+01 0.  1.
        -13    1    6    6    0    0  0.38843199994E+01 -0.20993495428E+02 -0.14847434265E+02  0.26005232577E+02  0.10500000000E+00 0. -1.
         13    1    6    6    0    0  0.35095171509E+01 -0.19458400883E+02 -0.13634980049E+02  0.24018113612E+02  0.10500000000E+00 0.  1.
</event>
<event>
11    0  0.3396091E-009  0.9118800E+02  0.7816531E-02  0.1126479E+00
         25   -1    0    0    0    0  0.00000000000E+00  0.00000000000E+00  0.99999998245E-14  0.12500000000E+03  0.12500000000E+03 0.  0.
    3000001    1    3    3    0    0 -0.95799594456E+01 -0.45327612287E+01 -0.79031266195E+01  0.13258241124E+02  0.10000000000E+01 0. -1.
    1000022    2    1    0    0    0 -0.31320500968E+02 -0.18788287565E+02 -0.49721989855E+02  0.62500001772E+02  0.10000020794E+02 0.  0.
    3000022    2    3    3    0    0 -0.21740541522E+02 -0.14255526336E+02 -0.41818863235E+02  0.49241760648E+02  0.24998524386E+00 0.  0.
    1000022    2    1    0    0    0  0.31320500968E+02  0.18788287565E+02  0.49721989855E+02  0.62499998228E+02  0.99999986452E+01 0.  0.
    3000022    2    5    5    0    0  0.22480063147E+02  0.14828228169E+02  0.28842464078E+02  0.39461117875E+02  0.25000017467E+00 0.  0.
        -13    1    4    4    0    0 -0.84812730334E+01 -0.55286585481E+01 -0.16180464229E+02  0.19087076918E+02  0.10500000000E+00 0. -1.
         13    1    4    4    0    0 -0.13259268489E+02 -0.87268677882E+01 -0.25638399006E+02  0.30154683730E+02  0.10500000000E+00 0.  1.
    3000001    1    5    5    0    0  0.88404378206E+01  0.39600593956E+01  0.20879525777E+02  0.23038880354E+02  0.10000000000E+01 0. -1.
        -13    1    6    6    0    0  0.15929473073E+02  0.10476771599E+02  0.20471056901E+02  0.27974739519E+02  0.10500000000E+00 0. -1.
         13    1    6    6    0    0  0.65505900743E+01  0.43514565703E+01  0.83714071768E+01  0.11486378355E+02  0.10500000000E+00 0.  1.
</event>
<event>
11    0  0.3396091E-009  0.9118800E+02  0.7816531E-02  0.1126479E+00
         25   -1    0    0    0    0  0.00000000000E+00  0.00000000000E+00  0.99999998245E-14  0.12500000000E+03  0.12500000000E+03 0.  0.
    3000001    1    3    3    0    0 -0.51535461796E+01  0.13433946650E+02  0.39051007101E+02  0.41629450110E+02  0.10000000000E+01 0.  1.
    1000022    2    1    0    0    0 -0.10521316249E+02  0.25589562920E+02  0.55142776760E+02  0.62499991863E+02  0.99999664032E+01 0.  0.
    3000022    2    3    3    0    0 -0.53677700690E+01  0.12155616270E+02  0.16091769659E+02  0.20870541753E+02  0.24999983781E+00 0.  0.
    1000022    2    1    0    0    0  0.10521316249E+02 -0.25589562920E+02 -0.55142776760E+02  0.62500008137E+02  0.10000068114E+02 0.  0.
    3000022    2    5    5    0    0  0.33480496984E+01 -0.17108721020E+02 -0.26082709817E+02  0.31373364838E+02  0.24999627621E+00 0.  0.
        -13    1    4    4    0    0 -0.34411672661E+01  0.77964100254E+01  0.10410277658E+02  0.13454016031E+02  0.10500000000E+00 0. -1.
         13    1    4    4    0    0 -0.19266028029E+01  0.43592062443E+01  0.56814920004E+01  0.74165257224E+01  0.10500000000E+00 0.  1.
    3000001    1    5    5    0    0  0.71732665502E+01 -0.84808419000E+01 -0.29060066943E+02  0.31126643299E+02  0.10000000000E+01 0. -1.
        -13    1    6    6    0    0  0.20456887047E+01 -0.10190980352E+02 -0.15481509302E+02  0.18647495223E+02  0.10500000000E+00 0. -1.
         13    1    6    6    0    0  0.13023609937E+01 -0.69177406673E+01 -0.10601200514E+02  0.12725869614E+02  0.10500000000E+00 0.  1.
</event>
<event>
11    0  0.3396091E-009  0.9118800E+02  0.7816531E-02  0.1126479E+00
         25   -1    0    0    0    0  0.00000000000E+00  0.00000000000E+00  0.99999998245E-14  0.12500000000E+03  0.12500000000E+03 0.  0.
    3000001    1    3    3    0    0  0.61015704775E+01  0.19538337211E+02  0.92331460091E+01  0.22477250020E+02  0.10000000000E+01 0. -1.
    1000022    2    1    0    0    0  0.68957921035E+01  0.51300393714E+02  0.33570339537E+02  0.62499999932E+02  0.99999975427E+01 0.  0.
    3000022    2    3    3    0    0  0.79422162596E+00  0.31762056503E+02  0.24337193528E+02  0.40022749911E+02  0.25000063777E+00 0.  0.
    1000022    2    1    0    0    0 -0.68957921035E+01 -0.51300393714E+02 -0.33570339537E+02  0.62500000068E+02  0.99999983950E+01 0.  0.
    3000022    2    5    5    0    0  0.77509134433E+00 -0.27147071555E+02 -0.14652880519E+02  0.30859903989E+02  0.25001218800E+00 0.  0.
        -13    1    4    4    0    0  0.38595244910E+00  0.12942452076E+02  0.99353823065E+01  0.16321117351E+02  0.10500000000E+00 0.  1.
         13    1    4    4    0    0  0.40826917686E+00  0.18819604428E+02  0.14401811222E+02  0.23701632560E+02  0.10500000000E+00 0. -1.
    3000001    1    5    5    0    0 -0.76708834478E+01 -0.24153322159E+02 -0.18917459018E+02  0.31640096079E+02  0.10000000000E+01 0. -1.
        -13    1    6    6    0    0  0.20546222171E+00 -0.67848880222E+01 -0.36894810525E+01  0.77265914629E+01  0.10500000000E+00 0. -1.
         13    1    6    6    0    0  0.56962912262E+00 -0.20362183533E+02 -0.10963399467E+02  0.23133312526E+02  0.10500000000E+00 0.  1.
</event>
<event>
11    0  0.3396091E-009  0.9118800E+02  0.7816531E-02  0.1126479E+00
         25   -1    0    0    0    0  0.00000000000E+00  0.00000000000E+00  0.99999998245E-14  0.12500000000E+03  0.12500000000E+03 0.  0.
    3000001    1    3    3    0    0  0.10513357379E+02  0.34249375341E+01 -0.14324666041E+02  0.18123380967E+02  0.10000000000E+01 0. -1.
    1000022    2    1    0    0    0  0.34756815094E+02 -0.34146492659E+01 -0.50858171475E+02  0.62500004421E+02  0.10000046087E+02 0.  0.
    3000022    2    3    3    0    0  0.24243457716E+02 -0.68395867999E+01 -0.36533505434E+02  0.44376623454E+02  0.25000059928E+00 0.  0.
    1000022    2    1    0    0    0 -0.34756815094E+02  0.34146492659E+01  0.50858171475E+02  0.62499995579E+02  0.99999908237E+01 0.  0.
    3000022    2    5    5    0    0 -0.22278654946E+02  0.14182611224E+01  0.40002470339E+02  0.45810588956E+02  0.24999272675E+00 0.  0.
        -13    1    4    4    0    0  0.15993822335E+02 -0.44818529334E+01 -0.24007387167E+02  0.29193407170E+02  0.10500000000E+00 0. -1.
         13    1    4    4    0    0  0.82496353809E+01 -0.23577338665E+01 -0.12526118267E+02  0.15183216284E+02  0.10500000000E+00 0.  1.
    3000001    1    5    5    0    0 -0.12478160148E+02  0.19963881435E+01  0.10855701136E+02  0.16689406623E+02  0.10000000000E+01 0.  1.
        -13    1    6    6    0    0 -0.11127807680E+02  0.70939660458E+00  0.19841524680E+02  0.22760238881E+02  0.10500000000E+00 0. -1.
         13    1    6    6    0    0 -0.11150847267E+02  0.70886451778E+00  0.20160945660E+02  0.23050350075E+02  0.10500000000E+00 0.  1.
</event>
<event>
11    0  0.3396091E-009  0.9118800E+02  0.7816531E-02  0.1126479E+00
         25   -1    0    0    0    0  0.00000000000E+00  0.00000000000E+00  0.99999998245E-14  0.12500000000E+03  0.12500000000E+03 0.  0.
    3000001    1    3    3    0    0 -0.23875808799E+02 -0.29170470758E+02 -0.47840751586E+02  0.60915581934E+02  0.10000000000E+01 0. -1.
    1000022    2    1    0    0    0 -0.22930904178E+02 -0.29909944557E+02 -0.48844846730E+02  0.62499998724E+02  0.99999819280E+01 0.  0.
    3000022    2    3    3    0    0  0.94490462112E+00 -0.73947379957E+00 -0.10040951443E+01  0.15844167901E+01  0.25000652533E+00 0.  0.
    1000022    2    1    0    0    0  0.22930904178E+02  0.29909944557E+02  0.48844846730E+02  0.62500001276E+02  0.99999978771E+01 0.  0.
    3000022    2    5    5    0    0  0.92829888851E+01  0.15025672139E+02  0.15480213694E+02  0.23487107319E+02  0.24997665086E+00 0.  0.
        -13    1    4    4    0    0  0.35855747719E+00 -0.26785786342E+00 -0.30291882635E+00  0.55054165583E+00  0.10500000000E+00 0.  1.
         13    1    4    4    0    0  0.58634714393E+00 -0.47161593615E+00 -0.70117631798E+00  0.10338751343E+01  0.10500000000E+00 0. -1.
    3000001    1    5    5    0    0  0.13647915293E+02  0.14884272419E+02  0.33364633036E+02  0.39012893957E+02  0.10000000000E+01 0. -1.
        -13    1    6    6    0    0  0.50923706851E+01  0.81943294510E+01  0.83736505248E+01  0.12775301267E+02  0.10500000000E+00 0. -1.
         13    1    6    6    0    0  0.41906182000E+01  0.68313426877E+01  0.71065631691E+01  0.10711806052E+02  0.10500000000E+00 0.  1.
</event>
<event>
11    0  0.3396091E-009  0.9118800E+02  0.7816531E-02  0.1126479E+00
         25   -1    0    0    0    0  0.00000000000E+00  0.00000000000E+00  0.99999998245E-14  0.12500000000E+03  0.12500000000E+03 0.  0.
    3000001    1    3    3    0    0  0.40656140260E+02 -0.47814818953E+01 -0.41339951091E+02  0.58187420171E+02  0.10000000000E+01 0.  1.
    1000022    2    1    0    0    0  0.42535722655E+02 -0.75545907822E+01 -0.44044187169E+02  0.62500001014E+02  0.10000007981E+02 0.  0.
    3000022    2    3    3    0    0  0.18795823955E+01 -0.27731088869E+01 -0.27042360781E+01  0.43125808426E+01  0.24999575659E+00 0.  0.
    1000022    2    1    0    0    0 -0.42535722655E+02  0.75545907822E+01  0.44044187169E+02  0.62499998986E+02  0.99999953092E+01 0.  0.
    3000022    2    5    5    0    0 -0.17954496941E+02  0.15801235436E+01  0.11969128977E+02  0.21637543426E+02  0.24997242941E+00 0.  0.
        -13    1    4    4    0    0  0.13985082037E+01 -0.20616235322E+01 -0.20460147150E+01  0.32254174921E+01  0.10500000000E+00 0.  1.
         13    1    4    4    0    0  0.48107419179E+00 -0.71148535462E+00 -0.65822136310E+00  0.10871633505E+01  0.10500000000E+00 0. -1.
    3000001    1    5    5    0    0 -0.24581225714E+02  0.59744672386E+01  0.32075058192E+02  0.40862455560E+02  0.10000000000E+01 0. -1.
        -13    1    6    6    0    0 -0.10642175098E+02  0.92670979670E+00  0.71692449120E+01  0.12865604512E+02  0.10500000000E+00 0. -1.
         13    1    6    6    0    0 -0.73123218433E+01  0.65341374686E+00  0.47998840653E+01  0.87719389136E+01  0.10500000000E+00 0.  1.
</event>
<event>
11    0  0.3396091E-009  0.9118800E+02  0.7816531E-02  0.1126479E+00
         25   -1    0    0    0    0  0.00000000000E+00  0.00000000000E+00  0.99999998245E-14  0.12500000000E+03  0.12500000000E+03 0.  0.
    3000001    1    3    3    0    0 -0.18434186892E+01  0.54225425488E+02  0.14372354400E+02  0.56136971176E+02  0.10000000000E+01 0.  1.
    1000022    2    1    0    0    0  0.11823335412E+01  0.59695382579E+02  0.15534275671E+02  0.62500002536E+02  0.99999991250E+01 0.  0.
    3000022    2    3    3    0    0  0.30257522304E+01  0.54699570907E+01  0.11619212712E+01  0.63630313596E+01  0.24999981693E+00 0.  0.
    1000022    2    1    0    0    0 -0.11823335412E+01 -0.59695382579E+02 -0.15534275671E+02  0.62499997464E+02  0.99999674286E+01 0.  0.
    3000022    2    5    5    0    0 -0.43277697454E+01 -0.38725846730E+02 -0.13207662397E+02  0.41145177588E+02  0.24999361798E+00 0.  0.
        -13    1    4    4    0    0  0.20975095775E+01  0.38669888546E+01  0.79062320791E+00  0.44709349454E+01  0.10500000000E+00 0.  1.
         13    1    4    4    0    0  0.92824265292E+00  0.16029682361E+01  0.37129806328E+00  0.18920964141E+01  0.10500000000E+00 0. -1.
    3000001    1    5    5    0    0  0.31454362042E+01 -0.20969535849E+02 -0.23266132739E+01  0.21354819876E+02  0.10000000000E+01 0.  1.
        -13    1    6    6    0    0 -0.23549133552E+01 -0.21417376066E+02 -0.72456342346E+01  0.22732352604E+02  0.10500000000E+00 0. -1.
         13    1    6    6    0    0 -0.19728563902E+01 -0.17308470664E+02 -0.59620281628E+01  0.18412824984E+02  0.10500000000E+00 0.  1.
</event>
<event>
11    0  0.3396091E-009  0.9118800E+02  0.7816531E-02  0.1126479E+00
         25   -1    0    0    0    0  0.00000000000E+00  0.00000000000E+00  0.99999998245E-14  0.12500000000E+03  0.12500000000E+03 0.  0.
    3000001    1    3    3    0    0 -0.13324058883E+02 -0.36305763657E+01  0.10554626082E+02  0.17410105157E+02  0.10000000000E+01 0. -1.
    1000022    2    1    0    0    0 -0.39059595105E+02 -0.41602648517E+01  0.47574052413E+02  0.62500002286E+02  0.10000002463E+02 0.  0.
    3000022    2    3    3    0    0 -0.25735536222E+02 -0.52968848601E+00  0.37019426331E+02  0.45089897128E+02  0.25000519809E+00 0.  0.
    1000022    2    1    0    0    0  0.39059595105E+02  0.41602648517E+01 -0.47574052413E+02  0.62499997714E+02  0.99999738935E+01 0.  0.
    3000022    2    5    5    0    0  0.37255110032E+01 -0.19959395953E+01 -0.26062404554E+01  0.49717397468E+01  0.24999939071E+00 0.  0.
        -13    1    4    4    0    0 -0.17201867191E+02 -0.34156897364E+00  0.24833718766E+02  0.30211678487E+02  0.10500000000E+00 0.  1.
         13    1    4    4    0    0 -0.85336690320E+01 -0.18811951237E+00  0.12185707565E+02  0.14878218642E+02  0.10500000000E+00 0. -1.
    3000001    1    5    5    0    0  0.35334084102E+02  0.61562044470E+01 -0.44967811958E+02  0.57528257968E+02  0.10000000000E+01 0.  1.
        -13    1    6    6    0    0  0.18343319843E+01 -0.91056505829E+00 -0.12351514074E+01  0.23938518235E+01  0.10500000000E+00 0. -1.
         13    1    6    6    0    0  0.18911790189E+01 -0.10853745370E+01 -0.13710890481E+01  0.25778879232E+01  0.10500000000E+00 0.  1.
</event>
<event>
11    0  0.3396091E-009  0.9118800E+02  0.7816531E-02  0.1126479E+00
         25   -1    0    0    0    0  0.00000000000E+00  0.00000000000E+00  0.99999998245E-14  0.12500000000E+03  0.12500000000E+03 0.  0.
    3000001    1    3    3    0    0  0.95529382881E+01 -0.58487457528E+01 -0.12800064263E+02  0.17038430149E+02  0.10000000000E+01 0. -1.
    1000022    2    1    0    0    0  0.37305411175E+02 -0.33168568003E+02 -0.36254686969E+02  0.62499999229E+02  0.99999985064E+01 0.  0.
    3000022    2    3    3    0    0  0.27752472887E+02 -0.27319822250E+02 -0.23454622706E+02  0.45461569080E+02  0.24999561413E+00 0.  0.
    1000022    2    1    0    0    0 -0.37305411175E+02  0.33168568003E+02  0.36254686969E+02  0.62500000771E+02  0.10000008143E+02 0.  0.
    3000022    2    5    5    0    0  0.13353518663E+00  0.17087303616E+01  0.21730026816E+00  0.17456648821E+01  0.25007074873E+00 0.  0.
        -13    1    4    4    0    0  0.14218692529E+02 -0.14087086511E+02 -0.12029508208E+02  0.23352458464E+02  0.10500000000E+00 0. -1.
         13    1    4    4    0    0  0.13533780358E+02 -0.13232735739E+02 -0.11425114498E+02  0.22109110616E+02  0.10500000000E+00 0.  1.
    3000001    1    5    5    0    0 -0.37438946361E+02  0.31459837641E+02  0.36037386701E+02  0.60754335889E+02  0.10000000000E+01 0.  1.
        -13    1    6    6    0    0  0.70469476089E-02  0.62249373265E+00  0.37460614276E-01  0.63243687771E+00  0.10500000000E+00 0. -1.
         13    1    6    6    0    0  0.12648823902E+00  0.10862366290E+01  0.17983965389E+00  0.11132280044E+01  0.10500000000E+00 0.  1.
</event>
<event>
11    0  0.3396091E-009  0.9118800E+02  0.7816531E-02  0.1126479E+00
         25   -1    0    0    0    0  0.00000000000E+00  0.00000000000E+00  0.99999998245E-14  0.12500000000E+03  0.12500000000E+03 0.  0.
    3000001    1    3    3    0    0  0.41246571751E+01 -0.33095043794E+01 -0.23850835161E+01  0.58867851522E+01  0.10000000000E+01 0. -1.
    1000022    2    1    0    0    0  0.30006293892E+02 -0.23595807060E+02 -0.48467621417E+02  0.62499999100E+02  0.99999888899E+01 0.  0.
    3000022    2    3    3    0    0  0.25881636717E+02 -0.20286302681E+02 -0.46082537901E+02  0.56613213948E+02  0.24999715908E+00 0.  0.
    1000022    2    1    0    0    0 -0.30006293892E+02  0.23595807060E+02  0.48467621417E+02  0.62500000900E+02  0.10000000138E+02 0.  0.
    3000022    2    5    5    0    0 -0.11150590872E+01  0.48745131791E+01  0.66939061265E+01  0.83591329510E+01  0.24997792040E+00 0.  0.
        -13    1    4    4    0    0  0.91071652347E+01 -0.72067024387E+01 -0.16307293898E+02  0.20020386558E+02  0.10500000000E+00 0.  1.
         13    1    4    4    0    0  0.16774471482E+02 -0.13079600242E+02 -0.29775244002E+02  0.36592827390E+02  0.10500000000E+00 0. -1.
    3000001    1    5    5    0    0 -0.28891234805E+02  0.18721293881E+02  0.41773715290E+02  0.54140867949E+02  0.10000000000E+01 0.  1.
        -13    1    6    6    0    0 -0.25495589627E+00  0.12074495781E+01  0.16342018138E+01  0.20505066596E+01  0.10500000000E+00 0.  1.
         13    1    6    6    0    0 -0.86010319094E+00  0.36670636010E+01  0.50597043128E+01  0.63086262914E+01  0.10500000000E+00 0. -1.
</event>
<event>
11    0  0.3396091E-009  0.9118800E+02  0.7816531E-02  0.1126479E+00
         25   -1    0    0    0    0  0.00000000000E+00  0.00000000000E+00  0.99999998245E-14  0.12500000000E+03  0.12500000000E+03 0.  0.
    3000001    1    3    3    0    0  0.41346604490E+02  0.27684397556E+02 -0.20110933683E+02  0.53678834045E+02  0.10000000000E+01 0.  1.
    1000022    2    1    0    0    0  0.46945514742E+02  0.34493382390E+02 -0.20311950734E+02  0.62500000257E+02  0.99999953195E+01 0.  0.
    3000022    2    3    3    0    0  0.55989102525E+01  0.68089848346E+01 -0.20101705091E+00  0.88211662120E+01  0.24998998018E+00 0.  0.
    1000022    2    1    0    0    0 -0.46945514742E+02 -0.34493382390E+02  0.20311950734E+02  0.62499999743E+02  0.99999921062E+01 0.  0.
    3000022    2    5    5    0    0 -0.13298534090E+02 -0.15110341655E+02  0.89374778767E+01  0.22025313729E+02  0.25000037419E+00 0.  0.
        -13    1    4    4    0    0  0.16869707248E+01  0.19835458810E+01 -0.70205155969E-01  0.26069672519E+01  0.10500000000E+00 0. -1.
         13    1    4    4    0    0  0.39119395277E+01  0.48254389537E+01 -0.13081189494E+00  0.62141989601E+01  0.10500000000E+00 0.  1.
    3000001    1    5    5    0    0 -0.33646980653E+02 -0.19383040736E+02  0.11374472857E+02  0.40474686014E+02  0.10000000000E+01 0.  1.
        -13    1    6    6    0    0 -0.45728805111E+01 -0.52613352050E+01  0.31340515776E+01  0.76437025452E+01  0.10500000000E+00 0. -1.
         13    1    6    6    0    0 -0.87256535786E+01 -0.98490064498E+01  0.58034262991E+01  0.14381611183E+02  0.10500000000E+00 0.  1.
</event>
<event>
11    0  0.3396091E-009  0.9118800E+02  0.7816531E-02  0.1126479E+00
         25   -1    0    0    0    0  0.00000000000E+00  0.00000000000E+00  0.99999998245E-14  0.12500000000E+03  0.12500000000E+03 0.  0.
    3000001    1    3    3    0    0 -0.54798066612E+02  0.17573210570E+02 -0.98111938418E+01  0.58385831832E+02  0.10000000000E+01 0.  1.
    1000022    2    1    0    0    0 -0.58722686902E+02  0.16503101441E+02 -0.92489739336E+01  0.62499998312E+02  0.99999978028E+01 0.  0.
    3000022    2    3    3    0    0 -0.39246202905E+01 -0.10701091288E+01  0.56221990814E+00  0.41141664805E+01  0.24999326432E+00 0.  0.
    1000022    2    1    0    0    0  0.58722686902E+02 -0.16503101441E+02  0.92489739336E+01  0.62500001688E+02  0.10000018897E+02 0.  0.
    3000022    2    5    5    0    0  0.65234988053E+01  0.12681099183E+01  0.62923399762E+00  0.66800132630E+01  0.25000468369E+00 0.  0.
        -13    1    4    4    0    0 -0.14896230683E+01 -0.39538237985E+00  0.15288340466E+00  0.15523216314E+01  0.10500000000E+00 0.  1.
         13    1    4    4    0    0 -0.24349972222E+01 -0.67472674899E+00  0.40933650347E+00  0.25618448491E+01  0.10500000000E+00 0. -1.
    3000001    1    5    5    0    0  0.52199188097E+02 -0.17771211360E+02  0.86197399360E+01  0.55819988425E+02  0.10000000000E+01 0.  1.
        -13    1    6    6    0    0  0.43419977375E+01  0.81917220292E+00  0.46647098350E+00  0.44443905802E+01  0.10500000000E+00 0. -1.
         13    1    6    6    0    0  0.21815010678E+01  0.44893771542E+00  0.16276301412E+00  0.22356226828E+01  0.10500000000E+00 0.  1.
</event>
<event>
11    0  0.3396091E-009  0.9118800E+02  0.7816531E-02  0.1126479E+00
         25   -1    0    0    0    0  0.00000000000E+00  0.00000000000E+00  0.99999998245E-14  0.12500000000E+03  0.12500000000E+03 0.  0.
    3000001    1    3    3    0    0  0.28350115575E+02 -0.34064288161E+02  0.27450042829E+02  0.52140287996E+02  0.10000000000E+01 0.  1.
    1000022    2    1    0    0    0  0.30360997093E+02 -0.43178678564E+02  0.31938400670E+02  0.62499999300E+02  0.10000002409E+02 0.  0.
    3000022    2    3    3    0    0  0.20108815180E+01 -0.91143904037E+01  0.44883578402E+01  0.10359711304E+02  0.25001058173E+00 0.  0.
    1000022    2    1    0    0    0 -0.30360997093E+02  0.43178678564E+02 -0.31938400670E+02  0.62500000700E+02  0.10000011157E+02 0.  0.
    3000022    2    5    5    0    0 -0.10497373615E+02  0.21451942893E+02 -0.18034576429E+02  0.29928066322E+02  0.25000025293E+00 0.  0.
        -13    1    4    4    0    0  0.12927393570E+01 -0.55766540277E+01  0.27418278386E+01  0.63481406795E+01  0.10500000000E+00 0. -1.
         13    1    4    4    0    0  0.71814216102E+00 -0.35377363760E+01  0.17465300017E+01  0.40115706246E+01  0.10500000000E+00 0.  1.
    3000001    1    5    5    0    0 -0.19863623477E+02  0.21726735672E+02 -0.13903824241E+02  0.32571934378E+02  0.10000000000E+01 0. -1.
        -13    1    6    6    0    0 -0.31648153794E+01  0.63730118984E+01 -0.53509322067E+01  0.89036418125E+01  0.10500000000E+00 0.  1.
         13    1    6    6    0    0 -0.73325582360E+01  0.15078930994E+02 -0.12683644222E+02  0.21024424510E+02  0.10500000000E+00 0. -1.
</event>
<event>
11    0  0.3396091E-009  0.9118800E+02  0.7816531E-02  0.1126479E+00
         25   -1    0    0    0    0  0.00000000000E+00  0.00000000000E+00  0.99999998245E-14  0.12500000000E+03  0.12500000000E+03 0.  0.
    3000001    1    3    3    0    0  0.31179923004E+01 -0.22773857311E+01 -0.25448955415E+01  0.47312635808E+01  0.10000000000E+01 0.  1.
    1000022    2    1    0    0    0  0.14711117820E+02 -0.28879541139E+02 -0.52495762286E+02  0.62499999226E+02  0.99999980640E+01 0.  0.
    3000022    2    3    3    0    0  0.11593125519E+02 -0.26602155408E+02 -0.49950866745E+02  0.57768735645E+02  0.24999559193E+00 0.  0.
    1000022    2    1    0    0    0 -0.14711117820E+02  0.28879541139E+02  0.52495762286E+02  0.62500000774E+02  0.10000007742E+02 0.  0.
    3000022    2    5    5    0    0 -0.72581686205E+01  0.23537238786E+02  0.39829151248E+02  0.46830614015E+02  0.24999706356E+00 0.  0.
        -13    1    4    4    0    0  0.72859723346E+01 -0.16719455248E+02 -0.31274532192E+02  0.36204046258E+02  0.10500000000E+00 0.  1.
         13    1    4    4    0    0  0.43071531848E+01 -0.98827001597E+01 -0.18676334553E+02  0.21564689387E+02  0.10500000000E+00 0. -1.
    3000001    1    5    5    0    0 -0.74529491993E+01  0.53423023530E+01  0.12666611039E+02  0.15669386759E+02  0.10000000000E+01 0.  1.
        -13    1    6    6    0    0 -0.48425603031E+01  0.15837938429E+02  0.26714877456E+02  0.31432250738E+02  0.10500000000E+00 0. -1.
         13    1    6    6    0    0 -0.24156083174E+01  0.76993003567E+01  0.13114273791E+02  0.15398363277E+02  0.10500000000E+00 0.  1.
</event>
<event>
11    0  0.3396091E-009  0.9118800E+02  0.7816531E-02  0.1126479E+00
         25   -1    0    0    0    0  0.00000000000E+00  0.00000000000E+00  0.99999998245E-14  0.12500000000E+03  0.12500000000E+03 0.  0.
    3000001    1    3    3    0    0  0.41956364480E+01  0.31807349491E+00  0.14319580489E+01  0.45557699466E+01  0.10000000000E+01 0. -1.
    1000022    2    1    0    0    0  0.58631789712E+02  0.15303558013E+02 -0.11591556125E+02  0.62500001321E+02  0.10000016955E+02 0.  0.
    3000022    2    3    3    0    0  0.54436153263E+02  0.14985484518E+02 -0.13023514174E+02  0.57944231375E+02  0.24999953351E+00 0.  0.
    1000022    2    1    0    0    0 -0.58631789712E+02 -0.15303558013E+02  0.11591556125E+02  0.62499998679E+02  0.10000000441E+02 0.  0.
    3000022    2    5    5    0    0 -0.18185364578E+02 -0.31323019394E+01 -0.79460022029E+00  0.18471943424E+02  0.25000816503E+00 0.  0.
        -13    1    4    4    0    0  0.22913881489E+02  0.63053175757E+01 -0.54153359795E+01  0.24374984788E+02  0.10500000000E+00 0. -1.
         13    1    4    4    0    0  0.31522271774E+02  0.86801669428E+01 -0.76081781945E+01  0.33569246587E+02  0.10500000000E+00 0.  1.
    3000001    1    5    5    0    0 -0.40446425134E+02 -0.12171256074E+02  0.12386156345E+02  0.44028055255E+02  0.10000000000E+01 0.  1.
        -13    1    6    6    0    0 -0.11174654273E+02 -0.18622880755E+01 -0.48724123475E+00  0.11339728569E+02  0.10500000000E+00 0.  1.
         13    1    6    6    0    0 -0.70107103049E+01 -0.12700138639E+01 -0.30735898554E+00  0.71322148551E+01  0.10500000000E+00 0. -1.
</event>
<event>
11    0  0.3396091E-009  0.9118800E+02  0.7816531E-02  0.1126479E+00
         25   -1    0    0    0    0  0.00000000000E+00  0.00000000000E+00  0.99999998245E-14  0.12500000000E+03  0.12500000000E+03 0.  0.
    3000001    1    3    3    0    0  0.18248623713E+02  0.19809393841E+02 -0.20154124164E+02  0.33654317295E+02  0.10000000000E+01 0.  1.
    1000022    2    1    0    0    0  0.40234130605E+02  0.30464970626E+02 -0.35487325107E+02  0.62499999514E+02  0.99999997609E+01 0.  0.
    3000022    2    3    3    0    0  0.21985506892E+02  0.10655576785E+02 -0.15333200943E+02  0.28845682219E+02  0.25000322362E+00 0.  0.
    1000022    2    1    0    0    0 -0.40234130605E+02 -0.30464970626E+02  0.35487325107E+02  0.62500000486E+02  0.10000005830E+02 0.  0.
    3000022    2    5    5    0    0 -0.62479785202E+01 -0.79120698024E+00  0.38368965458E+01  0.73788574405E+01  0.25003589698E+00 0.  0.
        -13    1    4    4    0    0  0.71645214586E+01  0.34257564908E+01 -0.50201647543E+01  0.93957040409E+01  0.10500000000E+00 0.  1.
         13    1    4    4    0    0  0.14820985433E+02  0.72298202942E+01 -0.10313036189E+02  0.19449978178E+02  0.10500000000E+00 0. -1.
    3000001    1    5    5    0    0 -0.33986152085E+02 -0.29673763646E+02  0.31650428561E+02  0.55121143045E+02  0.10000000000E+01 0. -1.
        -13    1    6    6    0    0 -0.36844741095E+01 -0.50385264582E+00  0.23260799431E+01  0.43875836008E+01  0.10500000000E+00 0.  1.
         13    1    6    6    0    0 -0.25635044107E+01 -0.28735433442E+00  0.15108166027E+01  0.29912738397E+01  0.10500000000E+00 0. -1.
</event>
<event>
11    0  0.3396091E-009  0.9118800E+02  0.7816531E-02  0.1126479E+00
         25   -1    0    0    0    0  0.00000000000E+00  0.00000000000E+00  0.99999998245E-14  0.12500000000E+03  0.12500000000E+03 0.  0.
    3000001    1    3    3    0    0  0.35756139025E+02 -0.23998948089E+02  0.81186760964E+01  0.43833365019E+02  0.10000000000E+01 0. -1.
    1000022    2    1    0    0    0  0.48686386604E+02 -0.37349122558E+02  0.63975548755E+01  0.62499998685E+02  0.99999965396E+01 0.  0.
    3000022    2    3    3    0    0  0.12930247579E+02 -0.13350174469E+02 -0.17211212209E+01  0.18666633665E+02  0.24998666370E+00 0.  0.
    1000022    2    1    0    0    0 -0.48686386604E+02  0.37349122558E+02 -0.63975548755E+01  0.62500001315E+02  0.10000012981E+02 0.  0.
    3000022    2    5    5    0    0 -0.43143705448E+02  0.30444227238E+02 -0.81184720286E+01  0.53424735499E+02  0.24996646729E+00 0.  0.
        -13    1    4    4    0    0  0.96590039185E+01 -0.10010665969E+02 -0.12947051645E+01  0.13971294726E+02  0.10500000000E+00 0.  1.
         13    1    4    4    0    0  0.32712436604E+01 -0.33395084998E+01 -0.42641605641E+00  0.46953389398E+01  0.10500000000E+00 0. -1.
    3000001    1    5    5    0    0 -0.55426811565E+01  0.69048953199E+01  0.17209171531E+01  0.90752658159E+01  0.10000000000E+01 0. -1.
        -13    1    6    6    0    0 -0.11389599020E+02  0.80389781727E+01 -0.21096636007E+01  0.14099994376E+02  0.10500000000E+00 0.  1.
         13    1    6    6    0    0 -0.31754106428E+02  0.22405249065E+02 -0.60088084278E+01  0.39324741124E+02  0.10500000000E+00 0. -1.
</event>
<event>
11    0  0.3396091E-009  0.9118800E+02  0.7816531E-02  0.1126479E+00
         25   -1    0    0    0    0  0.00000000000E+00  0.00000000000E+00  0.99999998245E-14  0.12500000000E+03  0.12500000000E+03 0.  0.
    3000001    1    3    3    0    0  0.43318697378E+02 -0.26333830743E+01 -0.67467414527E+01  0.43931341536E+02  0.10000000000E+01 0. -1.
    1000022    2    1    0    0    0  0.60810278884E+02 -0.87587163927E+01 -0.56253792559E+01  0.62500000154E+02  0.99999998387E+01 0.  0.
    3000022    2    3    3    0    0  0.17491581506E+02 -0.61253333184E+01  0.11213621968E+01  0.18568658618E+02  0.24999574359E+00 0.  0.
    1000022    2    1    0    0    0 -0.60810278884E+02  0.87587163927E+01  0.56253792559E+01  0.62499999846E+02  0.99999979079E+01 0.  0.
    3000022    2    5    5    0    0 -0.44386399437E+02  0.71101208893E+01  0.84032023026E+01  0.45731637252E+02  0.25012537351E+00 0.  0.
        -13    1    4    4    0    0  0.11097216922E+02 -0.38400807605E+01  0.75051552980E+00  0.11767274205E+02  0.10500000000E+00 0.  1.
         13    1    4    4    0    0  0.63943645836E+01 -0.22852525579E+01  0.37084666705E+00  0.68013844129E+01  0.10500000000E+00 0. -1.
    3000001    1    5    5    0    0 -0.16423879446E+02  0.16485955035E+01 -0.27778230468E+01  0.16768362594E+02  0.10000000000E+01 0. -1.
        -13    1    6    6    0    0 -0.32363384034E+02  0.51685134909E+01  0.60928540487E+01  0.33335207413E+02  0.10500000000E+00 0. -1.
         13    1    6    6    0    0 -0.12023015404E+02  0.19416073983E+01  0.23103482539E+01  0.12396429839E+02  0.10500000000E+00 0.  1.
</event>
<event>
11    0  0.3396091E-009  0.9118800E+02  0.7816531E-02  0.1126479E+00
         25   -1    0    0    0    0  0.00000000000E+00  0.00000000000E+00  0.99999998245E-14  0.12500000000E+03  0.12500000000E+03 0.  0.
    3000001    1    3    3    0    0 -0.11644806733E+02 -0.11231540788E+02 -0.42446853895E+02  0.45436598001E+02  0.10000000000E+01 0.  1.
    1000022    2    1    0    0    0 -0.10317379956E+02 -0.17554939578E+02 -0.58237666001E+02  0.62499999862E+02  0.10000000435E+02 0.  0.
    3000022    2    3    3    0    0  0.13274267772E+01 -0.63233987906E+01 -0.15790812106E+02  0.17063401861E+02  0.25000395117E+00 0.  0.
    1000022    2    1    0    0    0  0.10317379956E+02  0.17554939578E+02  0.58237666001E+02  0.62500000138E+02  0.10000002162E+02 0.  0.
    3000022    2    5    5    0    0  0.11269202019E+02  0.17589126184E+02  0.50675682721E+02  0.54812950958E+02  0.24999886694E+00 0.  0.
        -13    1    4    4    0    0  0.64503238753E+00 -0.27542945633E+01 -0.68896265760E+01  0.74485021769E+01  0.10500000000E+00 0. -1.
         13    1    4    4    0    0  0.68239438965E+00 -0.35691042273E+01 -0.89011855302E+01  0.96148996839E+01  0.10500000000E+00 0.  1.
    3000001    1    5    5    0    0 -0.95182206319E+00 -0.34186605883E-01  0.75619832801E+01  0.76870491798E+01  0.10000000000E+01 0.  1.
        -13    1    6    6    0    0  0.35206008385E+01  0.54800311991E+01  0.15675912955E+02  0.16975589656E+02  0.10500000000E+00 0. -1.
         13    1    6    6    0    0  0.77486011803E+01  0.12109094985E+02  0.34999769767E+02  0.37837361302E+02  0.10500000000E+00 0.  1.
</event>
<event>
11    0  0.3396091E-009  0.9118800E+02  0.7816531E-02  0.1126479E+00
         25   -1    0    0    0    0  0.00000000000E+00  0.00000000000E+00  0.99999998245E-14  0.12500000000E+03  0.12500000000E+03 0.  0.
    3000001    1    3    3    0    0  0.39598523778E+01  0.10430162099E+02  0.33019237784E+02  0.34867445793E+02  0.10000000000E+01 0.  1.
    1000022    2    1    0    0    0  0.27315615779E+01  0.25674493863E+02  0.56032215234E+02  0.62499998665E+02  0.99999812706E+01 0.  0.
    3000022    2    3    3    0    0 -0.12282907999E+01  0.15244331764E+02  0.23012977449E+02  0.27632552872E+02  0.24999589828E+00 0.  0.
    1000022    2    1    0    0    0 -0.27315615779E+01 -0.25674493863E+02 -0.56032215234E+02  0.62500001335E+02  0.99999979536E+01 0.  0.
    3000022    2    5    5    0    0 -0.16641137063E+01 -0.17054726521E+02 -0.46539291122E+02  0.49594365272E+02  0.24995494341E+00 0.  0.
        -13    1    4    4    0    0 -0.57818278893E+00  0.64250564583E+01  0.96635487451E+01  0.11619416731E+02  0.10500000000E+00 0.  1.
         13    1    4    4    0    0 -0.65010801094E+00  0.88192753055E+01  0.13349428704E+02  0.16013136141E+02  0.10500000000E+00 0. -1.
    3000001    1    5    5    0    0 -0.10674478716E+01 -0.86197673424E+01 -0.94929241121E+01  0.12905636063E+02  0.10000000000E+01 0.  1.
        -13    1    6    6    0    0 -0.58341685192E+00 -0.65899597964E+01 -0.18015342163E+02  0.19191965079E+02  0.10500000000E+00 0. -1.
         13    1    6    6    0    0 -0.10806968544E+01 -0.10464766724E+02 -0.28523948959E+02  0.30402400193E+02  0.10500000000E+00 0.  1.
</event>
<event>
11    0  0.3396091E-009  0.9118800E+02  0.7816531E-02  0.1126479E+00
         25   -1    0    0    0    0  0.00000000000E+00  0.00000000000E+00  0.99999998245E-14  0.12500000000E+03  0.12500000000E+03 0.  0.
    3000001    1    3    3    0    0  0.25290958820E+02 -0.47802847377E+02  0.25124253538E+02  0.59640363272E+02  0.10000000000E+01 0. -1.
    1000022    2    1    0    0    0  0.27790144590E+02 -0.48356564521E+02  0.26374240788E+02  0.62499999925E+02  0.99999972407E+01 0.  0.
    3000022    2    3    3    0    0  0.24991857700E+01 -0.55371714395E+00  0.12499872498E+01  0.28596366523E+01  0.25004293658E+00 0.  0.
    1000022    2    1    0    0    0 -0.27790144590E+02  0.48356564521E+02 -0.26374240788E+02  0.62500000075E+02  0.99999981834E+01 0.  0.
    3000022    2    5    5    0    0 -0.20697636472E+02  0.42844231632E+02 -0.23032548242E+02  0.52863797797E+02  0.24999858150E+00 0.  0.
        -13    1    4    4    0    0  0.59572180295E+00 -0.11447392633E+00  0.30484076736E+00  0.68698008688E+00  0.10500000000E+00 0. -1.
         13    1    4    4    0    0  0.19034639670E+01 -0.43924321762E+00  0.94514648241E+00  0.21726565654E+01  0.10500000000E+00 0.  1.
    3000001    1    5    5    0    0 -0.70925081183E+01  0.55123328888E+01 -0.33416925457E+01  0.96362022787E+01  0.10000000000E+01 0.  1.
        -13    1    6    6    0    0 -0.86695971017E+01  0.17988521492E+02 -0.95971604683E+01  0.22155480889E+02  0.10500000000E+00 0.  1.
         13    1    6    6    0    0 -0.12028039370E+02  0.24855710140E+02 -0.13435387774E+02  0.30708316907E+02  0.10500000000E+00 0. -1.
</event>
<event>
11    0  0.3396091E-009  0.9118800E+02  0.7816531E-02  0.1126479E+00
         25   -1    0    0    0    0  0.00000000000E+00  0.00000000000E+00  0.99999998245E-14  0.12500000000E+03  0.12500000000E+03 0.  0.
    3000001    1    3    3    0    0  0.15022109905E+02  0.15547141651E+02  0.27244654670E+02  0.34794376091E+02  0.10000000000E+01 0.  1.
    1000022    2    1    0    0    0  0.33204164882E+02  0.21909027189E+02  0.47156419709E+02  0.62500000067E+02  0.10000002540E+02 0.  0.
    3000022    2    3    3    0    0  0.18182054977E+02  0.63618855379E+01  0.19911765039E+02  0.27705623976E+02  0.25000430318E+00 0.  0.
    1000022    2    1    0    0    0 -0.33204164882E+02 -0.21909027189E+02 -0.47156419709E+02  0.62499999933E+02  0.10000001698E+02 0.  0.
    3000022    2    5    5    0    0 -0.12214973373E+01  0.19956527326E+00 -0.49395631522E+01  0.50983983744E+01  0.24999961302E+00 0.  0.
        -13    1    4    4    0    0  0.12659773985E+02  0.44214755496E+01  0.13927170895E+02  0.19333815907E+02  0.10500000000E+00 0. -1.
         13    1    4    4    0    0  0.55222809914E+01  0.19404099883E+01  0.59845941444E+01  0.83718080690E+01  0.10500000000E+00 0.  1.
    3000001    1    5    5    0    0 -0.31982667545E+02 -0.22108592462E+02 -0.42216856557E+02  0.57401601558E+02  0.10000000000E+01 0.  1.
        -13    1    6    6    0    0 -0.67011278102E+00  0.50198157451E-01 -0.27962552801E+01  0.28777837976E+01  0.10500000000E+00 0. -1.
         13    1    6    6    0    0 -0.55138455625E+00  0.14936711581E+00 -0.21433078722E+01  0.22206145769E+01  0.10500000000E+00 0.  1.
</event>
<event>
11    0  0.3396091E-009  0.9118800E+02  0.7816531E-02  0.1126479E+00
         25   -1    0    0    0    0  0.00000000000E+00  0.00000000000E+00  0.99999998245E-14  0.12500000000E+03  0.12500000000E+03 0.  0.
    3000001    1    3    3    0    0 -0.16924557646E+01  0.25741972687E+02  0.13525355694E+01  0.25852329040E+02  0.10000000000E+01 0. -1.
    1000022    2    1    0    0    0  0.73504217700E+01  0.61250647334E+02  0.76119083722E+00  0.62500000165E+02  0.10000005507E+02 0.  0.
    3000022    2    3    3    0    0  0.90428775346E+01  0.35508674646E+02 -0.59134473215E+00  0.36647671125E+02  0.25000203369E+00 0.  0.
    1000022    2    1    0    0    0 -0.73504217700E+01 -0.61250647334E+02 -0.76119083722E+00  0.62499999835E+02  0.10000003445E+02 0.  0.
    3000022    2    5    5    0    0 -0.97158809403E+01 -0.45180913904E+02 -0.98095815719E+00  0.46224864590E+02  0.25000752832E+00 0.  0.
        -13    1    4    4    0    0  0.50265610244E+01  0.19552986463E+02 -0.27725108201E+00  0.20190925896E+02  0.10500000000E+00 0.  1.
         13    1    4    4    0    0  0.40163165102E+01  0.15955688183E+02 -0.31409365015E+00  0.16456745229E+02  0.10500000000E+00 0. -1.
    3000001    1    5    5    0    0  0.23654591703E+01 -0.16069733430E+02  0.21976731997E+00  0.16275135246E+02  0.10000000000E+01 0.  1.
        -13    1    6    6    0    0 -0.48260189750E+01 -0.22537903112E+02 -0.55402519337E+00  0.23055704386E+02  0.10500000000E+00 0.  1.
         13    1    6    6    0    0 -0.48898619653E+01 -0.22643010792E+02 -0.42693296382E+00  0.23169160204E+02  0.10500000000E+00 0. -1.
</event>
<event>
11    0  0.3396091E-009  0.9118800E+02  0.7816531E-02  0.1126479E+00
         25   -1    0    0    0    0  0.00000000000E+00  0.00000000000E+00  0.99999998245E-14  0.12500000000E+03  0.12500000000E+03 0.  0.
    3000001    1    3    3    0    0 -0.99066349908E+01 -0.30830440480E+01  0.22826578047E+02  0.25093808853E+02  0.10000000000E+01 0. -1.
    1000022    2    1    0    0    0 -0.31465730111E+02  0.15175940821E+01  0.53045779557E+02  0.62499999438E+02  0.99999968885E+01 0.  0.
    3000022    2    3    3    0    0 -0.21559095121E+02  0.46006381302E+01  0.30219201510E+02  0.37406190585E+02  0.25000111604E+00 0.  0.
    1000022    2    1    0    0    0  0.31465730111E+02 -0.15175940821E+01 -0.53045779557E+02  0.62500000562E+02  0.10000003907E+02 0.  0.
    3000022    2    5    5    0    0  0.25895271112E+02 -0.32046818247E+00 -0.34934617450E+02  0.43487443744E+02  0.25000236859E+00 0.  0.
        -13    1    4    4    0    0 -0.11708202243E+02  0.24306716852E+01  0.16375758263E+02  0.20277244594E+02  0.10500000000E+00 0.  1.
         13    1    4    4    0    0 -0.98508928774E+01  0.21699664450E+01  0.13843443247E+02  0.17128945992E+02  0.10500000000E+00 0. -1.
    3000001    1    5    5    0    0  0.55704589998E+01 -0.11971258997E+01 -0.18111162107E+02  0.19012556818E+02  0.10000000000E+01 0.  1.
        -13    1    6    6    0    0  0.14955413032E+02 -0.24372290693E+00 -0.20223751146E+02  0.25154222613E+02  0.10500000000E+00 0. -1.
         13    1    6    6    0    0  0.10939858080E+02 -0.76745275542E-01 -0.14710866303E+02  0.18333221131E+02  0.10500000000E+00 0.  1.
</event>
<event>
11    0  0.3396091E-009  0.9118800E+02  0.7816531E-02  0.1126479E+00
         25   -1    0    0    0    0  0.00000000000E+00  0.00000000000E+00  0.99999998245E-14  0.12500000000E+03  0.12500000000E+03 0.  0.
    3000001    1    3    3    0    0 -0.11970097249E+02  0.85046437415E+01  0.46204564437E+01  0.15425978447E+02  0.10000000000E+01 0. -1.
    1000022    2    1    0    0    0 -0.35666167637E+02  0.45281934699E+02  0.21993655668E+02  0.62499999606E+02  0.99999968594E+01 0.  0.
    3000022    2    3    3    0    0 -0.23696070388E+02  0.36777290958E+02  0.17373199224E+02  0.47074021159E+02  0.25006955991E+00 0.  0.
    1000022    2    1    0    0    0  0.35666167637E+02 -0.45281934699E+02 -0.21993655668E+02  0.62500000394E+02  0.10000001782E+02 0.  0.
    3000022    2    5    5    0    0  0.20635642967E+02 -0.22299311978E+02 -0.69341958653E+01  0.31164637806E+02  0.25000383582E+00 0.  0.
        -13    1    4    4    0    0 -0.12698907121E+02  0.19721258933E+02  0.92423712238E+01  0.25211559786E+02  0.10500000000E+00 0.  1.
         13    1    4    4    0    0 -0.10997163267E+02  0.17056032024E+02  0.81308280000E+01  0.21862461373E+02  0.10500000000E+00 0. -1.
    3000001    1    5    5    0    0  0.15030524669E+02 -0.22982622721E+02 -0.15059459802E+02  0.31335362588E+02  0.10000000000E+01 0. -1.
        -13    1    6    6    0    0  0.11120718611E+02 -0.12091626468E+02 -0.37945929346E+01  0.16860835496E+02  0.10500000000E+00 0. -1.
         13    1    6    6    0    0  0.95149243559E+01 -0.10207685510E+02 -0.31396029307E+01  0.14303802310E+02  0.10500000000E+00 0.  1.
</event>
<event>
11    0  0.3396091E-009  0.9118800E+02  0.7816531E-02  0.1126479E+00
         25   -1    0    0    0    0  0.00000000000E+00  0.00000000000E+00  0.99999998245E-14  0.12500000000E+03  0.12500000000E+03 0.  0.
    3000001    1    3    3    0    0  0.60510856340E+01  0.13850542224E+02  0.32295598702E+02  0.35671541217E+02  0.10000000000E+01 0.  1.
    1000022    2    1    0    0    0  0.82691613451E+01  0.16335923014E+02  0.58915265878E+02  0.62499999212E+02  0.99999969002E+01 0.  0.
    3000022    2    3    3    0    0  0.22180757111E+01  0.24853807896E+01  0.26619667176E+02  0.26828457995E+02  0.25000066845E+00 0.  0.
    1000022    2    1    0    0    0 -0.82691613451E+01 -0.16335923014E+02 -0.58915265878E+02  0.62500000788E+02  0.10000006749E+02 0.  0.
    3000022    2    5    5    0    0  0.19573804374E+01 -0.40235359587E+01 -0.87031631199E+01  0.97891641868E+01  0.25001479095E+00 0.  0.
        -13    1    4    4    0    0  0.85885198613E+00  0.87835595472E+00  0.99858259779E+01  0.10061654008E+02  0.10500000000E+00 0.  1.
         13    1    4    4    0    0  0.13592237249E+01  0.16070248349E+01  0.16633841198E+02  0.16766803987E+02  0.10500000000E+00 0. -1.
    3000001    1    5    5    0    0 -0.10226541783E+02 -0.12312387055E+02 -0.50212102758E+02  0.52710836601E+02  0.10000000000E+01 0.  1.
        -13    1    6    6    0    0  0.90534098305E+00 -0.20155313445E+01 -0.42841815692E+01  0.48215397556E+01  0.10500000000E+00 0.  1.
         13    1    6    6    0    0  0.10520394544E+01 -0.20080046142E+01 -0.44189815506E+01  0.49676244312E+01  0.10500000000E+00 0. -1.
</event>
<event>
11    0  0.3396091E-009  0.9118800E+02  0.7816531E-02  0.1126479E+00
         25   -1    0    0    0    0  0.00000000000E+00  0.00000000000E+00  0.99999998245E-14  0.12500000000E+03  0.12500000000E+03 0.  0.
    3000001    1    3    3    0    0 -0.42704407294E+01  0.82664347144E+00  0.14335821830E+02  0.15014519339E+02  0.10000000000E+01 0. -1.
    1000022    2    1    0    0    0 -0.24163952689E+02  0.18475585355E+02  0.53675002853E+02  0.62499997465E+02  0.99999944004E+01 0.  0.
    3000022    2    3    3    0    0 -0.19893511959E+02  0.17648941884E+02  0.39339181024E+02  0.47485478126E+02  0.25000300371E+00 0.  0.
    1000022    2    1    0    0    0  0.24163952689E+02 -0.18475585355E+02 -0.53675002853E+02  0.62500002535E+02  0.10000026091E+02 0.  0.
    3000022    2    5    5    0    0  0.16115954512E+02 -0.76963471495E+01 -0.24130279679E+02  0.30021503210E+02  0.25001666899E+00 0.  0.
        -13    1    4    4    0    0 -0.61660474448E+01  0.54940878001E+01  0.12136584675E+02  0.14680356072E+02  0.10500000000E+00 0. -1.
         13    1    4    4    0    0 -0.13727464515E+02  0.12154854084E+02  0.27202596349E+02  0.32805122054E+02  0.10500000000E+00 0.  1.
    3000001    1    5    5    0    0  0.80479981770E+01 -0.10779238206E+02 -0.29544723174E+02  0.32478499325E+02  0.10000000000E+01 0.  1.
        -13    1    6    6    0    0  0.43532002123E+01 -0.21024788890E+01 -0.64834149585E+01  0.80880445159E+01  0.10500000000E+00 0. -1.
         13    1    6    6    0    0  0.11762754299E+02 -0.55938682604E+01 -0.17646864721E+02  0.21933458694E+02  0.10500000000E+00 0.  1.
</event>
<event>
11    0  0.3396091E-009  0.9118800E+02  0.7816531E-02  0.1126479E+00
         25   -1    0    0    0    0  0.00000000000E+00  0.00000000000E+00  0.99999998245E-14  0.12500000000E+03  0.12500000000E+03 0.  0.
    3000001    1    3    3    0    0 -0.41542097336E+02 -0.63256664616E+01 -0.18508413889E+02  0.45927347974E+02  0.10000000000E+01 0. -1.
    1000022    2    1    0    0    0 -0.55558207196E+02 -0.14012487896E+02 -0.22873249147E+02  0.62500001616E+02  0.10000023583E+02 0.  0.
    3000022    2    3    3    0    0 -0.14016109860E+02 -0.76868214341E+01 -0.43648352577E+01  0.16572653642E+02  0.25000509404E+00 0.  0.
    1000022    2    1    0    0    0  0.55558207196E+02  0.14012487896E+02  0.22873249147E+02  0.62499998384E+02  0.10000003380E+02 0.  0.
    3000022    2    5    5    0    0  0.41839723931E+02  0.13566121999E+02  0.14144498841E+02  0.46203154901E+02  0.25002127644E+00 0.  0.
        -13    1    4    4    0    0 -0.10174881708E+02 -0.55579731849E+01 -0.31318671182E+01  0.12009950055E+02  0.10500000000E+00 0. -1.
         13    1    4    4    0    0 -0.38412281525E+01 -0.21288482492E+01 -0.12329681394E+01  0.45627035867E+01  0.10500000000E+00 0.  1.
    3000001    1    5    5    0    0  0.13718483265E+02  0.44636589691E+00  0.87287503057E+01  0.16296843483E+02  0.10000000000E+01 0.  1.
        -13    1    6    6    0    0  0.20256324460E+02  0.66381343709E+01  0.68667064431E+01  0.22395226968E+02  0.10500000000E+00 0. -1.
         13    1    6    6    0    0  0.21583399470E+02  0.69279876280E+01  0.72777923983E+01  0.23807927933E+02  0.10500000000E+00 0.  1.
</event>
<event>
11    0  0.3396091E-009  0.9118800E+02  0.7816531E-02  0.1126479E+00
         25   -1    0    0    0    0  0.00000000000E+00  0.00000000000E+00  0.99999998245E-14  0.12500000000E+03  0.12500000000E+03 0.  0.
    3000001    1    3    3    0    0  0.14183686214E+01  0.85913462428E+01  0.76635135394E+01  0.11642698982E+02  0.10000000000E+01 0. -1.
    1000022    2    1    0    0    0  0.23588177985E+02  0.49116880397E+02  0.28937519399E+02  0.62500000948E+02  0.10000000447E+02 0.  0.
    3000022    2    3    3    0    0  0.22169809363E+02  0.40525534154E+02  0.21274005859E+02  0.50857301966E+02  0.24994454657E+00 0.  0.
    1000022    2    1    0    0    0 -0.23588177985E+02 -0.49116880397E+02 -0.28937519399E+02  0.62499999052E+02  0.99999886015E+01 0.  0.
    3000022    2    5    5    0    0 -0.19001267880E+01 -0.30653783827E+01  0.56168699142E+00  0.36585546435E+01  0.25000672639E+00 0.  0.
        -13    1    4    4    0    0  0.65367721225E+01  0.11947522128E+02  0.62234156797E+01  0.14973797197E+02  0.10500000000E+00 0. -1.
         13    1    4    4    0    0  0.15633037241E+02  0.28578012026E+02  0.15050590180E+02  0.35883504769E+02  0.10500000000E+00 0.  1.
    3000001    1    5    5    0    0 -0.21688051197E+02 -0.46051502014E+02 -0.29499206390E+02  0.58841444409E+02  0.10000000000E+01 0.  1.
        -13    1    6    6    0    0 -0.11597785827E+01 -0.17793465570E+01  0.28778769700E+00  0.21459280718E+01  0.10500000000E+00 0.  1.
         13    1    6    6    0    0 -0.74034820536E+00 -0.12860318258E+01  0.27389929442E+00  0.15126265717E+01  0.10500000000E+00 0. -1.
</event>
<event>
11    0  0.3396091E-009  0.9118800E+02  0.7816531E-02  0.1126479E+00
         25   -1    0    0    0    0  0.00000000000E+00  0.00000000000E+00  0.99999998245E-14  0.12500000000E+03  0.12500000000E+03 0.  0.
    3000001    1    3    3    0    0  0.36413025269E+01 -0.24468235726E+02  0.85566468787E+01  0.26194843948E+02  0.10000000000E+01 0.  1.
    1000022    2    1    0    0    0  0.31256430838E+01 -0.60717920026E+02  0.10479239121E+02  0.62500000423E+02  0.10000007168E+02 0.  0.
    3000022    2    3    3    0    0 -0.51565944310E+00 -0.36249684300E+02  0.19225922428E+01  0.36305156475E+02  0.25001853774E+00 0.  0.
    1000022    2    1    0    0    0 -0.31256430838E+01  0.60717920026E+02 -0.10479239121E+02  0.62499999577E+02  0.10000001884E+02 0.  0.
    3000022    2    5    5    0    0 -0.51790277256E+01  0.50680192259E+02 -0.60842408331E+01  0.51306770500E+02  0.24999423586E+00 0.  0.
        -13    1    4    4    0    0 -0.21495991876E+00 -0.19314047251E+02  0.10553711477E+01  0.19344339281E+02  0.10500000000E+00 0. -1.
         13    1    4    4    0    0 -0.30069952434E+00 -0.16935637049E+02  0.86722109511E+00  0.16960817194E+02  0.10500000000E+00 0.  1.
    3000001    1    5    5    0    0  0.20533846419E+01  0.10037727767E+02 -0.43949982884E+01  0.11193229077E+02  0.10000000000E+01 0. -1.
        -13    1    6    6    0    0 -0.15793249500E+01  0.15905986382E+02 -0.19272205657E+01  0.16100306649E+02  0.10500000000E+00 0. -1.
         13    1    6    6    0    0 -0.35997027757E+01  0.34774205877E+02 -0.41570202674E+01  0.35206463852E+02  0.10500000000E+00 0.  1.
</event>
<event>
11    0  0.3396091E-009  0.9118800E+02  0.7816531E-02  0.1126479E+00
         25   -1    0    0    0    0  0.00000000000E+00  0.00000000000E+00  0.99999998245E-14  0.12500000000E+03  0.12500000000E+03 0.  0.
    3000001    1    3    3    0    0  0.19061278281E+02  0.19162326303E+02 -0.63917775083E+01  0.27791759547E+02  0.10000000000E+01 0. -1.
    1000022    2    1    0    0    0  0.36557809691E+02  0.43839543128E+02 -0.23406644818E+02  0.62499998519E+02  0.99999901120E+01 0.  0.
    3000022    2    3    3    0    0  0.17496531410E+02  0.24677216825E+02 -0.17014867309E+02  0.34708238972E+02  0.25000270562E+00 0.  0.
    1000022    2    1    0    0    0 -0.36557809691E+02 -0.43839543128E+02  0.23406644818E+02  0.62500001481E+02  0.10000008621E+02 0.  0.
    3000022    2    5    5    0    0 -0.21263860235E+02 -0.27643441490E+02  0.92322495821E+01  0.36077812349E+02  0.25000407713E+00 0.  0.
        -13    1    4    4    0    0  0.11565062928E+02  0.16216294048E+02 -0.11204994833E+02  0.22853485672E+02  0.10500000000E+00 0.  1.
         13    1    4    4    0    0  0.59314684823E+01  0.84609227774E+01 -0.58098724766E+01  0.11854753300E+02  0.10500000000E+00 0. -1.
    3000001    1    5    5    0    0 -0.15293949455E+02 -0.16196101638E+02  0.14174395236E+02  0.26422189132E+02  0.10000000000E+01 0. -1.
        -13    1    6    6    0    0 -0.97516939971E+01 -0.12628916901E+02  0.42859825051E+01  0.16521675125E+02  0.10500000000E+00 0. -1.
         13    1    6    6    0    0 -0.11512166238E+02 -0.15014524589E+02  0.49462670770E+01  0.19556137224E+02  0.10500000000E+00 0.  1.
</event>
<event>
11    0  0.3396091E-009  0.9118800E+02  0.7816531E-02  0.1126479E+00
         25   -1    0    0    0    0  0.00000000000E+00  0.00000000000E+00  0.99999998245E-14  0.12500000000E+03  0.12500000000E+03 0.  0.
    3000001    1    3    3    0    0 -0.22875977912E+01  0.14574783522E+02 -0.14786428347E+02  0.20911620732E+02  0.10000000000E+01 0. -1.
    1000022    2    1    0    0    0  0.68087258961E+01  0.41277356903E+02 -0.45343918989E+02  0.62499999985E+02  0.10000003383E+02 0.  0.
    3000022    2    3    3    0    0  0.90963236872E+01  0.26702573381E+02 -0.30557490642E+02  0.41588379254E+02  0.25004960858E+00 0.  0.
    1000022    2    1    0    0    0 -0.68087258961E+01 -0.41277356903E+02  0.45343918989E+02  0.62500000015E+02  0.10000003565E+02 0.  0.
    3000022    2    5    5    0    0 -0.67897409744E+01 -0.40692175681E+02  0.45393788598E+02  0.61340136028E+02  0.25000088288E+00 0.  0.
        -13    1    4    4    0    0  0.29883770719E+01  0.89384280200E+01 -0.10216402752E+02  0.13900064863E+02  0.10500000000E+00 0. -1.
         13    1    4    4    0    0  0.61079466153E+01  0.17764145361E+02 -0.20341087890E+02  0.27688314391E+02  0.10500000000E+00 0.  1.
    3000001    1    5    5    0    0 -0.18984921695E-01 -0.58518122218E+00 -0.49869609189E-01  0.11598639868E+01  0.10000000000E+01 0.  1.
        -13    1    6    6    0    0 -0.21637901622E+01 -0.13235589241E+02  0.14716374450E+02  0.19910939515E+02  0.10500000000E+00 0.  1.
         13    1    6    6    0    0 -0.46259508122E+01 -0.27456586440E+02  0.30677414148E+02  0.41429196513E+02  0.10500000000E+00 0. -1.
</event>
<event>
11    0  0.3396091E-009  0.9118800E+02  0.7816531E-02  0.1126479E+00
         25   -1    0    0    0    0  0.00000000000E+00  0.00000000000E+00  0.99999998245E-14  0.12500000000E+03  0.12500000000E+03 0.  0.
    3000001    1    3    3    0    0 -0.54214483133E+01  0.46015425541E+01 -0.34784252494E+02  0.35517749327E+02  0.10000000000E+01 0. -1.
    1000022    2    1    0    0    0 -0.69359662319E+01  0.16068599338E+02 -0.59160311197E+02  0.62500000826E+02  0.10000008501E+02 0.  0.
    3000022    2    3    3    0    0 -0.15145179185E+01  0.11467056784E+02 -0.24376058704E+02  0.26982251499E+02  0.25000446894E+00 0.  0.
    1000022    2    1    0    0    0  0.69359662319E+01 -0.16068599338E+02  0.59160311197E+02  0.62499999174E+02  0.99999981766E+01 0.  0.
    3000022    2    5    5    0    0  0.91824402734E+01 -0.13374982689E+02  0.43691924977E+02  0.46607447820E+02  0.25002563861E+00 0.  0.
        -13    1    4    4    0    0 -0.10032251636E+01  0.75657238343E+01 -0.15954580304E+02  0.17686330754E+02  0.10500000000E+00 0. -1.
         13    1    4    4    0    0 -0.51129275492E+00  0.39013329496E+01 -0.84214783996E+01  0.92959207452E+01  0.10500000000E+00 0.  1.
    3000001    1    5    5    0    0 -0.22464740415E+01 -0.26936166493E+01  0.15468386220E+02  0.15892551354E+02  0.10000000000E+01 0. -1.
        -13    1    6    6    0    0  0.66676646695E+01 -0.96507659995E+01  0.31637030395E+02  0.33741780536E+02  0.10500000000E+00 0.  1.
         13    1    6    6    0    0  0.25147756039E+01 -0.37242166894E+01  0.12054894582E+02  0.12865667285E+02  0.10500000000E+00 0. -1.
</event>
<event>
11    0  0.3396091E-009  0.9118800E+02  0.7816531E-02  0.1126479E+00
         25   -1    0    0    0    0  0.00000000000E+00  0.00000000000E+00  0.99999998245E-14  0.12500000000E+03  0.12500000000E+03 0.  0.
    3000001    1    3    3    0    0  0.29197834197E+02 -0.27888859395E+02  0.19676709945E+02  0.44927440551E+02  0.10000000000E+01 0. -1.
    1000022    2    1    0    0    0  0.35702135308E+02 -0.42545824863E+02  0.26860011844E+02  0.62500001069E+02  0.10000010928E+02 0.  0.
    3000022    2    3    3    0    0  0.65043011112E+01 -0.14656965467E+02  0.71833018995E+01  0.17572560519E+02  0.24997469457E+00 0.  0.
    1000022    2    1    0    0    0 -0.35702135308E+02  0.42545824863E+02 -0.26860011844E+02  0.62499998931E+02  0.99999975641E+01 0.  0.
    3000022    2    5    5    0    0 -0.34974753609E+02  0.38502176889E+02 -0.26123560284E+02  0.58207850987E+02  0.24999882908E+00 0.  0.
        -13    1    4    4    0    0  0.43667663352E+01 -0.97076036045E+01  0.47738816997E+01  0.11666498509E+02  0.10500000000E+00 0.  1.
         13    1    4    4    0    0  0.21375347759E+01 -0.49493618627E+01  0.24094201997E+01  0.59060620099E+01  0.10500000000E+00 0. -1.
    3000001    1    5    5    0    0 -0.72738169941E+00  0.40436479741E+01 -0.73645156017E+00  0.42921479443E+01  0.10000000000E+01 0. -1.
        -13    1    6    6    0    0 -0.11251659249E+02  0.12328909409E+02 -0.83458016367E+01  0.18661866815E+02  0.10500000000E+00 0.  1.
         13    1    6    6    0    0 -0.23723094359E+02  0.26173267480E+02 -0.17777758647E+02  0.39545984171E+02  0.10500000000E+00 0. -1.
</event>
<event>
11    0  0.3396091E-009  0.9118800E+02  0.7816531E-02  0.1126479E+00
         25   -1    0    0    0    0  0.00000000000E+00  0.00000000000E+00  0.99999998245E-14  0.12500000000E+03  0.12500000000E+03 0.  0.
    3000001    1    3    3    0    0  0.27605571899E+01 -0.18963078190E+02 -0.43721669877E+02  0.47747287119E+02  0.10000000000E+01 0. -1.
    1000022    2    1    0    0    0  0.89619845824E+01 -0.24357868128E+02 -0.55969876796E+02  0.62500000018E+02  0.99999993188E+01 0.  0.
    3000022    2    3    3    0    0  0.62014273926E+01 -0.53947899380E+01 -0.12248206919E+02  0.14752712899E+02  0.25000994736E+00 0.  0.
    1000022    2    1    0    0    0 -0.89619845824E+01  0.24357868128E+02  0.55969876796E+02  0.62499999982E+02  0.99999990896E+01 0.  0.
    3000022    2    5    5    0    0 -0.15845740047E+01  0.97212577380E+01  0.31706485695E+02  0.33202070051E+02  0.24998746746E+00 0.  0.
        -13    1    4    4    0    0  0.38151444779E+01 -0.32649421913E+01 -0.73974353941E+01  0.89413785464E+01  0.10500000000E+00 0.  1.
         13    1    4    4    0    0  0.23862829147E+01 -0.21298477467E+01 -0.48507715247E+01  0.58113343526E+01  0.10500000000E+00 0. -1.
    3000001    1    5    5    0    0 -0.73774105777E+01  0.14636610390E+02  0.24263391100E+02  0.29297929931E+02  0.10000000000E+01 0. -1.
        -13    1    6    6    0    0 -0.85033900408E+00  0.48004032640E+01  0.15656745105E+02  0.16398525550E+02  0.10500000000E+00 0.  1.
         13    1    6    6    0    0 -0.73423500059E+00  0.49208544740E+01  0.16049740590E+02  0.16803544501E+02  0.10500000000E+00 0. -1.
</event>
<event>
11    0  0.3396091E-009  0.9118800E+02  0.7816531E-02  0.1126479E+00
         25   -1    0    0    0    0  0.00000000000E+00  0.00000000000E+00  0.99999998245E-14  0.12500000000E+03  0.12500000000E+03 0.  0.
    3000001    1    3    3    0    0  0.16905595400E+02  0.38816622889E-01  0.20197165887E+02  0.26357658705E+02  0.10000000000E+01 0. -1.
    1000022    2    1    0    0    0  0.30181187343E+02 -0.71465921654E+00  0.53803672316E+02  0.62499999909E+02  0.10000001333E+02 0.  0.
    3000022    2    3    3    0    0  0.13275591943E+02 -0.75347583943E+00  0.33606506429E+02  0.36142341203E+02  0.24997201347E+00 0.  0.
    1000022    2    1    0    0    0 -0.30181187343E+02  0.71465921654E+00 -0.53803672316E+02  0.62500000091E+02  0.10000002474E+02 0.  0.
    3000022    2    5    5    0    0 -0.68812152844E+00  0.16534591725E+01 -0.11791466444E+01  0.21587788684E+01  0.25000184115E+00 0.  0.
        -13    1    4    4    0    0  0.82899348357E+01 -0.49607319333E+00  0.20839493677E+02  0.22433560349E+02  0.10500000000E+00 0. -1.
         13    1    4    4    0    0  0.49856571071E+01 -0.25740264609E+00  0.12767012752E+02  0.13708780854E+02  0.10500000000E+00 0.  1.
    3000001    1    5    5    0    0 -0.29493065814E+02 -0.93879995597E+00 -0.52624525672E+02  0.60341221223E+02  0.10000000000E+01 0. -1.
        -13    1    6    6    0    0 -0.44384601956E+00  0.90394774843E+00 -0.68624722890E+00  0.12231439327E+01  0.10500000000E+00 0.  1.
         13    1    6    6    0    0 -0.24427550887E+00  0.74951142407E+00 -0.49289941551E+00  0.93563493568E+00  0.10500000000E+00 0. -1.
</event>
<event>
11    0  0.3396091E-009  0.9118800E+02  0.7816531E-02  0.1126479E+00
         25   -1    0    0    0    0  0.00000000000E+00  0.00000000000E+00  0.99999998245E-14  0.12500000000E+03  0.12500000000E+03 0.  0.
    3000001    1    3    3    0    0 -0.32450161330E+02  0.41831858261E+02 -0.25488029107E+02  0.58766971708E+02  0.10000000000E+01 0.  1.
    1000022    2    1    0    0    0 -0.33082219831E+02  0.43373650169E+02 -0.28819160184E+02  0.62500007022E+02  0.10000004306E+02 0.  0.
    3000022    2    3    3    0    0 -0.63205850062E+00  0.15417919076E+01 -0.33311310770E+01  0.37330353140E+01  0.24999633827E+00 0.  0.
    1000022    2    1    0    0    0  0.33082219831E+02 -0.43373650169E+02  0.28819160184E+02  0.62499992978E+02  0.99999165340E+01 0.  0.
    3000022    2    5    5    0    0  0.40400170949E+01 -0.96820570713E+01  0.88673527783E+01  0.13738864977E+02  0.24999661265E+00 0.  0.
        -13    1    4    4    0    0 -0.14597181887E+00  0.38618092838E+00 -0.89674106352E+00  0.99278044721E+00  0.10500000000E+00 0. -1.
         13    1    4    4    0    0 -0.48608668175E+00  0.11556109792E+01 -0.24343900135E+01  0.27402548668E+01  0.10500000000E+00 0.  1.
    3000001    1    5    5    0    0  0.29042202736E+02 -0.33691593097E+02  0.19951807406E+02  0.48761128001E+02  0.10000000000E+01 0. -1.
        -13    1    6    6    0    0  0.12042829485E+01 -0.29375078476E+01  0.26291982554E+01  0.41234643494E+01  0.10500000000E+00 0. -1.
         13    1    6    6    0    0  0.28357341464E+01 -0.67445492237E+01  0.62381545230E+01  0.96154006278E+01  0.10500000000E+00 0.  1.
</event>
<event>
11    0  0.3396091E-009  0.9118800E+02  0.7816531E-02  0.1126479E+00
         25   -1    0    0    0    0  0.00000000000E+00  0.00000000000E+00  0.99999998245E-14  0.12500000000E+03  0.12500000000E+03 0.  0.
    3000001    1    3    3    0    0 -0.18938136511E+02  0.13897152500E+01  0.52205134122E+02  0.55560420730E+02  0.10000000000E+01 0. -1.
    1000022    2    1    0    0    0 -0.18761685377E+02 -0.84847506589E+00  0.58766736882E+02  0.62500000184E+02  0.99999955539E+01 0.  0.
    3000022    2    3    3    0    0  0.17645113348E+00 -0.22381903159E+01  0.65616027604E+01  0.69395794544E+01  0.25000264993E+00 0.  0.
    1000022    2    1    0    0    0  0.18761685377E+02  0.84847506589E+00 -0.58766736882E+02  0.62499999816E+02  0.99999932535E+01 0.  0.
    3000022    2    5    5    0    0  0.15289832930E+02  0.16994055547E+01 -0.55371986506E+02  0.57469873353E+02  0.24996669725E+00 0.  0.
        -13    1    4    4    0    0  0.84247475710E-01 -0.15817054536E+01  0.45519013280E+01  0.48207593260E+01  0.10500000000E+00 0. -1.
         13    1    4    4    0    0  0.92203657774E-01 -0.65648486229E+00  0.20097014325E+01  0.21188201284E+01  0.10500000000E+00 0.  1.
    3000001    1    5    5    0    0  0.34718524477E+01 -0.85093048885E+00 -0.33947503765E+01  0.50301264631E+01  0.10000000000E+01 0.  1.
        -13    1    6    6    0    0  0.10527204856E+02  0.12014516130E+01 -0.38273514201E+02  0.39713202368E+02  0.10500000000E+00 0.  1.
         13    1    6    6    0    0  0.47626280732E+01  0.49795394175E+00 -0.17098472305E+02  0.17756670985E+02  0.10500000000E+00 0. -1.
</event>
<event>
11    0  0.3396091E-009  0.9118800E+02  0.7816531E-02  0.1126479E+00
         25   -1    0    0    0    0  0.00000000000E+00  0.00000000000E+00  0.99999998245E-14  0.12500000000E+03  0.12500000000E+03 0.  0.
    3000001    1    3    3    0    0  0.15286815052E+02  0.23627729999E+01  0.51979366622E+01  0.16348943582E+02  0.10000000000E+01 0. -1.
    1000022    2    1    0    0    0  0.61416618986E+02  0.36080816873E+01  0.46077411434E+01  0.62500004647E+02  0.99999980627E+01 0.  0.
    3000022    2    3    3    0    0  0.46129803934E+02  0.12453086874E+01 -0.59019551885E+00  0.46151061065E+02  0.25000396964E+00 0.  0.
    1000022    2    1    0    0    0 -0.61416618986E+02 -0.36080816873E+01 -0.46077411434E+01  0.62499995353E+02  0.99999399741E+01 0.  0.
    3000022    2    5    5    0    0 -0.22998171521E+02 -0.46308125851E+01 -0.52848825956E+01  0.24048966697E+02  0.24999328510E+00 0.  0.
        -13    1    4    4    0    0  0.24531795309E+02  0.65976626707E+00 -0.24654505098E+00  0.24542128719E+02  0.10500000000E+00 0. -1.
         13    1    4    4    0    0  0.21598008625E+02  0.58554242036E+00 -0.34365046787E+00  0.21608932346E+02  0.10500000000E+00 0.  1.
    3000001    1    5    5    0    0 -0.38418447466E+02  0.10227308977E+01  0.67714145220E+00  0.38451028656E+02  0.10000000000E+01 0. -1.
        -13    1    6    6    0    0 -0.16817079797E+02 -0.33517829550E+01 -0.38743702581E+01  0.17580397941E+02  0.10500000000E+00 0.  1.
         13    1    6    6    0    0 -0.61810917237E+01 -0.12790296301E+01 -0.14105123375E+01  0.64685687556E+01  0.10500000000E+00 0. -1.
</event>
<event>
11    0  0.3396091E-009  0.9118800E+02  0.7816531E-02  0.1126479E+00
         25   -1    0    0    0    0  0.00000000000E+00  0.00000000000E+00  0.99999998245E-14  0.12500000000E+03  0.12500000000E+03 0.  0.
    3000001    1    3    3    0    0  0.23183473765E+02 -0.10045960286E+02 -0.41619404014E+02  0.48698763479E+02  0.10000000000E+01 0.  1.
    1000022    2    1    0    0    0  0.25067405219E+02 -0.11273130210E+02 -0.55233972778E+02  0.62499999823E+02  0.99999979989E+01 0.  0.
    3000022    2    3    3    0    0  0.18839314534E+01 -0.12271699235E+01 -0.13614568764E+02  0.13801236344E+02  0.24999653798E+00 0.  0.
    1000022    2    1    0    0    0 -0.25067405219E+02  0.11273130210E+02  0.55233972778E+02  0.62500000177E+02  0.10000000208E+02 0.  0.
    3000022    2    5    5    0    0 -0.25283990705E+02  0.11941304352E+02  0.53642943890E+02  0.60493824991E+02  0.24999433800E+00 0.  0.
        -13    1    4    4    0    0  0.11385396337E+01 -0.69340201535E+00 -0.83542138239E+01  0.84605550922E+01  0.10500000000E+00 0.  1.
         13    1    4    4    0    0  0.74539181973E+00 -0.53376790814E+00 -0.52603549396E+01  0.53406812520E+01  0.10500000000E+00 0. -1.
    3000001    1    5    5    0    0  0.21658548614E+00 -0.66817414229E+00  0.15910288872E+01  0.20061751861E+01  0.10000000000E+01 0.  1.
        -13    1    6    6    0    0 -0.12300506384E+02  0.58784314630E+01  0.26210426042E+02  0.29544134309E+02  0.10500000000E+00 0. -1.
         13    1    6    6    0    0 -0.12983484321E+02  0.60628728890E+01  0.27432517849E+02  0.30949690682E+02  0.10500000000E+00 0.  1.
</event>
<event>
11    0  0.3396091E-009  0.9118800E+02  0.7816531E-02  0.1126479E+00
         25   -1    0    0    0    0  0.00000000000E+00  0.00000000000E+00  0.99999998245E-14  0.12500000000E+03  0.12500000000E+03 0.  0.
    3000001    1    3    3    0    0 -0.59266498275E+01 -0.52618703491E+02 -0.32318277268E+02  0.62042922085E+02  0.10000000000E+01 0.  1.
    1000022    2    1    0    0    0 -0.60422774690E+01 -0.52366112718E+02 -0.32055143736E+02  0.62499990578E+02  0.99998852074E+01 0.  0.
    3000022    2    3    3    0    0 -0.11562764151E+00  0.25259077313E+00  0.26313353191E+00  0.45706849354E+00  0.25000100404E+00 0.  0.
    1000022    2    1    0    0    0  0.60422774690E+01  0.52366112718E+02  0.32055143736E+02  0.62500009422E+02  0.10000002977E+02 0.  0.
    3000022    2    5    5    0    0  0.33261067061E+01  0.62823978602E+01  0.69374553501E+01  0.99359092336E+01  0.24999374028E+00 0.  0.
        -13    1    4    4    0    0 -0.53280367428E-01  0.94830920965E-01  0.19394918807E+00  0.24591256307E+00  0.10500000000E+00 0. -1.
         13    1    4    4    0    0 -0.62347274084E-01  0.15775985217E+00  0.69184343843E-01  0.21115593047E+00  0.10500000000E+00 0.  1.
    3000001    1    5    5    0    0  0.27161707629E+01  0.46083714858E+02  0.25117688385E+02  0.52564100188E+02  0.10000000000E+01 0.  1.
        -13    1    6    6    0    0  0.19217266417E+01  0.37565906367E+01  0.41490686489E+01  0.59186824674E+01  0.10500000000E+00 0. -1.
         13    1    6    6    0    0  0.14043800643E+01  0.25258072235E+01  0.27883867012E+01  0.40172267662E+01  0.10500000000E+00 0.  1.
</event>
<event>
11    0  0.3396091E-009  0.9118800E+02  0.7816531E-02  0.1126479E+00
         25   -1    0    0    0    0  0.00000000000E+00  0.00000000000E+00  0.99999998245E-14  0.12500000000E+03  0.12500000000E+03 0.  0.
    3000001    1    3    3    0    0 -0.34857663007E+02  0.27449275113E+02  0.35074308185E+02  0.56566124750E+02  0.10000000000E+01 0. -1.
    1000022    2    1    0    0    0 -0.37394570094E+02  0.32547966869E+02  0.36722281578E+02  0.62499999634E+02  0.99999985056E+01 0.  0.
    3000022    2    3    3    0    0 -0.25369070869E+01  0.50986917561E+01  0.16479733928E+01  0.59338748840E+01  0.24999928857E+00 0.  0.
    1000022    2    1    0    0    0  0.37394570094E+02 -0.32547966869E+02 -0.36722281578E+02  0.62500000366E+02  0.10000003082E+02 0.  0.
    3000022    2    5    5    0    0  0.34520092185E+02 -0.27353425444E+02 -0.34943128160E+02  0.56222160709E+02  0.25000259483E+00 0.  0.
        -13    1    4    4    0    0 -0.17874865277E+01  0.36604148649E+01  0.12073935214E+01  0.42500081395E+01  0.10500000000E+00 0. -1.
         13    1    4    4    0    0 -0.74942055912E+00  0.14382768912E+01  0.44057987139E+00  0.16838667445E+01  0.10500000000E+00 0.  1.
    3000001    1    5    5    0    0  0.28744779093E+01 -0.51945414252E+01 -0.17791534184E+01  0.62778396567E+01  0.10000000000E+01 0.  1.
        -13    1    6    6    0    0  0.22574492930E+02 -0.17917741262E+02 -0.22801095910E+02  0.36749886839E+02  0.10500000000E+00 0.  1.
         13    1    6    6    0    0  0.11945599254E+02 -0.94356841813E+01 -0.12142032250E+02  0.19472273870E+02  0.10500000000E+00 0. -1.
</event>
<event>
11    0  0.3396091E-009  0.9118800E+02  0.7816531E-02  0.1126479E+00
         25   -1    0    0    0    0  0.00000000000E+00  0.00000000000E+00  0.99999998245E-14  0.12500000000E+03  0.12500000000E+03 0.  0.
    3000001    1    3    3    0    0 -0.25018662286E+02  0.21897596596E+02  0.46005860464E+02  0.56771272632E+02  0.10000000000E+01 0. -1.
    1000022    2    1    0    0    0 -0.27231639967E+02  0.26487627314E+02  0.48611657815E+02  0.62500001084E+02  0.10000012199E+02 0.  0.
    3000022    2    3    3    0    0 -0.22129776811E+01  0.45900307179E+01  0.26057973516E+01  0.57287284523E+01  0.24999526882E+00 0.  0.
    1000022    2    1    0    0    0  0.27231639967E+02 -0.26487627314E+02 -0.48611657815E+02  0.62499998916E+02  0.99999986483E+01 0.  0.
    3000022    2    5    5    0    0  0.53607902340E+01 -0.30119716755E+01 -0.33383195958E+01  0.70012094768E+01  0.25002221534E+00 0.  0.
        -13    1    4    4    0    0 -0.10845907888E+01  0.20964756125E+01  0.11960289528E+01  0.26482177835E+01  0.10500000000E+00 0.  1.
         13    1    4    4    0    0 -0.11283868923E+01  0.24935551054E+01  0.14097683987E+01  0.30805106688E+01  0.10500000000E+00 0. -1.
    3000001    1    5    5    0    0  0.21870849733E+02 -0.23475655638E+02 -0.45273338219E+02  0.55498789439E+02  0.10000000000E+01 0. -1.
        -13    1    6    6    0    0  0.12632311651E+01 -0.71591757654E+00 -0.77254074373E+00  0.16480701300E+01  0.10500000000E+00 0. -1.
         13    1    6    6    0    0  0.40975590690E+01 -0.22960540989E+01 -0.25657788520E+01  0.53531393468E+01  0.10500000000E+00 0.  1.
</event>
<event>
11    0  0.3396091E-009  0.9118800E+02  0.7816531E-02  0.1126479E+00
         25   -1    0    0    0    0  0.00000000000E+00  0.00000000000E+00  0.99999998245E-14  0.12500000000E+03  0.12500000000E+03 0.  0.
    3000001    1    3    3    0    0 -0.13786661894E+02 -0.37810462852E+02 -0.36991770221E+02  0.54672609333E+02  0.10000000000E+01 0. -1.
    1000022    2    1    0    0    0 -0.13339536096E+02 -0.41014223080E+02 -0.44115080018E+02  0.62500000316E+02  0.10000001816E+02 0.  0.
    3000022    2    3    3    0    0  0.44712579785E+00 -0.32037602282E+01 -0.71233097974E+01  0.78273909823E+01  0.25001208275E+00 0.  0.
    1000022    2    1    0    0    0  0.13339536096E+02  0.41014223080E+02  0.44115080018E+02  0.62499999684E+02  0.99999978706E+01 0.  0.
    3000022    2    5    5    0    0  0.26785876758E+01  0.34348157302E+01  0.13401000451E+01  0.45641162468E+01  0.24999589240E+00 0.  0.
        -13    1    4    4    0    0  0.22948898484E+00 -0.13192119032E+01 -0.30616863973E+01  0.33433417168E+01  0.10500000000E+00 0. -1.
         13    1    4    4    0    0  0.21763681300E+00 -0.18845483250E+01 -0.40616234001E+01  0.44840492655E+01  0.10500000000E+00 0.  1.
    3000001    1    5    5    0    0  0.10660948420E+02  0.37579407350E+02  0.42774979973E+02  0.57935883438E+02  0.10000000000E+01 0. -1.
        -13    1    6    6    0    0  0.11842416827E+01  0.14216451553E+01  0.54178104986E+00  0.19308171888E+01  0.10500000000E+00 0. -1.
         13    1    6    6    0    0  0.14943459932E+01  0.20131705749E+01  0.79831899525E+00  0.26332990580E+01  0.10500000000E+00 0.  1.
</event>
<event>
11    0  0.3396091E-009  0.9118800E+02  0.7816531E-02  0.1126479E+00
         25   -1    0    0    0    0  0.00000000000E+00  0.00000000000E+00  0.99999998245E-14  0.12500000000E+03  0.12500000000E+03 0.  0.
    3000001    1    3    3    0    0 -0.48624832800E+01 -0.98577815042E+01 -0.22499195120E+02  0.25060594184E+02  0.10000000000E+01 0.  1.
    1000022    2    1    0    0    0 -0.13023741458E+02 -0.34573969627E+02 -0.49409238721E+02  0.62499999084E+02  0.99999898593E+01 0.  0.
    3000022    2    3    3    0    0 -0.81612581780E+01 -0.24716188123E+02 -0.26910043601E+02  0.37439404900E+02  0.25000452307E+00 0.  0.
    1000022    2    1    0    0    0  0.13023741458E+02  0.34573969627E+02  0.49409238721E+02  0.62500000916E+02  0.10000001307E+02 0.  0.
    3000022    2    5    5    0    0  0.13403019245E+02  0.31258716703E+02  0.47792847786E+02  0.58659757011E+02  0.24999671129E+00 0.  0.
        -13    1    4    4    0    0 -0.60013147747E+01 -0.18269972665E+02 -0.19863453586E+02  0.27647341528E+02  0.10500000000E+00 0. -1.
         13    1    4    4    0    0 -0.21599434033E+01 -0.64462154573E+01 -0.70465900152E+01  0.97920633715E+01  0.10500000000E+00 0.  1.
    3000001    1    5    5    0    0 -0.37927778668E+00  0.33152529243E+01  0.16163909353E+01  0.38402439047E+01  0.10000000000E+01 0.  1.
        -13    1    6    6    0    0  0.32876827649E+01  0.77235571663E+01  0.11778443463E+02  0.14463918856E+02  0.10500000000E+00 0. -1.
         13    1    6    6    0    0  0.10115336480E+02  0.23535159536E+02  0.36014404322E+02  0.44195838155E+02  0.10500000000E+00 0.  1.
</event>
<event>
11    0  0.3396091E-009  0.9118800E+02  0.7816531E-02  0.1126479E+00
         25   -1    0    0    0    0  0.00000000000E+00  0.00000000000E+00  0.99999998245E-14  0.12500000000E+03  0.12500000000E+03 0.  0.
    3000001    1    3    3    0    0  0.23465084929E+02  0.21575313839E+02 -0.18151816595E+02  0.36695951053E+02  0.10000000000E+01 0. -1.
    1000022    2    1    0    0    0  0.35055449782E+02  0.42588675424E+02 -0.27632772479E+02  0.62500000227E+02  0.10000003983E+02 0.  0.
    3000022    2    3    3    0    0  0.11590364853E+02  0.21013361585E+02 -0.94809558843E+01  0.25804049174E+02  0.25001350924E+00 0.  0.
    1000022    2    1    0    0    0 -0.35055449782E+02 -0.42588675424E+02  0.27632772479E+02  0.62499999773E+02  0.10000001147E+02 0.  0.
    3000022    2    5    5    0    0 -0.17611138025E+02 -0.28741026765E+02  0.15256164140E+02  0.37000160165E+02  0.25001183051E+00 0.  0.
        -13    1    4    4    0    0  0.51336982594E+01  0.94394927395E+01 -0.42655703207E+01  0.11561357886E+02  0.10500000000E+00 0. -1.
         13    1    4    4    0    0  0.64566665934E+01  0.11573868846E+02 -0.52153855637E+01  0.14242691288E+02  0.10500000000E+00 0.  1.
    3000001    1    5    5    0    0 -0.17444311757E+02 -0.13847648659E+02  0.12376608339E+02  0.25499839608E+02  0.10000000000E+01 0.  1.
        -13    1    6    6    0    0 -0.86824163427E+01 -0.14284858926E+02  0.75317265895E+01  0.18335197804E+02  0.10500000000E+00 0. -1.
         13    1    6    6    0    0 -0.89287216827E+01 -0.14456167839E+02  0.77244375504E+01  0.18664962361E+02  0.10500000000E+00 0.  1.
</event>
<event>
11    0  0.3396091E-009  0.9118800E+02  0.7816531E-02  0.1126479E+00
         25   -1    0    0    0    0  0.00000000000E+00  0.00000000000E+00  0.99999998245E-14  0.12500000000E+03  0.12500000000E+03 0.  0.
    3000001    1    3    3    0    0 -0.79582613269E+01 -0.25388783384E+02 -0.53281980892E+01  0.27153525369E+02  0.10000000000E+01 0. -1.
    1000022    2    1    0    0    0 -0.24249452875E+02 -0.56657813422E+02 -0.28471329932E+01  0.62500001138E+02  0.10000009472E+02 0.  0.
    3000022    2    3    3    0    0 -0.16291191548E+02 -0.31269030038E+02  0.24810650960E+01  0.35346475769E+02  0.25000742432E+00 0.  0.
    1000022    2    1    0    0    0  0.24249452875E+02  0.56657813422E+02  0.28471329932E+01  0.62499998862E+02  0.99999952501E+01 0.  0.
    3000022    2    5    5    0    0  0.15714263883E+02  0.36144284621E+02 -0.29270033002E+01  0.39521857838E+02  0.24999699156E+00 0.  0.
        -13    1    4    4    0    0 -0.11746295203E+02 -0.22587415793E+02  0.17575444628E+01  0.25519929286E+02  0.10500000000E+00 0.  1.
         13    1    4    4    0    0 -0.45448963450E+01 -0.86816142452E+01  0.72352063316E+00  0.98265464837E+01  0.10500000000E+00 0. -1.
    3000001    1    5    5    0    0  0.85351889927E+01  0.20513528801E+02  0.57741362934E+01  0.22978141025E+02  0.10000000000E+01 0.  1.
        -13    1    6    6    0    0  0.51516255084E+01  0.11944918458E+02 -0.10027925273E+01  0.13047487888E+02  0.10500000000E+00 0.  1.
         13    1    6    6    0    0  0.10562638374E+02  0.24199366163E+02 -0.19242107729E+01  0.26474369949E+02  0.10500000000E+00 0. -1.
</event>
<event>
11    0  0.3396091E-009  0.9118800E+02  0.7816531E-02  0.1126479E+00
         25   -1    0    0    0    0  0.00000000000E+00  0.00000000000E+00  0.99999998245E-14  0.12500000000E+03  0.12500000000E+03 0.  0.
    3000001    1    3    3    0    0  0.43425526673E+01 -0.44080954135E+01 -0.43417625345E+01  0.76249570982E+01  0.10000000000E+01 0. -1.
    1000022    2    1    0    0    0  0.52741325222E+02 -0.20445977328E+02 -0.24628533162E+02  0.62500000684E+02  0.10000003233E+02 0.  0.
    3000022    2    3    3    0    0  0.48398772555E+02 -0.16037881915E+02 -0.20286770627E+02  0.54875043585E+02  0.25000980429E+00 0.  0.
    1000022    2    1    0    0    0 -0.52741325222E+02  0.20445977328E+02  0.24628533162E+02  0.62499999316E+02  0.99999946886E+01 0.  0.
    3000022    2    5    5    0    0 -0.48479720802E+02  0.20543552744E+02  0.24611535711E+02  0.58121519888E+02  0.24999133100E+00 0.  0.
        -13    1    4    4    0    0  0.22819190767E+02 -0.74910971474E+01 -0.95469401145E+01  0.25845446297E+02  0.10500000000E+00 0.  1.
         13    1    4    4    0    0  0.25579581788E+02 -0.85467847674E+01 -0.10739830513E+02  0.29029597289E+02  0.10500000000E+00 0. -1.
    3000001    1    5    5    0    0 -0.42616044198E+01 -0.97575415324E-01  0.16997451274E-01  0.43784794285E+01  0.10000000000E+01 0. -1.
        -13    1    6    6    0    0 -0.14390739939E+02  0.61445121061E+01  0.72984010742E+01  0.17266328743E+02  0.10500000000E+00 0.  1.
         13    1    6    6    0    0 -0.34088980863E+02  0.14399040637E+02  0.17313134636E+02  0.40855191145E+02  0.10500000000E+00 0. -1.
</event>
<event>
11    0  0.3396091E-009  0.9118800E+02  0.7816531E-02  0.1126479E+00
         25   -1    0    0    0    0  0.00000000000E+00  0.00000000000E+00  0.99999998245E-14  0.12500000000E+03  0.12500000000E+03 0.  0.
    3000001    1    3    3    0    0  0.28303949057E+02  0.11859562968E+02 -0.15305457505E+02  0.34307722096E+02  0.10000000000E+01 0.  1.
    1000022    2    1    0    0    0  0.54988521677E+02  0.19767951947E+02 -0.19792439294E+02  0.62500000105E+02  0.99999959717E+01 0.  0.
    3000022    2    3    3    0    0  0.26684572621E+02  0.79083889795E+01 -0.44869817888E+01  0.28192278008E+02  0.25000306864E+00 0.  0.
    1000022    2    1    0    0    0 -0.54988521677E+02 -0.19767951947E+02  0.19792439294E+02  0.62499999895E+02  0.99999946623E+01 0.  0.
    3000022    2    5    5    0    0 -0.48770402821E+02 -0.13998422425E+02  0.17113691163E+02  0.53548566235E+02  0.24999788889E+00 0.  0.
        -13    1    4    4    0    0  0.18330878645E+02  0.54110859785E+01 -0.30360291488E+01  0.19352763662E+02  0.10500000000E+00 0. -1.
         13    1    4    4    0    0  0.83536939760E+01  0.24973030009E+01 -0.14509526400E+01  0.88395143467E+01  0.10500000000E+00 0.  1.
    3000001    1    5    5    0    0 -0.62181188568E+01 -0.57695295218E+01  0.26787481308E+01  0.89514336599E+01  0.10000000000E+01 0. -1.
        -13    1    6    6    0    0 -0.18551145889E+02 -0.52689393656E+01  0.65349309531E+01  0.20362295631E+02  0.10500000000E+00 0. -1.
         13    1    6    6    0    0 -0.30219256932E+02 -0.87294830597E+01  0.10578760210E+02  0.33186270604E+02  0.10500000000E+00 0.  1.
</event>
<event>
11    0  0.3396091E-009  0.9118800E+02  0.7816531E-02  0.1126479E+00
         25   -1    0    0    0    0  0.00000000000E+00  0.00000000000E+00  0.99999998245E-14  0.12500000000E+03  0.12500000000E+03 0.  0.
    3000001    1    3    3    0    0  0.10576775641E+02 -0.95677474582E+01  0.49151250032E+01  0.15118479691E+02  0.10000000000E+01 0.  1.
    1000022    2    1    0    0    0  0.53724791078E+02 -0.27187933767E+02  0.13442955279E+02  0.62500001322E+02  0.10000009988E+02 0.  0.
    3000022    2    3    3    0    0  0.43148015437E+02 -0.17620186308E+02  0.85278302760E+01  0.47381521630E+02  0.25000226981E+00 0.  0.
    1000022    2    1    0    0    0 -0.53724791078E+02  0.27187933767E+02 -0.13442955279E+02  0.62499998678E+02  0.99999934657E+01 0.  0.
    3000022    2    5    5    0    0 -0.13485578537E+02  0.65281794544E+01 -0.78361019124E+01  0.16909906785E+02  0.24999767979E+00 0.  0.
        -13    1    4    4    0    0  0.18009564729E+02 -0.74209217557E+01  0.35843181623E+01  0.19805879509E+02  0.10500000000E+00 0. -1.
         13    1    4    4    0    0  0.25138450708E+02 -0.10199264553E+02  0.49435121136E+01  0.27575642121E+02  0.10500000000E+00 0.  1.
    3000001    1    5    5    0    0 -0.40239212541E+02  0.20659754312E+02 -0.56068533668E+01  0.45590091893E+02  0.10000000000E+01 0.  1.
        -13    1    6    6    0    0 -0.85874425214E+01  0.41352818469E+01 -0.49222729968E+01  0.10727745405E+02  0.10500000000E+00 0.  1.
         13    1    6    6    0    0 -0.48981360152E+01  0.23928976075E+01 -0.29138289156E+01  0.61821613804E+01  0.10500000000E+00 0. -1.
</event>
<event>
11    0  0.3396091E-009  0.9118800E+02  0.7816531E-02  0.1126479E+00
         25   -1    0    0    0    0  0.00000000000E+00  0.00000000000E+00  0.99999998245E-14  0.12500000000E+03  0.12500000000E+03 0.  0.
    3000001    1    3    3    0    0  0.69571342352E+01 -0.22967647056E+01 -0.31305358099E+01  0.80297633425E+01  0.10000000000E+01 0.  1.
    1000022    2    1    0    0    0  0.52976442143E+02 -0.31436046926E+02 -0.33943232854E+01  0.62499998880E+02  0.99999980519E+01 0.  0.
    3000022    2    3    3    0    0  0.46019307908E+02 -0.29139282220E+02 -0.26378747548E+00  0.54470235538E+02  0.25001421053E+00 0.  0.
    1000022    2    1    0    0    0 -0.52976442143E+02  0.31436046926E+02  0.33943232854E+01  0.62500001120E+02  0.10000012049E+02 0.  0.
    3000022    2    5    5    0    0 -0.75138497421E+01  0.53122345365E+01 -0.29681838835E+01  0.96721450303E+01  0.25000040380E+00 0.  0.
        -13    1    4    4    0    0  0.14810363269E+02 -0.94370491555E+01 -0.73599566387E-01  0.17561924690E+02  0.10500000000E+00 0.  1.
         13    1    4    4    0    0  0.31208944639E+02 -0.19702233065E+02 -0.19018790909E+00  0.36908310848E+02  0.10500000000E+00 0. -1.
    3000001    1    5    5    0    0 -0.45462592401E+02  0.26123812389E+02  0.63625071689E+01  0.52827856089E+02  0.10000000000E+01 0. -1.
        -13    1    6    6    0    0 -0.19463740318E+01  0.14101503680E+01 -0.75868458864E+00  0.25226024730E+01  0.10500000000E+00 0.  1.
         13    1    6    6    0    0 -0.55674757103E+01  0.39020841685E+01 -0.22094992949E+01  0.71495425572E+01  0.10500000000E+00 0. -1.
</event>
<event>
11    0  0.3396091E-009  0.9118800E+02  0.7816531E-02  0.1126479E+00
         25   -1    0    0    0    0  0.00000000000E+00  0.00000000000E+00  0.99999998245E-14  0.12500000000E+03  0.12500000000E+03 0.  0.
    3000001    1    3    3    0    0 -0.19766851192E+02  0.17340076779E+02  0.54149307538E+02  0.60204270410E+02  0.10000000000E+01 0.  1.
    1000022    2    1    0    0    0 -0.19810544451E+02  0.19409894319E+02  0.55109422007E+02  0.62499999498E+02  0.99999937167E+01 0.  0.
    3000022    2    3    3    0    0 -0.43693258680E-01  0.20698175396E+01  0.96011446956E+00  0.22957290879E+01  0.24999700502E+00 0.  0.
    1000022    2    1    0    0    0  0.19810544451E+02 -0.19409894319E+02 -0.55109422007E+02  0.62500000502E+02  0.99999999963E+01 0.  0.
    3000022    2    5    5    0    0  0.14032271928E+02 -0.84227958979E+01 -0.24613031535E+02  0.29558619279E+02  0.25001229015E+00 0.  0.
        -13    1    4    4    0    0 -0.13520760720E-01  0.15400404103E+01  0.68439299211E+00  0.16885869963E+01  0.10500000000E+00 0. -1.
         13    1    4    4    0    0 -0.30172497960E-01  0.52977712929E+00  0.27572147745E+00  0.60714209167E+00  0.10500000000E+00 0.  1.
    3000001    1    5    5    0    0  0.57782725225E+01 -0.10987098421E+02 -0.30496390472E+02  0.32941381223E+02  0.10000000000E+01 0.  1.
        -13    1    6    6    0    0  0.71601718233E+01 -0.42872507515E+01 -0.12672207879E+02  0.15173808259E+02  0.10500000000E+00 0.  1.
         13    1    6    6    0    0  0.68721001050E+01 -0.41355451465E+01 -0.11940823656E+02  0.14384811020E+02  0.10500000000E+00 0. -1.
</event>
<event>
11    0  0.3396091E-009  0.9118800E+02  0.7816531E-02  0.1126479E+00
         25   -1    0    0    0    0  0.00000000000E+00  0.00000000000E+00  0.99999998245E-14  0.12500000000E+03  0.12500000000E+03 0.  0.
    3000001    1    3    3    0    0 -0.19565262150E+02 -0.32762885845E+02 -0.16413654371E+02  0.41552547716E+02  0.10000000000E+01 0.  1.
    1000022    2    1    0    0    0 -0.33057500183E+02 -0.44082772082E+02 -0.27751773046E+02  0.62500000569E+02  0.10000002561E+02 0.  0.
    3000022    2    3    3    0    0 -0.13492238033E+02 -0.11319886237E+02 -0.11338118675E+02  0.20947452854E+02  0.25006878930E+00 0.  0.
    1000022    2    1    0    0    0  0.33057500183E+02  0.44082772082E+02  0.27751773046E+02  0.62499999431E+02  0.99999954443E+01 0.  0.
    3000022    2    5    5    0    0  0.19770273883E+02  0.33450003785E+02  0.17576186015E+02  0.42646820445E+02  0.24999327620E+00 0.  0.
        -13    1    4    4    0    0 -0.46852261659E+01 -0.38590843935E+01 -0.38975449878E+01  0.72142746353E+01  0.10500000000E+00 0.  1.
         13    1    4    4    0    0 -0.88070118674E+01 -0.74608018432E+01 -0.74405736873E+01  0.13733178218E+02  0.10500000000E+00 0. -1.
    3000001    1    5    5    0    0  0.13287226301E+02  0.10632768297E+02  0.10175587030E+02  0.19853178985E+02  0.10000000000E+01 0.  1.
        -13    1    6    6    0    0  0.12128683904E+02  0.20596612525E+02  0.10759542614E+02  0.26212672565E+02  0.10500000000E+00 0.  1.
         13    1    6    6    0    0  0.76415899789E+01  0.12853391260E+02  0.68166434018E+01  0.16434147880E+02  0.10500000000E+00 0. -1.
</event>
<event>
11    0  0.3396091E-009  0.9118800E+02  0.7816531E-02  0.1126479E+00
         25   -1    0    0    0    0  0.00000000000E+00  0.00000000000E+00  0.99999998245E-14  0.12500000000E+03  0.12500000000E+03 0.  0.
    3000001    1    3    3    0    0  0.55665030071E+00  0.14807528121E+01  0.18036849007E+00  0.18801652161E+01  0.10000000000E+01 0. -1.
    1000022    2    1    0    0    0  0.56960684152E+02  0.23416816890E+02  0.36582775835E+01  0.62499999339E+02  0.10000003510E+02 0.  0.
    3000022    2    3    3    0    0  0.56404033852E+02  0.21936064078E+02  0.34779090934E+01  0.60619834123E+02  0.24999101800E+00 0.  0.
    1000022    2    1    0    0    0 -0.56960684152E+02 -0.23416816890E+02 -0.36582775835E+01  0.62500000661E+02  0.10000011767E+02 0.  0.
    3000022    2    5    5    0    0 -0.11290964240E+02 -0.50280880709E+01  0.32304143453E+01  0.12777543552E+02  0.24999851611E+00 0.  0.
        -13    1    4    4    0    0  0.25989378486E+02  0.10097120505E+02  0.16688139643E+01  0.27931981699E+02  0.10500000000E+00 0.  1.
         13    1    4    4    0    0  0.30414655366E+02  0.11838943573E+02  0.18090951291E+01  0.32687852424E+02  0.10500000000E+00 0. -1.
    3000001    1    5    5    0    0 -0.45669719912E+02 -0.18388728819E+02 -0.68886919288E+01  0.49722457108E+02  0.10000000000E+01 0. -1.
        -13    1    6    6    0    0 -0.59432352988E+01 -0.27129821692E+01  0.16768229896E+01  0.67457452076E+01  0.10500000000E+00 0.  1.
         13    1    6    6    0    0 -0.53477289416E+01 -0.23151059017E+01  0.15535913557E+01  0.60317983446E+01  0.10500000000E+00 0. -1.
</event>
<event>
11    0  0.3396091E-009  0.9118800E+02  0.7816531E-02  0.1126479E+00
         25   -1    0    0    0    0  0.00000000000E+00  0.00000000000E+00  0.99999998245E-14  0.12500000000E+03  0.12500000000E+03 0.  0.
    3000001    1    3    3    0    0  0.22638361622E+02 -0.46907081435E+02 -0.77569630434E+01  0.52668208451E+02  0.10000000000E+01 0. -1.
    1000022    2    1    0    0    0  0.22963173185E+02 -0.56730282224E+02 -0.77857327310E+01  0.62499999089E+02  0.10000000402E+02 0.  0.
    3000022    2    3    3    0    0  0.32481156282E+00 -0.98232007886E+01 -0.28769687634E-01  0.98317906387E+01  0.25000636764E+00 0.  0.
    1000022    2    1    0    0    0 -0.22963173185E+02  0.56730282224E+02  0.77857327310E+01  0.62500000911E+02  0.10000011787E+02 0.  0.
    3000022    2    5    5    0    0 -0.12755226722E+02  0.34347804715E+02  0.93979582576E+01  0.37826599411E+02  0.25001218308E+00 0.  0.
        -13    1    4    4    0    0  0.58858697118E-01 -0.30213183629E+01 -0.33379773710E-01  0.30238995032E+01  0.10500000000E+00 0.  1.
         13    1    4    4    0    0  0.26595286570E+00 -0.68018824258E+01  0.46100860756E-02  0.68078911356E+01  0.10500000000E+00 0. -1.
    3000001    1    5    5    0    0 -0.10207946463E+02  0.22382477509E+02 -0.16122255266E+01  0.24673401500E+02  0.10000000000E+01 0. -1.
        -13    1    6    6    0    0 -0.47200361550E+01  0.12701748867E+02  0.35370546190E+01  0.14004818669E+02  0.10500000000E+00 0.  1.
         13    1    6    6    0    0 -0.80351905674E+01  0.21646055849E+02  0.58609036386E+01  0.23821780742E+02  0.10500000000E+00 0. -1.
</event>
<event>
11    0  0.3396091E-009  0.9118800E+02  0.7816531E-02  0.1126479E+00
         25   -1    0    0    0    0  0.00000000000E+00  0.00000000000E+00  0.99999998245E-14  0.12500000000E+03  0.12500000000E+03 0.  0.
    3000001    1    3    3    0    0  0.22416028095E+02  0.17635022947E+02 -0.36336771926E+02  0.46204256772E+02  0.10000000000E+01 0.  1.
    1000022    2    1    0    0    0  0.31955829055E+02  0.27648293210E+02 -0.44951605850E+02  0.62500000001E+02  0.10000000178E+02 0.  0.
    3000022    2    3    3    0    0  0.95398009594E+01  0.10013270264E+02 -0.86148339247E+01  0.16295743228E+02  0.25000020594E+00 0.  0.
    1000022    2    1    0    0    0 -0.31955829055E+02 -0.27648293210E+02  0.44951605850E+02  0.62499999999E+02  0.10000000167E+02 0.  0.
    3000022    2    5    5    0    0 -0.16454187116E+01 -0.19523790572E+01  0.73451547175E+01  0.77802947171E+01  0.25000268302E+00 0.  0.
        -13    1    4    4    0    0  0.61602296140E+01  0.65464468035E+01 -0.55862692554E+01  0.10584036274E+02  0.10500000000E+00 0.  1.
         13    1    4    4    0    0  0.33795713453E+01  0.34668234600E+01 -0.30285646694E+01  0.57117069548E+01  0.10500000000E+00 0. -1.
    3000001    1    5    5    0    0 -0.30310410343E+02 -0.25695914153E+02  0.37606451133E+02  0.54719705282E+02  0.10000000000E+01 0.  1.
        -13    1    6    6    0    0 -0.78556419366E+00 -0.83131149636E+00  0.33324405652E+01  0.35248226944E+01  0.10500000000E+00 0.  1.
         13    1    6    6    0    0 -0.85985451797E+00 -0.11210675608E+01  0.40127141523E+01  0.42554720227E+01  0.10500000000E+00 0. -1.
</event>
<event>
11    0  0.3396091E-009  0.9118800E+02  0.7816531E-02  0.1126479E+00
         25   -1    0    0    0    0  0.00000000000E+00  0.00000000000E+00  0.99999998245E-14  0.12500000000E+03  0.12500000000E+03 0.  0.
    3000001    1    3    3    0    0  0.76637127384E+01  0.53642188641E+01  0.20724796469E+02  0.22760152144E+02  0.10000000000E+01 0.  1.
    1000022    2    1    0    0    0  0.28535871996E+02  0.22653371241E+02  0.49787335357E+02  0.62499999788E+02  0.99999996205E+01 0.  0.
    3000022    2    3    3    0    0  0.20872159257E+02  0.17289152376E+02  0.29062538889E+02  0.39739847644E+02  0.25000429516E+00 0.  0.
    1000022    2    1    0    0    0 -0.28535871996E+02 -0.22653371241E+02 -0.49787335357E+02  0.62500000212E+02  0.10000002269E+02 0.  0.
    3000022    2    5    5    0    0 -0.16851241445E+01  0.11411066480E+00 -0.63699864667E+01  0.65948387582E+01  0.25001206757E+00 0.  0.
        -13    1    4    4    0    0  0.15407778968E+02  0.12751769380E+02  0.21399623290E+02  0.29290991397E+02  0.10500000000E+00 0. -1.
         13    1    4    4    0    0  0.54643802889E+01  0.45373829963E+01  0.76629155990E+01  0.10448856247E+02  0.10500000000E+00 0.  1.
    3000001    1    5    5    0    0 -0.26850747851E+02 -0.22767481905E+02 -0.43417348891E+02  0.55905161454E+02  0.10000000000E+01 0. -1.
        -13    1    6    6    0    0 -0.11821185332E+01  0.12529134303E+00 -0.44753769615E+01  0.46317519465E+01  0.10500000000E+00 0. -1.
         13    1    6    6    0    0 -0.50300561140E+00 -0.11180678234E-01 -0.18946095052E+01  0.19630868116E+01  0.10500000000E+00 0.  1.
</event>
<event>
11    0  0.3396091E-009  0.9118800E+02  0.7816531E-02  0.1126479E+00
         25   -1    0    0    0    0  0.00000000000E+00  0.00000000000E+00  0.99999998245E-14  0.12500000000E+03  0.12500000000E+03 0.  0.
    3000001    1    3    3    0    0 -0.38367833469E+01  0.20630866931E+01  0.43634790946E+01  0.62463735850E+01  0.10000000000E+01 0.  1.
    1000022    2    1    0    0    0 -0.21405963576E+02  0.27127543850E+01  0.57798575405E+02  0.62499997303E+02  0.10000001555E+02 0.  0.
    3000022    2    3    3    0    0 -0.17569180229E+02  0.64966769194E+00  0.53435096310E+02  0.56253623718E+02  0.25000341291E+00 0.  0.
    1000022    2    1    0    0    0  0.21405963576E+02 -0.27127543850E+01 -0.57798575405E+02  0.62500002697E+02  0.10000035265E+02 0.  0.
    3000022    2    5    5    0    0  0.68263130621E+00 -0.29389618182E+01 -0.78223957779E+01  0.83878395515E+01  0.24998913289E+00 0.  0.
        -13    1    4    4    0    0 -0.13328378900E+02  0.51332426242E+00  0.40539610459E+02  0.42677631460E+02  0.10500000000E+00 0.  1.
         13    1    4    4    0    0 -0.42408013287E+01  0.13634342952E+00  0.12895485852E+02  0.13575992258E+02  0.10500000000E+00 0. -1.
    3000001    1    5    5    0    0  0.20723332270E+02  0.22620743322E+00 -0.49976179627E+02  0.54112163145E+02  0.10000000000E+01 0. -1.
        -13    1    6    6    0    0  0.17206619784E+00 -0.92013618070E+00 -0.23608905678E+01  0.25418667630E+01  0.10500000000E+00 0. -1.
         13    1    6    6    0    0  0.51056510837E+00 -0.20188256375E+01 -0.54615052101E+01  0.58459727886E+01  0.10500000000E+00 0.  1.
</event>
<event>
11    0  0.3396091E-009  0.9118800E+02  0.7816531E-02  0.1126479E+00
         25   -1    0    0    0    0  0.00000000000E+00  0.00000000000E+00  0.99999998245E-14  0.12500000000E+03  0.12500000000E+03 0.  0.
    3000001    1    3    3    0    0  0.13959159306E+02 -0.11415561790E+02  0.89801701220E+01  0.20169695956E+02  0.10000000000E+01 0. -1.
    1000022    2    1    0    0    0  0.51509884693E+02 -0.28502092134E+02  0.18455692702E+02  0.62499998623E+02  0.99999878857E+01 0.  0.
    3000022    2    3    3    0    0  0.37550725387E+02 -0.17086530343E+02  0.94755225797E+01  0.42330302668E+02  0.24999903427E+00 0.  0.
    1000022    2    1    0    0    0 -0.51509884693E+02  0.28502092134E+02 -0.18455692702E+02  0.62500001377E+02  0.10000005095E+02 0.  0.
    3000022    2    5    5    0    0 -0.46809145292E+02  0.28339031041E+02 -0.18264416465E+02  0.57687504474E+02  0.25000075784E+00 0.  0.
        -13    1    4    4    0    0  0.27061967518E+02 -0.12348246932E+02  0.68564499360E+01  0.30526238205E+02  0.10500000000E+00 0. -1.
         13    1    4    4    0    0  0.10488757869E+02 -0.47382834111E+01  0.26190726437E+01  0.11804064462E+02  0.10500000000E+00 0.  1.
    3000001    1    5    5    0    0 -0.47007394012E+01  0.16306109308E+00 -0.19127623683E+00  0.48124969025E+01  0.10000000000E+01 0. -1.
        -13    1    6    6    0    0 -0.17613318713E+02  0.10595017189E+02 -0.68454022716E+01  0.21664578062E+02  0.10500000000E+00 0. -1.
         13    1    6    6    0    0 -0.29195826579E+02  0.17744013851E+02 -0.11419014193E+02  0.36022926412E+02  0.10500000000E+00 0.  1.
</event>
<event>
11    0  0.3396091E-009  0.9118800E+02  0.7816531E-02  0.1126479E+00
         25   -1    0    0    0    0  0.00000000000E+00  0.00000000000E+00  0.99999998245E-14  0.12500000000E+03  0.12500000000E+03 0.  0.
    3000001    1    3    3    0    0  0.22565340243E+02  0.57131286614E+01  0.31442164264E+02  0.39133669812E+02  0.10000000000E+01 0.  1.
    1000022    2    1    0    0    0  0.36894703264E+02  0.15551072253E+01  0.49422795206E+02  0.62499999812E+02  0.99999901542E+01 0.  0.
    3000022    2    3    3    0    0  0.14329363021E+02 -0.41580214361E+01  0.17980630942E+02  0.23366329999E+02  0.25000343622E+00 0.  0.
    1000022    2    1    0    0    0 -0.36894703264E+02 -0.15551072253E+01 -0.49422795206E+02  0.62500000188E+02  0.99999925101E+01 0.  0.
    3000022    2    5    5    0    0  0.11977016995E+00  0.29023845041E+00 -0.32989181936E+01  0.33232431391E+01  0.25000092448E+00 0.  0.
        -13    1    4    4    0    0  0.33451471301E+01 -0.96649355013E+00  0.41787963714E+01  0.54403569018E+01  0.10500000000E+00 0.  1.
         13    1    4    4    0    0  0.10984215891E+02 -0.31915278859E+01  0.13801834571E+02  0.17925973098E+02  0.10500000000E+00 0. -1.
    3000001    1    5    5    0    0 -0.37014473433E+02 -0.18453456757E+01 -0.46123877012E+02  0.59176757049E+02  0.10000000000E+01 0.  1.
        -13    1    6    6    0    0 -0.64655948739E-02  0.15015578440E+00 -0.13442682027E+01  0.13567131474E+01  0.10500000000E+00 0.  1.
         13    1    6    6    0    0  0.12623576482E+00  0.14008266602E+00 -0.19546499909E+01  0.19665299917E+01  0.10500000000E+00 0. -1.
</event>
<event>
11    0  0.3396091E-009  0.9118800E+02  0.7816531E-02  0.1126479E+00
         25   -1    0    0    0    0  0.00000000000E+00  0.00000000000E+00  0.99999998245E-14  0.12500000000E+03  0.12500000000E+03 0.  0.
    3000001    1    3    3    0    0  0.14378704571E+02  0.68225115353E+01 -0.53267348543E+00  0.15955486512E+02  0.10000000000E+01 0.  1.
    1000022    2    1    0    0    0  0.55897155060E+02  0.22054474156E+02  0.13977108006E+02  0.62499989072E+02  0.99998655808E+01 0.  0.
    3000022    2    3    3    0    0  0.41518450489E+02  0.15231962621E+02  0.14509781491E+02  0.46544502560E+02  0.25008660981E+00 0.  0.
    1000022    2    1    0    0    0 -0.55897155060E+02 -0.22054474156E+02 -0.13977108006E+02  0.62500010928E+02  0.10000002183E+02 0.  0.
    3000022    2    5    5    0    0 -0.20178407433E+02 -0.67188848419E+01 -0.27175377847E+00  0.21270822649E+02  0.25001196155E+00 0.  0.
        -13    1    4    4    0    0  0.16135637500E+02  0.59831442062E+01  0.56643806045E+01  0.18117754959E+02  0.10500000000E+00 0.  1.
         13    1    4    4    0    0  0.25382812989E+02  0.92488184147E+01  0.88454008868E+01  0.28426747601E+02  0.10500000000E+00 0. -1.
    3000001    1    5    5    0    0 -0.35718747627E+02 -0.15335589314E+02 -0.13705354227E+02  0.41229188279E+02  0.10000000000E+01 0. -1.
        -13    1    6    6    0    0 -0.61810964599E+01 -0.20750510620E+01 -0.12811093152E+00  0.65222103437E+01  0.10500000000E+00 0. -1.
         13    1    6    6    0    0 -0.13997310973E+02 -0.46438337800E+01 -0.14364284695E+00  0.14748612305E+02  0.10500000000E+00 0.  1.
</event>
<event>
11    0  0.3396091E-009  0.9118800E+02  0.7816531E-02  0.1126479E+00
         25   -1    0    0    0    0  0.00000000000E+00  0.00000000000E+00  0.99999998245E-14  0.12500000000E+03  0.12500000000E+03 0.  0.
    3000001    1    3    3    0    0 -0.10742552615E+02 -0.38818250347E+02 -0.39439835217E+01  0.40482267756E+02  0.10000000000E+01 0. -1.
    1000022    2    1    0    0    0 -0.14838373917E+02 -0.58448618417E+02 -0.13031938665E+02  0.62499999824E+02  0.10000010865E+02 0.  0.
    3000022    2    3    3    0    0 -0.40958213026E+01 -0.19630368070E+02 -0.90879551433E+01  0.22017732068E+02  0.24998804382E+00 0.  0.
    1000022    2    1    0    0    0  0.14838373917E+02  0.58448618417E+02  0.13031938665E+02  0.62500000176E+02  0.10000013061E+02 0.  0.
    3000022    2    5    5    0    0  0.11577288692E+02  0.28206808573E+02  0.90566294614E+01  0.31807903103E+02  0.24999849367E+00 0.  0.
        -13    1    4    4    0    0 -0.20113977694E+01 -0.97790798605E+01 -0.44569638666E+01  0.10933968896E+02  0.10500000000E+00 0. -1.
         13    1    4    4    0    0 -0.20844235332E+01 -0.98512882094E+01 -0.46309912767E+01  0.11083763172E+02  0.10500000000E+00 0.  1.
    3000001    1    5    5    0    0  0.32610852254E+01  0.30241809844E+02  0.39753092036E+01  0.30692097073E+02  0.10000000000E+01 0. -1.
        -13    1    6    6    0    0  0.61558909424E+01  0.14828211402E+02  0.47482451646E+01  0.16742989692E+02  0.10500000000E+00 0. -1.
         13    1    6    6    0    0  0.54213977493E+01  0.13378597171E+02  0.43083842968E+01  0.15064913411E+02  0.10500000000E+00 0.  1.
</event>
<event>
11    0  0.3396091E-009  0.9118800E+02  0.7816531E-02  0.1126479E+00
         25   -1    0    0    0    0  0.00000000000E+00  0.00000000000E+00  0.99999998245E-14  0.12500000000E+03  0.12500000000E+03 0.  0.
    3000001    1    3    3    0    0 -0.56665321720E+00  0.82100110835E+00 -0.46743620345E+01  0.48831136704E+01  0.10000000000E+01 0. -1.
    1000022    2    1    0    0    0  0.17435185855E+02  0.29188073240E+02 -0.51481265672E+02  0.62500001055E+02  0.10000004570E+02 0.  0.
    3000022    2    3    3    0    0  0.18001839072E+02  0.28367072132E+02 -0.46806903638E+02  0.57616887385E+02  0.24998487637E+00 0.  0.
    1000022    2    1    0    0    0 -0.17435185855E+02 -0.29188073240E+02  0.51481265672E+02  0.62499998945E+02  0.99999913816E+01 0.  0.
    3000022    2    5    5    0    0 -0.17776598320E+02 -0.28069448997E+02  0.45601222637E+02  0.56421940969E+02  0.25000361745E+00 0.  0.
        -13    1    4    4    0    0  0.12098700914E+02  0.19016078021E+02 -0.31321729760E+02  0.38588230943E+02  0.10500000000E+00 0. -1.
         13    1    4    4    0    0  0.59031381574E+01  0.93509941108E+01 -0.15485173878E+02  0.19028656442E+02  0.10500000000E+00 0.  1.
    3000001    1    5    5    0    0  0.34141246589E+00 -0.11186242431E+01  0.58800430348E+01  0.60780579760E+01  0.10000000000E+01 0.  1.
        -13    1    6    6    0    0 -0.80635650555E+01 -0.12611362950E+02  0.20517857991E+02  0.25398052650E+02  0.10500000000E+00 0. -1.
         13    1    6    6    0    0 -0.97130332650E+01 -0.15458086047E+02  0.25083364647E+02  0.31023888319E+02  0.10500000000E+00 0.  1.
</event>
<event>
11    0  0.3396091E-009  0.9118800E+02  0.7816531E-02  0.1126479E+00
         25   -1    0    0    0    0  0.00000000000E+00  0.00000000000E+00  0.99999998245E-14  0.12500000000E+03  0.12500000000E+03 0.  0.
    3000001    1    3    3    0    0 -0.34356031750E+00 -0.53288672835E+01 -0.37082442164E+00  0.54453990642E+01  0.10000000000E+01 0. -1.
    1000022    2    1    0    0    0  0.16171216767E+02 -0.53640762821E+02 -0.25834286740E+02  0.62500000317E+02  0.99999990269E+01 0.  0.
    3000022    2    3    3    0    0  0.16514777084E+02 -0.48311895538E+02 -0.25463462319E+02  0.57054601253E+02  0.24999663813E+00 0.  0.
    1000022    2    1    0    0    0 -0.16171216767E+02  0.53640762821E+02  0.25834286740E+02  0.62499999683E+02  0.99999950583E+01 0.  0.
    3000022    2    5    5    0    0 -0.25309996573E+01  0.16916021313E+01  0.24320976057E+01  0.39044940914E+01  0.24999662044E+00 0.  0.
        -13    1    4    4    0    0  0.87829980553E+01 -0.25692916311E+02 -0.13466564301E+02  0.30308849904E+02  0.10500000000E+00 0. -1.
         13    1    4    4    0    0  0.77317790288E+01 -0.22618979227E+02 -0.11996898018E+02  0.26745751349E+02  0.10500000000E+00 0.  1.
    3000001    1    5    5    0    0 -0.13640217109E+02  0.51949160690E+02  0.23402189135E+02  0.58595505591E+02  0.10000000000E+01 0.  1.
        -13    1    6    6    0    0 -0.97146734211E+00  0.59272881164E+00  0.95821014755E+00  0.14913979777E+01  0.10500000000E+00 0.  1.
         13    1    6    6    0    0 -0.15595323152E+01  0.10988733197E+01  0.14738874581E+01  0.24130961137E+01  0.10500000000E+00 0. -1.
</event>
<event>
11    0  0.3396091E-009  0.9118800E+02  0.7816531E-02  0.1126479E+00
         25   -1    0    0    0    0  0.00000000000E+00  0.00000000000E+00  0.99999998245E-14  0.12500000000E+03  0.12500000000E+03 0.  0.
    3000001    1    3    3    0    0 -0.21343130348E+02 -0.21150345661E+02 -0.29008272479E+02  0.41777340830E+02  0.10000000000E+01 0. -1.
    1000022    2    1    0    0    0 -0.33604953428E+02 -0.25115749561E+02 -0.45234465505E+02  0.62499999231E+02  0.99999631744E+01 0.  0.
    3000022    2    3    3    0    0 -0.12261823080E+02 -0.39654038998E+01 -0.16226193026E+02  0.20722658401E+02  0.24999550639E+00 0.  0.
    1000022    2    1    0    0    0  0.33604953428E+02  0.25115749561E+02  0.45234465505E+02  0.62500000769E+02  0.99999727834E+01 0.  0.
    3000022    2    5    5    0    0  0.28808254918E+02  0.25115927614E+02  0.39688460439E+02  0.55099562348E+02  0.25001511110E+00 0.  0.
        -13    1    4    4    0    0 -0.56261403438E+01 -0.18668943939E+01 -0.73839686562E+01  0.94695706324E+01  0.10500000000E+00 0.  1.
         13    1    4    4    0    0 -0.66356827367E+01 -0.20985095059E+01 -0.88422243698E+01  0.11253087769E+02  0.10500000000E+00 0. -1.
    3000001    1    5    5    0    0  0.47966985105E+01 -0.17805369214E-03  0.55460050655E+01  0.74004384207E+01  0.10000000000E+01 0. -1.
        -13    1    6    6    0    0  0.79188756831E+01  0.68574311262E+01  0.10858764887E+02  0.15088298566E+02  0.10500000000E+00 0. -1.
         13    1    6    6    0    0  0.20889379235E+02  0.18258496488E+02  0.28829695552E+02  0.40011263782E+02  0.10500000000E+00 0.  1.
</event>
<event>
11    0  0.3396091E-009  0.9118800E+02  0.7816531E-02  0.1126479E+00
         25   -1    0    0    0    0  0.00000000000E+00  0.00000000000E+00  0.99999998245E-14  0.12500000000E+03  0.12500000000E+03 0.  0.
    3000001    1    3    3    0    0 -0.49654277623E+01 -0.40817534503E+02  0.32695184422E+01  0.41260348358E+02  0.10000000000E+01 0. -1.
    1000022    2    1    0    0    0 -0.12983523266E+02 -0.60309598147E+02  0.65609939729E+00  0.62500001457E+02  0.10000010531E+02 0.  0.
    3000022    2    3    3    0    0 -0.80180955041E+01 -0.19492063644E+02 -0.26134190449E+01  0.21239653099E+02  0.25000808786E+00 0.  0.
    1000022    2    1    0    0    0  0.12983523266E+02  0.60309598147E+02 -0.65609939729E+00  0.62499998543E+02  0.99999923167E+01 0.  0.
    3000022    2    5    5    0    0  0.52489527832E+01  0.14655758679E+02  0.36299181127E+01  0.15986918825E+02  0.25000045764E+00 0.  0.
        -13    1    4    4    0    0 -0.26810192644E+01 -0.63882090551E+01 -0.87778943336E+00  0.69841691358E+01  0.10500000000E+00 0. -1.
         13    1    4    4    0    0 -0.53370762398E+01 -0.13103854589E+02 -0.17356296116E+01  0.14255483963E+02  0.10500000000E+00 0.  1.
    3000001    1    5    5    0    0  0.77345704832E+01  0.45653839468E+02 -0.42860175100E+01  0.46513079718E+02  0.10000000000E+01 0.  1.
        -13    1    6    6    0    0  0.17990863927E+01  0.51068683779E+01  0.13125173748E+01  0.55723014398E+01  0.10500000000E+00 0. -1.
         13    1    6    6    0    0  0.34498663906E+01  0.95488903015E+01  0.23174007380E+01  0.10414617385E+02  0.10500000000E+00 0.  1.
</event>
<event>
11    0  0.3396091E-009  0.9118800E+02  0.7816531E-02  0.1126479E+00
         25   -1    0    0    0    0  0.00000000000E+00  0.00000000000E+00  0.99999998245E-14  0.12500000000E+03  0.12500000000E+03 0.  0.
    3000001    1    3    3    0    0 -0.57860112150E+01 -0.27492439942E+02 -0.33357449378E+02  0.43623750512E+02  0.10000000000E+01 0. -1.
    1000022    2    1    0    0    0 -0.24405669138E+01 -0.41378295518E+02 -0.45696061174E+02  0.62500001068E+02  0.10000020988E+02 0.  0.
    3000022    2    3    3    0    0  0.33454443011E+01 -0.13885855577E+02 -0.12338611796E+02  0.18876250555E+02  0.25002263452E+00 0.  0.
    1000022    2    1    0    0    0  0.24405669138E+01  0.41378295518E+02  0.45696061174E+02  0.62499998932E+02  0.10000007643E+02 0.  0.
    3000022    2    5    5    0    0 -0.32213050763E+01  0.93860260411E+01  0.13424193253E+02  0.16695680797E+02  0.25000307675E+00 0.  0.
        -13    1    4    4    0    0  0.78959422718E+00 -0.32305532300E+01 -0.28676517741E+01  0.43925374117E+01  0.10500000000E+00 0.  1.
         13    1    4    4    0    0  0.25558500740E+01 -0.10655302347E+02 -0.94709600218E+01  0.14483713144E+02  0.10500000000E+00 0. -1.
    3000001    1    5    5    0    0  0.56618719902E+01  0.31992269477E+02  0.32271867921E+02  0.45804318135E+02  0.10000000000E+01 0. -1.
        -13    1    6    6    0    0 -0.17794216586E+01  0.49889716536E+01  0.71273801184E+01  0.88806954655E+01  0.10500000000E+00 0.  1.
         13    1    6    6    0    0 -0.14418834178E+01  0.43970543875E+01  0.62968131348E+01  0.78149853315E+01  0.10500000000E+00 0. -1.
</event>
<event>
11    0  0.3396091E-009  0.9118800E+02  0.7816531E-02  0.1126479E+00
         25   -1    0    0    0    0  0.00000000000E+00  0.00000000000E+00  0.99999998245E-14  0.12500000000E+03  0.12500000000E+03 0.  0.
    3000001    1    3    3    0    0 -0.65192715255E+01  0.89600662733E+01  0.12866860327E+02  0.17009990697E+02  0.10000000000E+01 0. -1.
    1000022    2    1    0    0    0 -0.35780780534E+02  0.22317316855E+02  0.45032467560E+02  0.62499998861E+02  0.99999917972E+01 0.  0.
    3000022    2    3    3    0    0 -0.29261509008E+02  0.13357250582E+02  0.32165607233E+02  0.45490008164E+02  0.25000316995E+00 0.  0.
    1000022    2    1    0    0    0  0.35780780534E+02 -0.22317316855E+02 -0.45032467560E+02  0.62500001139E+02  0.10000006033E+02 0.  0.
    3000022    2    5    5    0    0  0.52542976277E+01 -0.70996238937E+01 -0.12845651903E+02  0.15591201967E+02  0.25000591355E+00 0.  0.
        -13    1    4    4    0    0 -0.14815153594E+02  0.67190512901E+01  0.16344970405E+02  0.23060865309E+02  0.10500000000E+00 0. -1.
         13    1    4    4    0    0 -0.14446355415E+02  0.66381992914E+01  0.15820636828E+02  0.22429142856E+02  0.10500000000E+00 0.  1.
    3000001    1    5    5    0    0  0.30526482906E+02 -0.15217692961E+02 -0.32186815656E+02  0.46908799172E+02  0.10000000000E+01 0. -1.
        -13    1    6    6    0    0  0.20258924680E+01 -0.28194810329E+01 -0.51183197914E+01  0.61856233375E+01  0.10500000000E+00 0. -1.
         13    1    6    6    0    0  0.32284051597E+01 -0.42801428609E+01 -0.77273321121E+01  0.94055786295E+01  0.10500000000E+00 0.  1.
</event>
<event>
11    0  0.3396091E-009  0.9118800E+02  0.7816531E-02  0.1126479E+00
         25   -1    0    0    0    0  0.00000000000E+00  0.00000000000E+00  0.99999998245E-14  0.12500000000E+03  0.12500000000E+03 0.  0.
    3000001    1    3    3    0    0 -0.27259923448E+00 -0.46037142713E+00 -0.11671594217E+01  0.16274253621E+01  0.10000000000E+01 0. -1.
    1000022    2    1    0    0    0 -0.42275167643E+02  0.18046745992E+02 -0.41150641852E+02  0.62500001426E+02  0.10000000662E+02 0.  0.
    3000022    2    3    3    0    0 -0.42002568409E+02  0.18507117419E+02 -0.39983482430E+02  0.60872576064E+02  0.25000257271E+00 0.  0.
    1000022    2    1    0    0    0  0.42275167643E+02 -0.18046745992E+02  0.41150641852E+02  0.62499998574E+02  0.99999828397E+01 0.  0.
    3000022    2    5    5    0    0  0.48102021220E+01 -0.52087192819E+01  0.37784546595E+01  0.80379113312E+01  0.24999588591E+00 0.  0.
        -13    1    4    4    0    0 -0.12976114758E+02  0.57699930477E+01 -0.12364521214E+02  0.18829890702E+02  0.10500000000E+00 0.  1.
         13    1    4    4    0    0 -0.29026453651E+02  0.12737124371E+02 -0.27618961216E+02  0.42042685362E+02  0.10500000000E+00 0. -1.
    3000001    1    5    5    0    0  0.37464965522E+02 -0.12838026710E+02  0.37372187192E+02  0.54462087243E+02  0.10000000000E+01 0. -1.
        -13    1    6    6    0    0  0.23339878216E+01 -0.24289456756E+01  0.18064521390E+01  0.38238162321E+01  0.10500000000E+00 0.  1.
         13    1    6    6    0    0  0.24762143004E+01 -0.27797736063E+01  0.19720025204E+01  0.42140950991E+01  0.10500000000E+00 0. -1.
</event>
<event>
11    0  0.3396091E-009  0.9118800E+02  0.7816531E-02  0.1126479E+00
         25   -1    0    0    0    0  0.00000000000E+00  0.00000000000E+00  0.99999998245E-14  0.12500000000E+03  0.12500000000E+03 0.  0.
    3000001    1    3    3    0    0  0.23069185685E+02  0.42751593423E+02 -0.22030049472E+01  0.48638866138E+02  0.10000000000E+01 0.  1.
    1000022    2    1    0    0    0  0.29426216547E+02  0.54171580825E+02  0.24057448231E+01  0.62500000256E+02  0.10000001725E+02 0.  0.
    3000022    2    3    3    0    0  0.63570308622E+01  0.11419987402E+02  0.46087497703E+01  0.13861134118E+02  0.25002190996E+00 0.  0.
    1000022    2    1    0    0    0 -0.29426216547E+02 -0.54171580825E+02 -0.24057448231E+01  0.62499999744E+02  0.99999985277E+01 0.  0.
    3000022    2    5    5    0    0 -0.20918324598E+02 -0.39916299962E+02 -0.60610920727E+01  0.45471822466E+02  0.24998930933E+00 0.  0.
        -13    1    4    4    0    0  0.41327328169E+01  0.74510466334E+01  0.29462071663E+01  0.90160267378E+01  0.10500000000E+00 0.  1.
         13    1    4    4    0    0  0.22242980453E+01  0.39689407684E+01  0.16625426040E+01  0.48451073804E+01  0.10500000000E+00 0. -1.
    3000001    1    5    5    0    0 -0.85078919495E+01 -0.14255280863E+02  0.36553472496E+01  0.17028177278E+02  0.10000000000E+01 0. -1.
        -13    1    6    6    0    0 -0.15412339765E+02 -0.29386719210E+02 -0.44311340697E+01  0.33477835311E+02  0.10500000000E+00 0. -1.
         13    1    6    6    0    0 -0.55059848327E+01 -0.10529580752E+02 -0.16299580030E+01  0.11993987155E+02  0.10500000000E+00 0.  1.
</event>
<event>
11    0  0.3396091E-009  0.9118800E+02  0.7816531E-02  0.1126479E+00
         25   -1    0    0    0    0  0.00000000000E+00  0.00000000000E+00  0.99999998245E-14  0.12500000000E+03  0.12500000000E+03 0.  0.
    3000001    1    3    3    0    0  0.12685358699E+02 -0.70373938128E+01 -0.36317298562E+02  0.39120191869E+02  0.10000000000E+01 0.  1.
    1000022    2    1    0    0    0  0.12777771057E+02 -0.10464309370E+02 -0.59443054868E+02  0.62499999173E+02  0.99999960392E+01 0.  0.
    3000022    2    3    3    0    0  0.92412358182E-01 -0.34269155572E+01 -0.23125756306E+02  0.23379807304E+02  0.24998914908E+00 0.  0.
    1000022    2    1    0    0    0 -0.12777771057E+02  0.10464309370E+02  0.59443054868E+02  0.62500000827E+02  0.10000006374E+02 0.  0.
    3000022    2    5    5    0    0 -0.10480016572E+02  0.11330682784E+02  0.56350018992E+02  0.58426040898E+02  0.24998981900E+00 0.  0.
        -13    1    4    4    0    0  0.21070023454E-02 -0.12516598113E+01 -0.87949955569E+01  0.88842348330E+01  0.10500000000E+00 0.  1.
         13    1    4    4    0    0  0.90305355837E-01 -0.21752557459E+01 -0.14330760749E+02  0.14495572471E+02  0.10500000000E+00 0. -1.
    3000001    1    5    5    0    0 -0.22977544856E+01 -0.86637341434E+00  0.30930358765E+01  0.40739599289E+01  0.10000000000E+01 0.  1.
        -13    1    6    6    0    0 -0.55599150809E+01  0.61050718381E+01  0.30064917544E+02  0.31178435654E+02  0.10500000000E+00 0.  1.
         13    1    6    6    0    0 -0.49201014909E+01  0.52256109462E+01  0.26285101447E+02  0.27247605244E+02  0.10500000000E+00 0. -1.
</event>
<event>
11    0  0.3396091E-009  0.9118800E+02  0.7816531E-02  0.1126479E+00
         25   -1    0    0    0    0  0.00000000000E+00  0.00000000000E+00  0.99999998245E-14  0.12500000000E+03  0.12500000000E+03 0.  0.
    3000001    1    3    3    0    0  0.36697825529E+02 -0.60143644717E+01 -0.15936317801E+02  0.40470596778E+02  0.10000000000E+01 0.  1.
    1000022    2    1    0    0    0  0.57878256267E+02 -0.29543945892E+01 -0.21157243463E+02  0.62500000519E+02  0.10000005901E+02 0.  0.
    3000022    2    3    3    0    0  0.21180430738E+02  0.30599698825E+01 -0.52209256627E+01  0.22029403741E+02  0.25000493131E+00 0.  0.
    1000022    2    1    0    0    0 -0.57878256267E+02  0.29543945892E+01  0.21157243463E+02  0.62499999481E+02  0.99999994085E+01 0.  0.
    3000022    2    5    5    0    0 -0.39572927472E+02  0.27919470581E+01  0.95639359585E+01  0.40808613393E+02  0.24999789288E+00 0.  0.
        -13    1    4    4    0    0  0.14256638848E+02  0.20177186345E+01 -0.35453429971E+01  0.14829140963E+02  0.10500000000E+00 0. -1.
         13    1    4    4    0    0  0.69237918899E+01  0.10422512480E+01 -0.16755826656E+01  0.72002627777E+01  0.10500000000E+00 0.  1.
    3000001    1    5    5    0    0 -0.18305328795E+02  0.16244753109E+00  0.11593307505E+02  0.21691386087E+02  0.10000000000E+01 0. -1.
        -13    1    6    6    0    0 -0.20598024521E+02  0.14579037332E+01  0.50475755611E+01  0.21257778377E+02  0.10500000000E+00 0. -1.
         13    1    6    6    0    0 -0.18974902951E+02  0.13340433249E+01  0.45163603974E+01  0.19550835017E+02  0.10500000000E+00 0.  1.
</event>
<event>
11    0  0.3396091E-009  0.9118800E+02  0.7816531E-02  0.1126479E+00
         25   -1    0    0    0    0  0.00000000000E+00  0.00000000000E+00  0.99999998245E-14  0.12500000000E+03  0.12500000000E+03 0.  0.
    3000001    1    3    3    0    0  0.21610477449E+01 -0.11739280252E+02  0.59318133862E+02  0.60515467718E+02  0.10000000000E+01 0. -1.
    1000022    2    1    0    0    0  0.68132537089E+00 -0.11542247926E+02  0.60601672165E+02  0.62500000976E+02  0.99999880662E+01 0.  0.
    3000022    2    3    3    0    0 -0.14797223740E+01  0.19703232599E+00  0.12835383030E+01  0.19845332583E+01  0.25000327243E+00 0.  0.
    1000022    2    1    0    0    0 -0.68132537089E+00  0.11542247926E+02 -0.60601672165E+02  0.62499999024E+02  0.99999758676E+01 0.  0.
    3000022    2    5    5    0    0 -0.46743620711E+01  0.89629407722E+01 -0.34549413083E+02  0.35998727908E+02  0.24999712477E+00 0.  0.
        -13    1    4    4    0    0 -0.10766887568E+01  0.14228304758E+00  0.87589135823E+00  0.13991832675E+01  0.10500000000E+00 0. -1.
         13    1    4    4    0    0 -0.40303361719E+00  0.54749278404E-01  0.40764694478E+00  0.58534999074E+00  0.10500000000E+00 0.  1.
    3000001    1    5    5    0    0  0.39930367002E+01  0.25793071541E+01 -0.26052259082E+02  0.26501271116E+02  0.10000000000E+01 0. -1.
        -13    1    6    6    0    0 -0.28375667097E+01  0.55124418902E+01 -0.21002321899E+02  0.21898569601E+02  0.10500000000E+00 0.  1.
         13    1    6    6    0    0 -0.18367953614E+01  0.34504988819E+01 -0.13547091184E+02  0.14100158307E+02  0.10500000000E+00 0. -1.
</event>
<event>
11    0  0.3396091E-009  0.9118800E+02  0.7816531E-02  0.1126479E+00
         25   -1    0    0    0    0  0.00000000000E+00  0.00000000000E+00  0.99999998245E-14  0.12500000000E+03  0.12500000000E+03 0.  0.
    3000001    1    3    3    0    0  0.16072309504E+02  0.22774753421E+02  0.20332678043E+02  0.34517043943E+02  0.10000000000E+01 0. -1.
    1000022    2    1    0    0    0  0.22533285379E+02  0.38811151112E+02  0.42334335570E+02  0.62499997577E+02  0.99999664203E+01 0.  0.
    3000022    2    3    3    0    0  0.64609758747E+01  0.16036397691E+02  0.22001657527E+02  0.27982953634E+02  0.24999998337E+00 0.  0.
    1000022    2    1    0    0    0 -0.22533285379E+02 -0.38811151112E+02 -0.42334335570E+02  0.62500002423E+02  0.99999967040E+01 0.  0.
    3000022    2    5    5    0    0 -0.14155541985E+02 -0.32466957502E+02 -0.32912516463E+02  0.48350583628E+02  0.24999790757E+00 0.  0.
        -13    1    4    4    0    0  0.19150077968E+01  0.46923483345E+01  0.63896437432E+01  0.81562221598E+01  0.10500000000E+00 0.  1.
         13    1    4    4    0    0  0.45459680779E+01  0.11344049357E+02  0.15612013784E+02  0.19826731475E+02  0.10500000000E+00 0. -1.
    3000001    1    5    5    0    0 -0.83777433935E+01 -0.63441936101E+01 -0.94218191070E+01  0.14149418794E+02  0.10000000000E+01 0.  1.
        -13    1    6    6    0    0 -0.69124859128E+01 -0.15907151252E+02 -0.16204846455E+02  0.23736638264E+02  0.10500000000E+00 0.  1.
         13    1    6    6    0    0 -0.72430560724E+01 -0.16559806250E+02 -0.16707670008E+02  0.24613945364E+02  0.10500000000E+00 0. -1.
</event>
<event>
11    0  0.3396091E-009  0.9118800E+02  0.7816531E-02  0.1126479E+00
         25   -1    0    0    0    0  0.00000000000E+00  0.00000000000E+00  0.99999998245E-14  0.12500000000E+03  0.12500000000E+03 0.  0.
    3000001    1    3    3    0    0 -0.25355574984E+02 -0.44191015690E+02  0.28869095941E+01  0.51040036221E+02  0.10000000000E+01 0.  1.
    1000022    2    1    0    0    0 -0.30721498235E+02 -0.53490190440E+02 -0.11131504038E+01  0.62499999796E+02  0.99999971780E+01 0.  0.
    3000022    2    3    3    0    0 -0.53659232513E+01 -0.92991747501E+01 -0.40000599980E+01  0.11459963575E+02  0.25000354902E+00 0.  0.
    1000022    2    1    0    0    0  0.30721498235E+02  0.53490190440E+02  0.11131504038E+01  0.62500000204E+02  0.99999997266E+01 0.  0.
    3000022    2    5    5    0    0  0.96806854964E+01  0.25996488382E+02  0.23620962347E+01  0.27841966225E+02  0.25000959422E+00 0.  0.
        -13    1    4    4    0    0 -0.22177697276E+01 -0.37192421424E+01 -0.16271036822E+01  0.46270677617E+01  0.10500000000E+00 0.  1.
         13    1    4    4    0    0 -0.31481535237E+01 -0.55799326077E+01 -0.23729563158E+01  0.68328958130E+01  0.10500000000E+00 0. -1.
    3000001    1    5    5    0    0  0.21040812739E+02  0.27493702058E+02 -0.12489458309E+01  0.34658033978E+02  0.10000000000E+01 0. -1.
        -13    1    6    6    0    0  0.47105212121E+01  0.12658166754E+02  0.10821238834E+01  0.13549915599E+02  0.10500000000E+00 0.  1.
         13    1    6    6    0    0  0.49701642843E+01  0.13338321628E+02  0.12799723513E+01  0.14292050626E+02  0.10500000000E+00 0. -1.
</event>
<event>
11    0  0.3396091E-009  0.9118800E+02  0.7816531E-02  0.1126479E+00
         25   -1    0    0    0    0  0.00000000000E+00  0.00000000000E+00  0.99999998245E-14  0.12500000000E+03  0.12500000000E+03 0.  0.
    3000001    1    3    3    0    0 -0.90176279998E+00 -0.60730417398E+00  0.39103978212E+01  0.41800963658E+01  0.10000000000E+01 0.  1.
    1000022    2    1    0    0    0  0.20926084643E+02 -0.95045266050E+01  0.57253935299E+02  0.62499998479E+02  0.99999829080E+01 0.  0.
    3000022    2    3    3    0    0  0.21827847443E+02 -0.88972224311E+01  0.53343537478E+02  0.58319902113E+02  0.25000169588E+00 0.  0.
    1000022    2    1    0    0    0 -0.20926084643E+02  0.95045266050E+01 -0.57253935299E+02  0.62500001521E+02  0.10000001921E+02 0.  0.
    3000022    2    5    5    0    0 -0.59505808173E+01 -0.18080527406E+01 -0.12663398253E+02  0.14110372877E+02  0.25000125589E+00 0.  0.
        -13    1    4    4    0    0  0.12319330454E+02 -0.50498891378E+01  0.30279593931E+02  0.33077667946E+02  0.10500000000E+00 0. -1.
         13    1    4    4    0    0  0.95085169895E+01 -0.38473332933E+01  0.23063943547E+02  0.25242234167E+02  0.10500000000E+00 0.  1.
    3000001    1    5    5    0    0 -0.14975503826E+02  0.11312579346E+02 -0.44590537046E+02  0.48389628644E+02  0.10000000000E+01 0. -1.
        -13    1    6    6    0    0 -0.30375529361E+01 -0.94605351944E+00 -0.63324317973E+01  0.70874863364E+01  0.10500000000E+00 0.  1.
         13    1    6    6    0    0 -0.29130278812E+01 -0.86199922117E+00 -0.63309664560E+01  0.70228865405E+01  0.10500000000E+00 0. -1.
</event>
<event>
11    0  0.3396091E-009  0.9118800E+02  0.7816531E-02  0.1126479E+00
         25   -1    0    0    0    0  0.00000000000E+00  0.00000000000E+00  0.99999998245E-14  0.12500000000E+03  0.12500000000E+03 0.  0.
    3000001    1    3    3    0    0  0.44027447252E+02  0.25088443437E+02  0.13709435958E+02  0.52505187743E+02  0.10000000000E+01 0.  1.
    1000022    2    1    0    0    0  0.53072266352E+02  0.29027171607E+02  0.12124681100E+02  0.62500000140E+02  0.99999989270E+01 0.  0.
    3000022    2    3    3    0    0  0.90448190991E+01  0.39387281692E+01 -0.15847548580E+01  0.99948123966E+01  0.24998951127E+00 0.  0.
    1000022    2    1    0    0    0 -0.53072266352E+02 -0.29027171607E+02 -0.12124681100E+02  0.62499999860E+02  0.99999971802E+01 0.  0.
    3000022    2    5    5    0    0 -0.43867559215E+02 -0.27155314884E+02 -0.12352308968E+02  0.53051068942E+02  0.25000216194E+00 0.  0.
        -13    1    4    4    0    0  0.58078926531E+01  0.25898015970E+01 -0.10069907941E+01  0.64392348024E+01  0.10500000000E+00 0.  1.
         13    1    4    4    0    0  0.32369264460E+01  0.13489265722E+01 -0.57776406396E+00  0.35555775941E+01  0.10500000000E+00 0. -1.
    3000001    1    5    5    0    0 -0.92047071364E+01 -0.18718567225E+01  0.22762786830E+00  0.94489309186E+01  0.10000000000E+01 0. -1.
        -13    1    6    6    0    0 -0.20686585731E+02 -0.12726532308E+02 -0.58202771828E+01  0.24975710306E+02  0.10500000000E+00 0.  1.
         13    1    6    6    0    0 -0.23180973484E+02 -0.14428782576E+02 -0.65320317851E+01  0.28075358636E+02  0.10500000000E+00 0. -1.
</event>
<event>
11    0  0.3396091E-009  0.9118800E+02  0.7816531E-02  0.1126479E+00
         25   -1    0    0    0    0  0.00000000000E+00  0.00000000000E+00  0.99999998245E-14  0.12500000000E+03  0.12500000000E+03 0.  0.
    3000001    1    3    3    0    0 -0.69799588974E+00  0.22177850122E+01 -0.26092614564E+01  0.36351085225E+01  0.10000000000E+01 0.  1.
    1000022    2    1    0    0    0 -0.26055458881E+02  0.53884751766E+02 -0.14959840129E+02  0.62500001946E+02  0.10000000805E+02 0.  0.
    3000022    2    3    3    0    0 -0.25357462992E+02  0.51666966754E+02 -0.12350578673E+02  0.58864893423E+02  0.25000247832E+00 0.  0.
    1000022    2    1    0    0    0  0.26055458881E+02 -0.53884751766E+02  0.14959840129E+02  0.62499998054E+02  0.99999764854E+01 0.  0.
    3000022    2    5    5    0    0  0.90726083443E+01 -0.20076402529E+02  0.66377600797E+00  0.22042623698E+02  0.25000041248E+00 0.  0.
        -13    1    4    4    0    0 -0.10634097156E+02  0.21526280427E+02 -0.51700600069E+01  0.24560238534E+02  0.10500000000E+00 0.  1.
         13    1    4    4    0    0 -0.14723365835E+02  0.30140686326E+02 -0.71805186660E+01  0.34304654889E+02  0.10500000000E+00 0. -1.
    3000001    1    5    5    0    0  0.16982850537E+02 -0.33808349237E+02  0.14296064121E+02  0.40457374357E+02  0.10000000000E+01 0. -1.
        -13    1    6    6    0    0  0.57572586880E+01 -0.12865114539E+02  0.39770146487E+00  0.14100581235E+02  0.10500000000E+00 0. -1.
         13    1    6    6    0    0  0.33153496562E+01 -0.72112879900E+01  0.26607454309E+00  0.79420424627E+01  0.10500000000E+00 0.  1.
</event>
<event>
11    0  0.3396091E-009  0.9118800E+02  0.7816531E-02  0.1126479E+00
         25   -1    0    0    0    0  0.00000000000E+00  0.00000000000E+00  0.99999998245E-14  0.12500000000E+03  0.12500000000E+03 0.  0.
    3000001    1    3    3    0    0  0.49063530003E+02  0.22933177002E+00 -0.98772022847E+01  0.50058382858E+02  0.10000000000E+01 0. -1.
    1000022    2    1    0    0    0  0.59936363545E+02 -0.41724769670E+01 -0.14016876168E+02  0.62499999718E+02  0.99999954131E+01 0.  0.
    3000022    2    3    3    0    0  0.10872833542E+02 -0.44018087370E+01 -0.41396738836E+01  0.12441616860E+02  0.25000168878E+00 0.  0.
    1000022    2    1    0    0    0 -0.59936363545E+02  0.41724769670E+01  0.14016876168E+02  0.62500000282E+02  0.99999989372E+01 0.  0.
    3000022    2    5    5    0    0 -0.32017487440E+02 -0.22602395531E+01  0.95313924267E+01  0.33483400737E+02  0.24999700068E+00 0.  0.
        -13    1    4    4    0    0  0.62697738292E+01 -0.24884326856E+01 -0.23316368006E+01  0.71379210048E+01  0.10500000000E+00 0.  1.
         13    1    4    4    0    0  0.46030597124E+01 -0.19133760515E+01 -0.18080370830E+01  0.53036958551E+01  0.10500000000E+00 0. -1.
    3000001    1    5    5    0    0 -0.27918876104E+02  0.64327165201E+01  0.44854837416E+01  0.29016599545E+02  0.10000000000E+01 0. -1.
        -13    1    6    6    0    0 -0.24062626982E+02 -0.16931652736E+01  0.71371447990E+01  0.25156046725E+02  0.10500000000E+00 0. -1.
         13    1    6    6    0    0 -0.79548604581E+01 -0.56707427947E+00  0.23942476277E+01  0.83273540125E+01  0.10500000000E+00 0.  1.
</event>
<event>
11    0  0.3396091E-009  0.9118800E+02  0.7816531E-02  0.1126479E+00
         25   -1    0    0    0    0  0.00000000000E+00  0.00000000000E+00  0.99999998245E-14  0.12500000000E+03  0.12500000000E+03 0.  0.
    3000001    1    3    3    0    0  0.79373650583E+01  0.39190894806E+01  0.69089473853E+01  0.11273623215E+02  0.10000000000E+01 0. -1.
    1000022    2    1    0    0    0  0.26821854371E+02  0.26515057538E+02  0.48824069984E+02  0.62500000314E+02  0.10000004061E+02 0.  0.
    3000022    2    3    3    0    0  0.18884489313E+02  0.22595968058E+02  0.41915122599E+02  0.51226377099E+02  0.24999815176E+00 0.  0.
    1000022    2    1    0    0    0 -0.26821854371E+02 -0.26515057538E+02 -0.48824069984E+02  0.62499999686E+02  0.10000000138E+02 0.  0.
    3000022    2    5    5    0    0 -0.23293983584E+02 -0.23953536316E+02 -0.47006295807E+02  0.57671794406E+02  0.24990260973E+00 0.  0.
        -13    1    4    4    0    0  0.70765112225E+01  0.85511332876E+01  0.15846660608E+02  0.19347521004E+02  0.10500000000E+00 0.  1.
         13    1    4    4    0    0  0.11807978091E+02  0.14044834770E+02  0.26068461991E+02  0.31878856095E+02  0.10500000000E+00 0. -1.
    3000001    1    5    5    0    0 -0.35278707870E+01 -0.25615212225E+01 -0.18177741775E+01  0.48282052797E+01  0.10000000000E+01 0.  1.
        -13    1    6    6    0    0 -0.13016722387E+02 -0.13317176171E+02 -0.26118743867E+02  0.32077750063E+02  0.10500000000E+00 0.  1.
         13    1    6    6    0    0 -0.10277261198E+02 -0.10636360144E+02 -0.20887551940E+02  0.25594044344E+02  0.10500000000E+00 0. -1.
</event>
<event>
11    0  0.3396091E-009  0.9118800E+02  0.7816531E-02  0.1126479E+00
         25   -1    0    0    0    0  0.00000000000E+00  0.00000000000E+00  0.99999998245E-14  0.12500000000E+03  0.12500000000E+03 0.  0.
    3000001    1    3    3    0    0  0.34379617661E+02  0.22350273408E+02  0.27624900217E+02  0.49453290527E+02  0.10000000000E+01 0.  1.
    1000022    2    1    0    0    0  0.44779682762E+02  0.29777659719E+02  0.30237727837E+02  0.62500006330E+02  0.10000079999E+02 0.  0.
    3000022    2    3    3    0    0  0.10400065101E+02  0.74273863106E+01  0.26128276203E+01  0.13046715803E+02  0.25000716329E+00 0.  0.
    1000022    2    1    0    0    0 -0.44779682762E+02 -0.29777659719E+02 -0.30237727837E+02  0.62499993670E+02  0.10000000869E+02 0.  0.
    3000022    2    5    5    0    0 -0.33259473952E+02 -0.16720840404E+02 -0.21556268256E+02  0.43017604646E+02  0.24999381314E+00 0.  0.
        -13    1    4    4    0    0  0.45952903832E+01  0.32243136677E+01  0.11000429814E+01  0.57213645133E+01  0.10500000000E+00 0. -1.
         13    1    4    4    0    0  0.58047747173E+01  0.42030726428E+01  0.15127846389E+01  0.73253512901E+01  0.10500000000E+00 0.  1.
    3000001    1    5    5    0    0 -0.11520208809E+02 -0.13056819314E+02 -0.86814595810E+01  0.19482389024E+02  0.10000000000E+01 0.  1.
        -13    1    6    6    0    0 -0.18281687956E+02 -0.91170956292E+01 -0.11841108987E+02  0.23612802339E+02  0.10500000000E+00 0.  1.
         13    1    6    6    0    0 -0.14977785996E+02 -0.76037447750E+01 -0.97151592689E+01  0.19404802307E+02  0.10500000000E+00 0. -1.
</event>
<event>
11    0  0.3396091E-009  0.9118800E+02  0.7816531E-02  0.1126479E+00
         25   -1    0    0    0    0  0.00000000000E+00  0.00000000000E+00  0.99999998245E-14  0.12500000000E+03  0.12500000000E+03 0.  0.
    3000001    1    3    3    0    0 -0.47143439359E+02  0.57885368025E+01 -0.32033657938E-01  0.47508020997E+02  0.10000000000E+01 0. -1.
    1000022    2    1    0    0    0 -0.61600873273E+02  0.25278558815E+01 -0.22787119412E+01  0.62500002053E+02  0.10000004263E+02 0.  0.
    3000022    2    3    3    0    0 -0.14457433914E+02 -0.32606809210E+01 -0.22466782833E+01  0.14991981056E+02  0.24999449172E+00 0.  0.
    1000022    2    1    0    0    0  0.61600873273E+02 -0.25278558815E+01  0.22787119412E+01  0.62499997947E+02  0.99999785947E+01 0.  0.
    3000022    2    5    5    0    0  0.11563955405E+02  0.34130687210E+01  0.34706960300E+00  0.12064702994E+02  0.24999664044E+00 0.  0.
        -13    1    4    4    0    0 -0.58505873620E+01 -0.13839400614E+01 -0.90157741849E+00  0.60801751139E+01  0.10500000000E+00 0. -1.
         13    1    4    4    0    0 -0.86068465519E+01 -0.18767408596E+01 -0.13451008648E+01  0.89118059426E+01  0.10500000000E+00 0.  1.
    3000001    1    5    5    0    0  0.50036917868E+02 -0.59409246026E+01  0.19316423382E+01  0.50435294953E+02  0.10000000000E+01 0. -1.
        -13    1    6    6    0    0  0.48709573044E+01  0.13855428422E+01  0.18705448469E+00  0.50687245347E+01  0.10500000000E+00 0. -1.
         13    1    6    6    0    0  0.66929981004E+01  0.20275258789E+01  0.16001511831E+00  0.69959784590E+01  0.10500000000E+00 0.  1.
</event>
<event>
11    0  0.3396091E-009  0.9118800E+02  0.7816531E-02  0.1126479E+00
         25   -1    0    0    0    0  0.00000000000E+00  0.00000000000E+00  0.99999998245E-14  0.12500000000E+03  0.12500000000E+03 0.  0.
    3000001    1    3    3    0    0  0.33377162555E+02 -0.21642684136E+01 -0.29223393071E+02  0.44426633234E+02  0.10000000000E+01 0.  1.
    1000022    2    1    0    0    0  0.46269411178E+02 -0.91870083799E+01 -0.39761668327E+02  0.62500003113E+02  0.10000029362E+02 0.  0.
    3000022    2    3    3    0    0  0.12892248623E+02 -0.70227399664E+01 -0.10538275257E+02  0.18073369879E+02  0.25000438465E+00 0.  0.
    1000022    2    1    0    0    0 -0.46269411178E+02  0.91870083799E+01  0.39761668327E+02  0.62499996887E+02  0.99999904498E+01 0.  0.
    3000022    2    5    5    0    0 -0.16298847871E+02  0.69804953123E+01  0.10860168600E+02  0.20793881612E+02  0.24998749399E+00 0.  0.
        -13    1    4    4    0    0  0.81159020246E+01 -0.43622378543E+01 -0.66509352565E+01  0.11364107953E+02  0.10500000000E+00 0. -1.
         13    1    4    4    0    0  0.47763465987E+01 -0.26605021121E+01 -0.38873400001E+01  0.67092619263E+01  0.10500000000E+00 0.  1.
    3000001    1    5    5    0    0 -0.29970563307E+02  0.22065130676E+01  0.28901499727E+02  0.41706115275E+02  0.10000000000E+01 0. -1.
        -13    1    6    6    0    0 -0.11719516926E+02  0.50144312098E+01  0.77605859127E+01  0.14924118602E+02  0.10500000000E+00 0.  1.
         13    1    6    6    0    0 -0.45793309446E+01  0.19660641025E+01  0.30995826871E+01  0.58697630097E+01  0.10500000000E+00 0. -1.
</event>
<event>
11    0  0.3396091E-009  0.9118800E+02  0.7816531E-02  0.1126479E+00
         25   -1    0    0    0    0  0.00000000000E+00  0.00000000000E+00  0.99999998245E-14  0.12500000000E+03  0.12500000000E+03 0.  0.
    3000001    1    3    3    0    0  0.32878527586E+02  0.11894528562E+02 -0.88453651709E+01  0.36079327474E+02  0.10000000000E+01 0.  1.
    1000022    2    1    0    0    0  0.59133810446E+02  0.13443289451E+02 -0.11345506148E+02  0.62499996333E+02  0.99999731397E+01 0.  0.
    3000022    2    3    3    0    0  0.26255282859E+02  0.15487608895E+01 -0.25001409768E+01  0.26420668859E+02  0.24999950828E+00 0.  0.
    1000022    2    1    0    0    0 -0.59133810446E+02 -0.13443289451E+02  0.11345506148E+02  0.62500003667E+02  0.10000018976E+02 0.  0.
    3000022    2    5    5    0    0 -0.23416334467E+02 -0.31504105364E+01  0.88510963757E+01  0.25232007655E+02  0.24999365114E+00 0.  0.
        -13    1    4    4    0    0  0.65612431799E+01  0.41181547725E+00 -0.61594793591E+00  0.66037808044E+01  0.10500000000E+00 0. -1.
         13    1    4    4    0    0  0.19694039679E+02  0.11369454123E+01 -0.18841930409E+01  0.19816888055E+02  0.10500000000E+00 0.  1.
    3000001    1    5    5    0    0 -0.35717475979E+02 -0.10292878915E+02  0.24944097720E+01  0.37267996012E+02  0.10000000000E+01 0.  1.
        -13    1    6    6    0    0 -0.17684966937E+02 -0.23584829781E+01  0.66724455889E+01  0.19048702126E+02  0.10500000000E+00 0.  1.
         13    1    6    6    0    0 -0.57313675293E+01 -0.79192755830E+00  0.21786507868E+01  0.61833055289E+01  0.10500000000E+00 0. -1.
</event>
<event>
11    0  0.3396091E-009  0.9118800E+02  0.7816531E-02  0.1126479E+00
         25   -1    0    0    0    0  0.00000000000E+00  0.00000000000E+00  0.99999998245E-14  0.12500000000E+03  0.12500000000E+03 0.  0.
    3000001    1    3    3    0    0  0.69680577923E+01 -0.31936084260E+02 -0.40070592150E+02  0.51721558972E+02  0.10000000000E+01 0. -1.
    1000022    2    1    0    0    0  0.12547577676E+02 -0.38483887925E+02 -0.46559634448E+02  0.62500007410E+02  0.10000001544E+02 0.  0.
    3000022    2    3    3    0    0  0.55795198836E+01 -0.65478036653E+01 -0.64890422985E+01  0.10778448438E+02  0.25001160428E+00 0.  0.
    1000022    2    1    0    0    0 -0.12547577676E+02  0.38483887925E+02  0.46559634448E+02  0.62499992590E+02  0.99999089199E+01 0.  0.
    3000022    2    5    5    0    0 -0.43327343684E+01  0.43641881359E+01  0.10505502818E+02  0.12175664756E+02  0.24999521695E+00 0.  0.
        -13    1    4    4    0    0  0.32394864266E+01 -0.37421237117E+01 -0.37986931851E+01  0.62401007280E+01  0.10500000000E+00 0.  1.
         13    1    4    4    0    0  0.23400334571E+01 -0.28056799536E+01 -0.26903491134E+01  0.45383477097E+01  0.10500000000E+00 0. -1.
    3000001    1    5    5    0    0 -0.82148433076E+01  0.34119699789E+02  0.36054131630E+02  0.50324327834E+02  0.10000000000E+01 0.  1.
        -13    1    6    6    0    0 -0.13777873006E+01  0.14546495722E+01  0.33812019937E+01  0.39316478919E+01  0.10500000000E+00 0. -1.
         13    1    6    6    0    0 -0.29549470678E+01  0.29095385637E+01  0.71243008244E+01  0.82440168646E+01  0.10500000000E+00 0. -1.
</event>
<event>
11    0  0.3396091E-009  0.9118800E+02  0.7816531E-02  0.1126479E+00
         25   -1    0    0    0    0  0.00000000000E+00  0.00000000000E+00  0.99999998245E-14  0.12500000000E+03  0.12500000000E+03 0.  0.
    3000001    1    3    3    0    0 -0.48940956861E+01  0.12239410394E+02 -0.11017060314E+02  0.17208455984E+02  0.10000000000E+01 0.  1.
    1000022    2    1    0    0    0 -0.25879595873E+02  0.49014564437E+02 -0.27093703719E+02  0.62500001924E+02  0.10000022492E+02 0.  0.
    3000022    2    3    3    0    0 -0.20985500187E+02  0.36775154042E+02 -0.16076643405E+02  0.45291545940E+02  0.24999513249E+00 0.  0.
    1000022    2    1    0    0    0  0.25879595873E+02 -0.49014564437E+02  0.27093703719E+02  0.62499998076E+02  0.99999984407E+01 0.  0.
    3000022    2    5    5    0    0  0.25459664334E+02 -0.47561005370E+02  0.27626631024E+02  0.60609710275E+02  0.24999617870E+00 0.  0.
        -13    1    4    4    0    0 -0.49038262925E+01  0.85938328678E+01 -0.37708173663E+01  0.10589219248E+02  0.10500000000E+00 0.  1.
         13    1    4    4    0    0 -0.16081673894E+02  0.28181321175E+02 -0.12305826039E+02  0.34702326693E+02  0.10500000000E+00 0. -1.
    3000001    1    5    5    0    0  0.41993153851E+00 -0.14535590662E+01 -0.53292730481E+00  0.18902878004E+01  0.10000000000E+01 0.  1.
        -13    1    6    6    0    0  0.18760453326E+02 -0.35068273133E+02  0.20402093932E+02  0.44698935685E+02  0.10500000000E+00 0. -1.
         13    1    6    6    0    0  0.66992110085E+01 -0.12492732237E+02  0.72245370916E+01  0.15910774591E+02  0.10500000000E+00 0.  1.
</event>
<event>
11    0  0.3396091E-009  0.9118800E+02  0.7816531E-02  0.1126479E+00
         25   -1    0    0    0    0  0.00000000000E+00  0.00000000000E+00  0.99999998245E-14  0.12500000000E+03  0.12500000000E+03 0.  0.
    3000001    1    3    3    0    0  0.31915206275E+02 -0.11045790604E+02 -0.40649679348E+02  0.52858171674E+02  0.10000000000E+01 0.  1.
    1000022    2    1    0    0    0  0.33964292212E+02 -0.12603957258E+02 -0.49938143479E+02  0.62499992316E+02  0.99998990692E+01 0.  0.
    3000022    2    3    3    0    0  0.20490859370E+01 -0.15581666545E+01 -0.92884641313E+01  0.96418206425E+01  0.25000576622E+00 0.  0.
    1000022    2    1    0    0    0 -0.33964292212E+02  0.12603957258E+02  0.49938143479E+02  0.62500007684E+02  0.99999951141E+01 0.  0.
    3000022    2    5    5    0    0 -0.92772022989E+01  0.24831622452E+01  0.68093401395E+01  0.11775491150E+02  0.25000291015E+00 0.  0.
        -13    1    4    4    0    0  0.89518443503E+00 -0.75139421151E+00 -0.40817548003E+01  0.42470808426E+01  0.10500000000E+00 0. -1.
         13    1    4    4    0    0  0.11539015019E+01 -0.80677244298E+00 -0.52067093311E+01  0.53947397999E+01  0.10500000000E+00 0.  1.
    3000001    1    5    5    0    0 -0.24687089913E+02  0.10120795013E+02  0.43128803339E+02  0.50724516534E+02  0.10000000000E+01 0.  1.
        -13    1    6    6    0    0 -0.62446278360E+01  0.16256698489E+01  0.45396393422E+01  0.78903440752E+01  0.10500000000E+00 0. -1.
         13    1    6    6    0    0 -0.30325744629E+01  0.85749239625E+00  0.22697007973E+01  0.38851470747E+01  0.10500000000E+00 0.  1.
</event>
<event>
11    0  0.3396091E-009  0.9118800E+02  0.7816531E-02  0.1126479E+00
         25   -1    0    0    0    0  0.00000000000E+00  0.00000000000E+00  0.99999998245E-14  0.12500000000E+03  0.12500000000E+03 0.  0.
    3000001    1    3    3    0    0  0.20973466063E+01 -0.14854965139E+02  0.10864831563E+02  0.18550294256E+02  0.10000000000E+01 0. -1.
    1000022    2    1    0    0    0  0.23264196080E+00 -0.40717419076E+02  0.46349624652E+02  0.62500000598E+02  0.10000001548E+02 0.  0.
    3000022    2    3    3    0    0 -0.18647046455E+01 -0.25862453936E+02  0.35484793089E+02  0.43949706342E+02  0.25000004033E+00 0.  0.
    1000022    2    1    0    0    0 -0.23264196080E+00  0.40717419076E+02 -0.46349624652E+02  0.62499999402E+02  0.99999940708E+01 0.  0.
    3000022    2    5    5    0    0  0.15945504472E+01  0.36879469735E+02 -0.44333764675E+02  0.57690407040E+02  0.24999032876E+00 0.  0.
        -13    1    4    4    0    0 -0.57081429391E+00 -0.77683708641E+01  0.10584643799E+02  0.13142264804E+02  0.10500000000E+00 0.  1.
         13    1    4    4    0    0 -0.12938903516E+01 -0.18094083072E+02  0.24900149290E+02  0.30807441538E+02  0.10500000000E+00 0. -1.
    3000001    1    5    5    0    0 -0.18271924080E+01  0.38379493410E+01 -0.20158599767E+01  0.48095923617E+01  0.10000000000E+01 0.  1.
        -13    1    6    6    0    0  0.47888349273E+00  0.12139025313E+02 -0.14550317173E+02  0.18955421910E+02  0.10500000000E+00 0.  1.
         13    1    6    6    0    0  0.11156669545E+01  0.24740444422E+02 -0.29783447502E+02  0.38734985130E+02  0.10500000000E+00 0. -1.
</event>
<event>
11    0  0.3396091E-009  0.9118800E+02  0.7816531E-02  0.1126479E+00
         25   -1    0    0    0    0  0.00000000000E+00  0.00000000000E+00  0.99999998245E-14  0.12500000000E+03  0.12500000000E+03 0.  0.
    3000001    1    3    3    0    0  0.25367105496E+02  0.43785158866E+02 -0.72714610789E+01  0.51132223933E+02  0.10000000000E+01 0. -1.
    1000022    2    1    0    0    0  0.29669995554E+02  0.53910904964E+02 -0.44222114898E+01  0.62499999359E+02  0.99999827631E+01 0.  0.
    3000022    2    3    3    0    0  0.43028900582E+01  0.10125746098E+02  0.28492495891E+01  0.11367775426E+02  0.24999604538E+00 0.  0.
    1000022    2    1    0    0    0 -0.29669995554E+02 -0.53910904964E+02  0.44222114898E+01  0.62500000641E+02  0.99999907761E+01 0.  0.
    3000022    2    5    5    0    0 -0.21295131310E+02 -0.28698807049E+02  0.33262865148E+01  0.35891932619E+02  0.25000311461E+00 0.  0.
        -13    1    4    4    0    0  0.23873283420E+01  0.57595311009E+01  0.16510790910E+01  0.64504745779E+01  0.10500000000E+00 0.  1.
         13    1    4    4    0    0  0.19155617162E+01  0.43662149967E+01  0.11981704980E+01  0.49173008478E+01  0.10500000000E+00 0. -1.
    3000001    1    5    5    0    0 -0.83748642439E+01 -0.25212097914E+02  0.10959249751E+01  0.26608068022E+02  0.10000000000E+01 0. -1.
        -13    1    6    6    0    0 -0.94292312829E+01 -0.12597735252E+02  0.14545869724E+01  0.15803170072E+02  0.10500000000E+00 0.  1.
         13    1    6    6    0    0 -0.11865900027E+02 -0.16101071798E+02  0.18716995424E+01  0.20088762547E+02  0.10500000000E+00 0. -1.
</event>
<event>
11    0  0.3396091E-009  0.9118800E+02  0.7816531E-02  0.1126479E+00
         25   -1    0    0    0    0  0.00000000000E+00  0.00000000000E+00  0.99999998245E-14  0.12500000000E+03  0.12500000000E+03 0.  0.
    3000001    1    3    3    0    0  0.44685559881E+01 -0.10581714219E+02  0.36227465604E+01  0.12085733783E+02  0.10000000000E+01 0.  1.
    1000022    2    1    0    0    0  0.10834272259E+02 -0.50472052548E+02  0.33785211921E+02  0.62500000224E+02  0.99999969808E+01 0.  0.
    3000022    2    3    3    0    0  0.63657162712E+01 -0.39890338329E+02  0.30162465361E+02  0.50414266441E+02  0.25001695992E+00 0.  0.
    1000022    2    1    0    0    0 -0.10834272259E+02  0.50472052548E+02 -0.33785211921E+02  0.62499999776E+02  0.99999941828E+01 0.  0.
    3000022    2    5    5    0    0 -0.76005462229E+01  0.33002230093E+02 -0.27506433258E+02  0.43630056952E+02  0.25001008328E+00 0.  0.
        -13    1    4    4    0    0  0.17244878861E+01 -0.10877034952E+02  0.82675055148E+01  0.13771217094E+02  0.10500000000E+00 0.  1.
         13    1    4    4    0    0  0.46412283851E+01 -0.29013303378E+02  0.21894959846E+02  0.36643049347E+02  0.10500000000E+00 0. -1.
    3000001    1    5    5    0    0 -0.32337260364E+01  0.17469822455E+02 -0.62787786627E+01  0.18869942824E+02  0.10000000000E+01 0.  1.
        -13    1    6    6    0    0 -0.39366212591E+01  0.17172052279E+02 -0.14393186656E+02  0.22749751944E+02  0.10500000000E+00 0.  1.
         13    1    6    6    0    0 -0.36639249638E+01  0.15830177814E+02 -0.13113246603E+02  0.20880305008E+02  0.10500000000E+00 0. -1.
</event>
<event>
11    0  0.3396091E-009  0.9118800E+02  0.7816531E-02  0.1126479E+00
         25   -1    0    0    0    0  0.00000000000E+00  0.00000000000E+00  0.99999998245E-14  0.12500000000E+03  0.12500000000E+03 0.  0.
    3000001    1    3    3    0    0 -0.10345838929E+02  0.35201946715E+02 -0.19039251815E+01  0.36753753097E+02  0.10000000000E+01 0. -1.
    1000022    2    1    0    0    0 -0.23696954889E+02  0.56941070478E+02  0.15551380825E+01  0.62500003292E+02  0.10000038944E+02 0.  0.
    3000022    2    3    3    0    0 -0.13351115960E+02  0.21739123763E+02  0.34590632640E+01  0.25746250195E+02  0.24996212131E+00 0.  0.
    1000022    2    1    0    0    0  0.23696954889E+02 -0.56941070478E+02 -0.15551380825E+01  0.62499996708E+02  0.99999977927E+01 0.  0.
    3000022    2    5    5    0    0  0.23212015094E+02 -0.54976679047E+02 -0.31127351381E+01  0.59757715014E+02  0.24999992452E+00 0.  0.
        -13    1    4    4    0    0 -0.81893365388E+01  0.13220587120E+02  0.20911231627E+01  0.15691812445E+02  0.10500000000E+00 0.  1.
         13    1    4    4    0    0 -0.51617794212E+01  0.85185366432E+01  0.13679401013E+01  0.10054437749E+02  0.10500000000E+00 0. -1.
    3000001    1    5    5    0    0  0.48493979550E+00 -0.19643914308E+01  0.15575970556E+01  0.27422816934E+01  0.10000000000E+01 0.  1.
        -13    1    6    6    0    0  0.96452539966E+01 -0.22907406755E+02 -0.13562371751E+01  0.24892380625E+02  0.10500000000E+00 0.  1.
         13    1    6    6    0    0  0.13566761097E+02 -0.32069272292E+02 -0.17564979629E+01  0.34865334389E+02  0.10500000000E+00 0. -1.
</event>
<event>
11    0  0.3396091E-009  0.9118800E+02  0.7816531E-02  0.1126479E+00
         25   -1    0    0    0    0  0.00000000000E+00  0.00000000000E+00  0.99999998245E-14  0.12500000000E+03  0.12500000000E+03 0.  0.
    3000001    1    3    3    0    0  0.25566800516E+02  0.41643798357E+02 -0.21006629695E+02  0.53199113916E+02  0.10000000000E+01 0. -1.
    1000022    2    1    0    0    0  0.26617409667E+02  0.48662952396E+02 -0.27012599062E+02  0.62499999550E+02  0.10000000123E+02 0.  0.
    3000022    2    3    3    0    0  0.10506091508E+01  0.70191540383E+01 -0.60059693668E+01  0.93008856347E+01  0.25000510577E+00 0.  0.
    1000022    2    1    0    0    0 -0.26617409667E+02 -0.48662952396E+02  0.27012599062E+02  0.62500000450E+02  0.10000005742E+02 0.  0.
    3000022    2    5    5    0    0 -0.39451912431E+00 -0.52622709647E+01  0.59949583334E+00  0.53168634311E+01  0.25000088927E+00 0.  0.
        -13    1    4    4    0    0  0.29344469367E+00  0.17708723317E+01 -0.15215718689E+01  0.23554839324E+01  0.10500000000E+00 0.  1.
         13    1    4    4    0    0  0.75716445714E+00  0.52482817066E+01 -0.44843974978E+01  0.69454017022E+01  0.10500000000E+00 0. -1.
    3000001    1    5    5    0    0 -0.26222890543E+02 -0.43400681431E+02  0.26413103229E+02  0.57183137018E+02  0.10000000000E+01 0. -1.
        -13    1    6    6    0    0 -0.17746309569E+00 -0.23138172238E+01  0.19727446425E+00  0.23313484317E+01  0.10500000000E+00 0.  1.
         13    1    6    6    0    0 -0.21705602862E+00 -0.29484537409E+01  0.40222136909E+00  0.29855149994E+01  0.10500000000E+00 0. -1.
</event>
<event>
11    0  0.3396091E-009  0.9118800E+02  0.7816531E-02  0.1126479E+00
         25   -1    0    0    0    0  0.00000000000E+00  0.00000000000E+00  0.99999998245E-14  0.12500000000E+03  0.12500000000E+03 0.  0.
    3000001    1    3    3    0    0 -0.14231081788E+02  0.50543452083E+02  0.35752639449E+01  0.52639782956E+02  0.10000000000E+01 0. -1.
    1000022    2    1    0    0    0 -0.14037257133E+02  0.59616265067E+02  0.74233648632E+01  0.62499999910E+02  0.99999997216E+01 0.  0.
    3000022    2    3    3    0    0  0.19382465568E+00  0.90728129843E+01  0.38481009183E+01  0.98602169541E+01  0.24998851793E+00 0.  0.
    1000022    2    1    0    0    0  0.14037257133E+02 -0.59616265067E+02 -0.74233648632E+01  0.62500000090E+02  0.10000000850E+02 0.  0.
    3000022    2    5    5    0    0  0.18617598306E+01 -0.26137620817E+02 -0.57159687507E+01  0.26821189055E+02  0.25002385976E+00 0.  0.
        -13    1    4    4    0    0  0.64485105690E-01  0.53698105151E+01  0.23195781143E+01  0.58506829452E+01  0.10500000000E+00 0.  1.
         13    1    4    4    0    0  0.12933954999E+00  0.37030024692E+01  0.15285228040E+01  0.40095340089E+01  0.10500000000E+00 0. -1.
    3000001    1    5    5    0    0  0.12175497302E+02 -0.33478644251E+02 -0.17073961125E+01  0.35678811036E+02  0.10000000000E+01 0. -1.
        -13    1    6    6    0    0  0.13437345643E+01 -0.19164307246E+02 -0.41624574570E+01  0.19657399926E+02  0.10500000000E+00 0.  1.
         13    1    6    6    0    0  0.51802526629E+00 -0.69733135710E+01 -0.15535112937E+01  0.71637891284E+01  0.10500000000E+00 0. -1.
</event>
<event>
11    0  0.3396091E-009  0.9118800E+02  0.7816531E-02  0.1126479E+00
         25   -1    0    0    0    0  0.00000000000E+00  0.00000000000E+00  0.99999998245E-14  0.12500000000E+03  0.12500000000E+03 0.  0.
    3000001    1    3    3    0    0 -0.15560171141E+02  0.18865299478E+02  0.34620800897E+02  0.42398329036E+02  0.10000000000E+01 0. -1.
    1000022    2    1    0    0    0 -0.20758084250E+02  0.33298574338E+02  0.47608370372E+02  0.62500000159E+02  0.99999987872E+01 0.  0.
    3000022    2    3    3    0    0 -0.51979131091E+01  0.14433274860E+02  0.12987569475E+02  0.20101671123E+02  0.24999438383E+00 0.  0.
    1000022    2    1    0    0    0  0.20758084250E+02 -0.33298574338E+02 -0.47608370372E+02  0.62499999841E+02  0.99999967968E+01 0.  0.
    3000022    2    5    5    0    0  0.14404844816E+02 -0.14654075761E+02 -0.27543937591E+02  0.34365280341E+02  0.25000866377E+00 0.  0.
        -13    1    4    4    0    0 -0.30074425142E+01  0.85354692349E+01  0.76788728175E+01  0.11869079926E+02  0.10500000000E+00 0. -1.
         13    1    4    4    0    0 -0.21904705949E+01  0.58978056248E+01  0.53086966578E+01  0.82325911971E+01  0.10500000000E+00 0.  1.
    3000001    1    5    5    0    0  0.63532394338E+01 -0.18644498577E+02 -0.20064432782E+02  0.28134719500E+02  0.10000000000E+01 0. -1.
        -13    1    6    6    0    0  0.87472440470E+01 -0.88278072729E+01 -0.16594038975E+02  0.20732043174E+02  0.10500000000E+00 0. -1.
         13    1    6    6    0    0  0.56576007688E+01 -0.58262684882E+01 -0.10949898616E+02  0.13633237167E+02  0.10500000000E+00 0.  1.
</event>
<event>
11    0  0.3396091E-009  0.9118800E+02  0.7816531E-02  0.1126479E+00
         25   -1    0    0    0    0  0.00000000000E+00  0.00000000000E+00  0.99999998245E-14  0.12500000000E+03  0.12500000000E+03 0.  0.
    3000001    1    3    3    0    0 -0.44136355028E+02 -0.24675303299E+02  0.16780974456E+02  0.53286860780E+02  0.10000000000E+01 0.  1.
    1000022    2    1    0    0    0 -0.52054521841E+02 -0.25226785889E+02  0.21451948274E+02  0.62500000438E+02  0.99999999867E+01 0.  0.
    3000022    2    3    3    0    0 -0.79181668126E+01 -0.55148259002E+00  0.46709738175E+01  0.92131396588E+01  0.24989447820E+00 0.  0.
    1000022    2    1    0    0    0  0.52054521841E+02  0.25226785889E+02 -0.21451948274E+02  0.62499999562E+02  0.99999945060E+01 0.  0.
    3000022    2    5    5    0    0  0.13026500605E+02  0.76666943063E+01 -0.12629294684E+01  0.15169885065E+02  0.25000487825E+00 0.  0.
        -13    1    4    4    0    0 -0.52666104647E+01 -0.39244946915E+00  0.30523426712E+01  0.61007395581E+01  0.10500000000E+00 0. -1.
         13    1    4    4    0    0 -0.26515563479E+01 -0.15903312087E+00  0.16186311462E+01  0.31124001007E+01  0.10500000000E+00 0.  1.
    3000001    1    5    5    0    0  0.39028021236E+02  0.17560091583E+02 -0.20189018805E+02  0.47330114497E+02  0.10000000000E+01 0.  1.
        -13    1    6    6    0    0  0.81579949026E+01  0.47906383671E+01 -0.85000353732E+00  0.94992961744E+01  0.10500000000E+00 0. -1.
         13    1    6    6    0    0  0.48685057023E+01  0.28760559392E+01 -0.41292593107E+00  0.56705888904E+01  0.10500000000E+00 0.  1.
</event>
<event>
11    0  0.3396091E-009  0.9118800E+02  0.7816531E-02  0.1126479E+00
         25   -1    0    0    0    0  0.00000000000E+00  0.00000000000E+00  0.99999998245E-14  0.12500000000E+03  0.12500000000E+03 0.  0.
    3000001    1    3    3    0    0  0.19744643931E+02 -0.24674254792E+02 -0.28659370770E+02  0.42673520437E+02  0.10000000000E+01 0. -1.
    1000022    2    1    0    0    0  0.30642042465E+02 -0.30040302405E+02 -0.44327141924E+02  0.62500000707E+02  0.10000002115E+02 0.  0.
    3000022    2    3    3    0    0  0.10897398534E+02 -0.53660476124E+01 -0.15667771153E+02  0.19826480270E+02  0.25001043533E+00 0.  0.
    1000022    2    1    0    0    0 -0.30642042465E+02  0.30040302405E+02  0.44327141924E+02  0.62499999293E+02  0.99999932778E+01 0.  0.
    3000022    2    5    5    0    0 -0.18640525751E+02  0.13714334617E+02  0.28834982764E+02  0.36973921978E+02  0.25000243716E+00 0.  0.
        -13    1    4    4    0    0  0.31956102024E+01 -0.15369186954E+01 -0.46215811955E+01  0.58261549403E+01  0.10500000000E+00 0. -1.
         13    1    4    4    0    0  0.77017883316E+01 -0.38291289171E+01 -0.11046189958E+02  0.14000325330E+02  0.10500000000E+00 0.  1.
    3000001    1    5    5    0    0 -0.12001516714E+02  0.16325967788E+02  0.15492159159E+02  0.25526077315E+02  0.10000000000E+01 0.  1.
        -13    1    6    6    0    0 -0.10069857319E+02  0.74915168260E+01  0.15628686741E+02  0.20044743077E+02  0.10500000000E+00 0. -1.
         13    1    6    6    0    0 -0.85706684319E+01  0.62228177905E+01  0.13206296023E+02  0.16929178901E+02  0.10500000000E+00 0.  1.
</event>
<event>
11    0  0.3396091E-009  0.9118800E+02  0.7816531E-02  0.1126479E+00
         25   -1    0    0    0    0  0.00000000000E+00  0.00000000000E+00  0.99999998245E-14  0.12500000000E+03  0.12500000000E+03 0.  0.
    3000001    1    3    3    0    0  0.14693919560E+02  0.20415073090E+02 -0.18892249877E+02  0.31473855606E+02  0.10000000000E+01 0.  1.
    1000022    2    1    0    0    0  0.21187218291E+02  0.45854477969E+02 -0.35422021434E+02  0.62500007257E+02  0.99999967986E+01 0.  0.
    3000022    2    3    3    0    0  0.64932987308E+01  0.25439404879E+02 -0.16529771557E+02  0.31026151651E+02  0.24997908275E+00 0.  0.
    1000022    2    1    0    0    0 -0.21187218291E+02 -0.45854477969E+02  0.35422021434E+02  0.62499992743E+02  0.99999060829E+01 0.  0.
    3000022    2    5    5    0    0 -0.67397411819E+00 -0.53671880755E+01  0.95173809081E+00  0.54981132724E+01  0.24999042432E+00 0.  0.
        -13    1    4    4    0    0  0.45487087544E+01  0.17946007769E+02 -0.11617939855E+02  0.21857206996E+02  0.10500000000E+00 0. -1.
         13    1    4    4    0    0  0.19445899764E+01  0.74933971104E+01 -0.49118317019E+01  0.91689446557E+01  0.10500000000E+00 0.  1.
    3000001    1    5    5    0    0 -0.20513244172E+02 -0.40487289894E+02  0.34470283343E+02  0.57001879470E+02  0.10000000000E+01 0.  1.
        -13    1    6    6    0    0 -0.38752774816E+00 -0.30215387235E+01  0.46937805953E+00  0.30840257418E+01  0.10500000000E+00 0. -1.
         13    1    6    6    0    0 -0.28644637003E+00 -0.23456493520E+01  0.48236003128E+00  0.24140875306E+01  0.10500000000E+00 0.  1.
</event>
<event>
11    0  0.3396091E-009  0.9118800E+02  0.7816531E-02  0.1126479E+00
         25   -1    0    0    0    0  0.00000000000E+00  0.00000000000E+00  0.99999998245E-14  0.12500000000E+03  0.12500000000E+03 0.  0.
    3000001    1    3    3    0    0  0.42371546072E+02 -0.51182089779E+01  0.35807613747E+02  0.55720096751E+02  0.10000000000E+01 0.  1.
    1000022    2    1    0    0    0  0.48463214658E+02 -0.31725481712E+01  0.38046047799E+02  0.62500001039E+02  0.10000006991E+02 0.  0.
    3000022    2    3    3    0    0  0.60916685865E+01  0.19456608066E+01  0.22384340521E+01  0.67799042882E+01  0.24998601969E+00 0.  0.
    1000022    2    1    0    0    0 -0.48463214658E+02  0.31725481712E+01 -0.38046047799E+02  0.62499998961E+02  0.99999940044E+01 0.  0.
    3000022    2    5    5    0    0 -0.41524898458E+02 -0.47818970610E+00 -0.33689658685E+02  0.53475241632E+02  0.25001579155E+00 0.  0.
        -13    1    4    4    0    0  0.16984421778E+01  0.56745124106E+00  0.59381091460E+00  0.18895351662E+01  0.10500000000E+00 0.  1.
         13    1    4    4    0    0  0.43932264087E+01  0.13782095655E+01  0.16446231375E+01  0.48903691220E+01  0.10500000000E+00 0. -1.
    3000001    1    5    5    0    0 -0.69383161998E+01  0.36507378773E+01 -0.43563891144E+01  0.90247573293E+01  0.10000000000E+01 0. -1.
        -13    1    6    6    0    0 -0.16632613190E+02 -0.18760435266E+00 -0.13575443521E+02  0.21470507882E+02  0.10500000000E+00 0. -1.
         13    1    6    6    0    0 -0.24892285268E+02 -0.29058535344E+00 -0.20114215164E+02  0.32004733750E+02  0.10500000000E+00 0.  1.
</event>
<event>
11    0  0.3396091E-009  0.9118800E+02  0.7816531E-02  0.1126479E+00
         25   -1    0    0    0    0  0.00000000000E+00  0.00000000000E+00  0.99999998245E-14  0.12500000000E+03  0.12500000000E+03 0.  0.
    3000001    1    3    3    0    0  0.19959221427E+02  0.37483710049E+02 -0.23799426201E+02  0.48690981984E+02  0.10000000000E+01 0.  1.
    1000022    2    1    0    0    0  0.29854773588E+02  0.46083811262E+02 -0.28128708621E+02  0.62499996108E+02  0.10000004917E+02 0.  0.
    3000022    2    3    3    0    0  0.98955521606E+01  0.86001012133E+01 -0.43292824193E+01  0.13809014124E+02  0.24998272950E+00 0.  0.
    1000022    2    1    0    0    0 -0.29854773588E+02 -0.46083811262E+02  0.28128708621E+02  0.62500003892E+02  0.10000053572E+02 0.  0.
    3000022    2    5    5    0    0 -0.27567228911E+02 -0.39048865523E+02  0.27147354087E+02  0.54970968169E+02  0.24999812648E+00 0.  0.
        -13    1    4    4    0    0  0.54377035410E+01  0.46373098359E+01 -0.23572043959E+01  0.75260015863E+01  0.10500000000E+00 0. -1.
         13    1    4    4    0    0  0.44578486196E+01  0.39627913774E+01 -0.19720780234E+01  0.62830125375E+01  0.10500000000E+00 0.  1.
    3000001    1    5    5    0    0 -0.22875446774E+01 -0.70349457388E+01  0.98135453355E+00  0.75290357231E+01  0.10000000000E+01 0.  1.
        -13    1    6    6    0    0 -0.18579790793E+02 -0.26244808433E+02  0.18297954154E+02  0.36997631638E+02  0.10500000000E+00 0.  1.
         13    1    6    6    0    0 -0.89874381173E+01 -0.12804057090E+02  0.88493999333E+01  0.17973336531E+02  0.10500000000E+00 0. -1.
</event>
<event>
11    0  0.3396091E-009  0.9118800E+02  0.7816531E-02  0.1126479E+00
         25   -1    0    0    0    0  0.00000000000E+00  0.00000000000E+00  0.99999998245E-14  0.12500000000E+03  0.12500000000E+03 0.  0.
    3000001    1    3    3    0    0  0.29702924699E+00 -0.10794240890E+01 -0.79294291263E+01  0.80702682116E+01  0.10000000000E+01 0.  1.
    1000022    2    1    0    0    0  0.24697240612E+02  0.14474580978E+01 -0.56517276534E+02  0.62500010679E+02  0.99999979640E+01 0.  0.
    3000022    2    3    3    0    0  0.24400211365E+02  0.25268821867E+01 -0.48587847407E+02  0.54429742467E+02  0.25000226121E+00 0.  0.
    1000022    2    1    0    0    0 -0.24697240612E+02 -0.14474580978E+01  0.56517276534E+02  0.62499989321E+02  0.99998644785E+01 0.  0.
    3000022    2    5    5    0    0 -0.10711190182E+01 -0.21837299994E+01  0.10214109204E+02  0.10502691097E+02  0.25004156351E+00 0.  0.
        -13    1    4    4    0    0  0.85373101900E+01  0.84034839534E+00 -0.16912296862E+02  0.18963877790E+02  0.10500000000E+00 0. -1.
         13    1    4    4    0    0  0.15862901175E+02  0.16865337914E+01 -0.31675550545E+02  0.35465864677E+02  0.10500000000E+00 0.  1.
    3000001    1    5    5    0    0 -0.23626121594E+02  0.73627190166E+00  0.46303167329E+02  0.51997298224E+02  0.10000000000E+01 0.  1.
        -13    1    6    6    0    0 -0.48762304058E+00 -0.10954849509E+01  0.48133996550E+01  0.49616231967E+01  0.10500000000E+00 0.  1.
         13    1    6    6    0    0 -0.58349597762E+00 -0.10882450485E+01  0.54007095494E+01  0.55410679006E+01  0.10500000000E+00 0. -1.
</event>
<event>
11    0  0.3396091E-009  0.9118800E+02  0.7816531E-02  0.1126479E+00
         25   -1    0    0    0    0  0.00000000000E+00  0.00000000000E+00  0.99999998245E-14  0.12500000000E+03  0.12500000000E+03 0.  0.
    3000001    1    3    3    0    0  0.24197589851E+02 -0.27827464833E+02 -0.29138304863E+01  0.37005155881E+02  0.10000000000E+01 0.  1.
    1000022    2    1    0    0    0  0.37435281968E+02 -0.47450821323E+02 -0.12380190529E+02  0.62500000142E+02  0.10000005996E+02 0.  0.
    3000022    2    3    3    0    0  0.13237692117E+02 -0.19623356490E+02 -0.94663600423E+01  0.25494844261E+02  0.24999787147E+00 0.  0.
    1000022    2    1    0    0    0 -0.37435281968E+02  0.47450821323E+02  0.12380190529E+02  0.62499999858E+02  0.10000004225E+02 0.  0.
    3000022    2    5    5    0    0 -0.34507709531E+02  0.42419681895E+02  0.82719425783E+01  0.55305505745E+02  0.25000518174E+00 0.  0.
        -13    1    4    4    0    0  0.91323613867E+01 -0.13489744383E+02 -0.65585057715E+01  0.17561271337E+02  0.10500000000E+00 0. -1.
         13    1    4    4    0    0  0.41053307304E+01 -0.61336121070E+01 -0.29078542708E+01  0.79335729243E+01  0.10500000000E+00 0.  1.
    3000001    1    5    5    0    0 -0.29275724373E+01  0.50311394279E+01  0.41082479503E+01  0.71944941128E+01  0.10000000000E+01 0.  1.
        -13    1    6    6    0    0 -0.25712778147E+02  0.31621044525E+02  0.61932837574E+01  0.41223842683E+02  0.10500000000E+00 0. -1.
         13    1    6    6    0    0 -0.87949313841E+01  0.10798637370E+02  0.20786588209E+01  0.14081663062E+02  0.10500000000E+00 0.  1.
</event>
<event>
11    0  0.3396091E-009  0.9118800E+02  0.7816531E-02  0.1126479E+00
         25   -1    0    0    0    0  0.00000000000E+00  0.00000000000E+00  0.99999998245E-14  0.12500000000E+03  0.12500000000E+03 0.  0.
    3000001    1    3    3    0    0  0.98647545375E+00  0.16677217692E+00  0.89909395139E-01  0.14174027230E+01  0.10000000000E+01 0. -1.
    1000022    2    1    0    0    0  0.33822529679E+02  0.43481086907E+02 -0.27779156888E+02  0.62499999855E+02  0.99999995980E+01 0.  0.
    3000022    2    3    3    0    0  0.32836054225E+02  0.43314314730E+02 -0.27869066283E+02  0.61082597132E+02  0.24999854047E+00 0.  0.
    1000022    2    1    0    0    0 -0.33822529679E+02 -0.43481086907E+02  0.27779156888E+02  0.62500000145E+02  0.10000001412E+02 0.  0.
    3000022    2    5    5    0    0 -0.48821430578E+01 -0.20680274010E+01  0.40297012231E+01  0.66643115597E+01  0.24999689857E+00 0.  0.
        -13    1    4    4    0    0  0.21010060457E+02  0.27760003780E+02 -0.17907868390E+02  0.39150264693E+02  0.10500000000E+00 0.  1.
         13    1    4    4    0    0  0.11825993769E+02  0.15554310950E+02 -0.99611978932E+01  0.21932332439E+02  0.10500000000E+00 0. -1.
    3000001    1    5    5    0    0 -0.28940386621E+02 -0.41413059506E+02  0.23749455665E+02  0.55835688585E+02  0.10000000000E+01 0.  1.
        -13    1    6    6    0    0 -0.37410653493E+01 -0.15703028342E+01  0.30889658993E+01  0.51004074607E+01  0.10500000000E+00 0.  1.
         13    1    6    6    0    0 -0.11410777085E+01 -0.49772456688E+00  0.94073532381E+00  0.15639040990E+01  0.10500000000E+00 0. -1.
</event>
<event>
11    0  0.3396091E-009  0.9118800E+02  0.7816531E-02  0.1126479E+00
         25   -1    0    0    0    0  0.00000000000E+00  0.00000000000E+00  0.99999998245E-14  0.12500000000E+03  0.12500000000E+03 0.  0.
    3000001    1    3    3    0    0  0.93606313102E+00  0.26693823084E+02  0.37038235570E+02  0.45675675136E+02  0.10000000000E+01 0. -1.
    1000022    2    1    0    0    0  0.34895519349E+00  0.40657185702E+02  0.46401740254E+02  0.62500000713E+02  0.10000003578E+02 0.  0.
    3000022    2    3    3    0    0 -0.58710793754E+00  0.13963362617E+02  0.93635046849E+01  0.16824325577E+02  0.25003962852E+00 0.  0.
    1000022    2    1    0    0    0 -0.34895519349E+00 -0.40657185702E+02 -0.46401740254E+02  0.62499999287E+02  0.99999946684E+01 0.  0.
    3000022    2    5    5    0    0 -0.29135946926E+01 -0.97369593706E+01 -0.70206940987E+01  0.12355163377E+02  0.25000926840E+00 0.  0.
        -13    1    4    4    0    0 -0.46495287677E+00  0.10645174277E+02  0.71376757594E+01  0.12825496358E+02  0.10500000000E+00 0. -1.
         13    1    4    4    0    0 -0.12215506077E+00  0.33181883396E+01  0.22258289255E+01  0.39988292188E+01  0.10500000000E+00 0.  1.
    3000001    1    5    5    0    0  0.25646394991E+01 -0.30920226331E+02 -0.39381046156E+02  0.50144835910E+02  0.10000000000E+01 0.  1.
        -13    1    6    6    0    0 -0.12794778486E+01 -0.41502723863E+01 -0.29339712535E+01  0.52422358553E+01  0.10500000000E+00 0.  1.
         13    1    6    6    0    0 -0.16341168440E+01 -0.55866869843E+01 -0.40867228451E+01  0.71129275220E+01  0.10500000000E+00 0. -1.
</event>
<event>
11    0  0.3396091E-009  0.9118800E+02  0.7816531E-02  0.1126479E+00
         25   -1    0    0    0    0  0.00000000000E+00  0.00000000000E+00  0.99999998245E-14  0.12500000000E+03  0.12500000000E+03 0.  0.
    3000001    1    3    3    0    0  0.25486898938E+00 -0.57235219744E+01 -0.19079183453E+02  0.19945899409E+02  0.10000000000E+01 0.  1.
    1000022    2    1    0    0    0 -0.91188970124E+01 -0.75649344118E+01 -0.60546407326E+02  0.62499999721E+02  0.10000000483E+02 0.  0.
    3000022    2    3    3    0    0 -0.93737660018E+01 -0.18414124375E+01 -0.41467223873E+02  0.42554100312E+02  0.25001763841E+00 0.  0.
    1000022    2    1    0    0    0  0.91188970124E+01  0.75649344118E+01  0.60546407326E+02  0.62500000279E+02  0.10000003969E+02 0.  0.
    3000022    2    5    5    0    0  0.11057066496E+02  0.73213461350E+01  0.53509415224E+02  0.55128766051E+02  0.24999997789E+00 0.  0.
        -13    1    4    4    0    0 -0.46254981139E+01 -0.93594414201E+00 -0.20207601328E+02  0.20751612002E+02  0.10500000000E+00 0.  1.
         13    1    4    4    0    0 -0.47482678879E+01 -0.90546829545E+00 -0.21259622545E+02  0.21802488311E+02  0.10500000000E+00 0. -1.
    3000001    1    5    5    0    0 -0.19381694832E+01  0.24358827681E+00  0.70369921020E+01  0.73712342276E+01  0.10000000000E+01 0. -1.
        -13    1    6    6    0    0  0.82415808642E+01  0.54872186822E+01  0.40000661275E+02  0.41207974368E+02  0.10500000000E+00 0. -1.
         13    1    6    6    0    0  0.28154856314E+01  0.18341274528E+01  0.13508753949E+02  0.13920791684E+02  0.10500000000E+00 0.  1.
</event>
<event>
11    0  0.3396091E-009  0.9118800E+02  0.7816531E-02  0.1126479E+00
         25   -1    0    0    0    0  0.00000000000E+00  0.00000000000E+00  0.99999998245E-14  0.12500000000E+03  0.12500000000E+03 0.  0.
    3000001    1    3    3    0    0 -0.24011567369E+02  0.11204838032E+02  0.21933041483E+02  0.34411656041E+02  0.10000000000E+01 0.  1.
    1000022    2    1    0    0    0 -0.42867926349E+02  0.27641993091E+02  0.34706067219E+02  0.62500000532E+02  0.10000003659E+02 0.  0.
    3000022    2    3    3    0    0 -0.18856358980E+02  0.16437155059E+02  0.12773025736E+02  0.28088344491E+02  0.25013863414E+00 0.  0.
    1000022    2    1    0    0    0  0.42867926349E+02 -0.27641993091E+02 -0.34706067219E+02  0.62499999468E+02  0.99999970045E+01 0.  0.
    3000022    2    5    5    0    0  0.92019457483E+01 -0.16298180455E+01 -0.50039708448E+01  0.10603506046E+02  0.25000766846E+00 0.  0.
        -13    1    4    4    0    0 -0.53034054313E+01  0.46738947175E+01  0.35944042667E+01  0.79310887040E+01  0.10500000000E+00 0. -1.
         13    1    4    4    0    0 -0.13552953549E+02  0.11763260342E+02  0.91786214698E+01  0.20157255787E+02  0.10500000000E+00 0.  1.
    3000001    1    5    5    0    0  0.33665980601E+02 -0.26012175046E+02 -0.29702096375E+02  0.51896493422E+02  0.10000000000E+01 0.  1.
        -13    1    6    6    0    0  0.52364549000E+01 -0.86747627434E+00 -0.28091602849E+01  0.60062785077E+01  0.10500000000E+00 0. -1.
         13    1    6    6    0    0  0.39654908483E+01 -0.76234177118E+00 -0.21948105599E+01  0.45972275382E+01  0.10500000000E+00 0.  1.
</event>
<event>
11    0  0.3396091E-009  0.9118800E+02  0.7816531E-02  0.1126479E+00
         25   -1    0    0    0    0  0.00000000000E+00  0.00000000000E+00  0.99999998245E-14  0.12500000000E+03  0.12500000000E+03 0.  0.
    3000001    1    3    3    0    0  0.36608159950E+01 -0.30069392793E+02 -0.33147088552E+02  0.44914356682E+02  0.10000000000E+01 0.  1.
    1000022    2    1    0    0    0  0.94355402937E+01 -0.43971574518E+02 -0.42234124766E+02  0.62499999250E+02  0.99999912592E+01 0.  0.
    3000022    2    3    3    0    0  0.57747242987E+01 -0.13902181725E+02 -0.90870362147E+01  0.17585642568E+02  0.24999982171E+00 0.  0.
    1000022    2    1    0    0    0 -0.94355402937E+01  0.43971574518E+02  0.42234124766E+02  0.62500000750E+02  0.10000000638E+02 0.  0.
    3000022    2    5    5    0    0 -0.87377217388E+01  0.22248482621E+02  0.26245285468E+02  0.35499581227E+02  0.24999579227E+00 0.  0.
        -13    1    4    4    0    0  0.31699467598E+01 -0.77552434979E+01 -0.50030197349E+01  0.97587701910E+01  0.10500000000E+00 0. -1.
         13    1    4    4    0    0  0.26047775390E+01 -0.61469382272E+01 -0.40840164798E+01  0.78268723769E+01  0.10500000000E+00 0.  1.
    3000001    1    5    5    0    0 -0.69781855496E+00  0.21723091897E+02  0.15988839299E+02  0.27000419523E+02  0.10000000000E+01 0.  1.
        -13    1    6    6    0    0 -0.50760805805E+01  0.13073270318E+02  0.15346907583E+02  0.20789795291E+02  0.10500000000E+00 0.  1.
         13    1    6    6    0    0 -0.36616411583E+01  0.91752123026E+01  0.10898377885E+02  0.14709785936E+02  0.10500000000E+00 0. -1.
</event>
<event>
11    0  0.3396091E-009  0.9118800E+02  0.7816531E-02  0.1126479E+00
         25   -1    0    0    0    0  0.00000000000E+00  0.00000000000E+00  0.99999998245E-14  0.12500000000E+03  0.12500000000E+03 0.  0.
    3000001    1    3    3    0    0  0.10542416127E+02 -0.13886461990E+02  0.87270791275E+01  0.19522762983E+02  0.10000000000E+01 0.  1.
    1000022    2    1    0    0    0  0.39396695244E+02 -0.45207648802E+02  0.14505809805E+02  0.62499994002E+02  0.99999812853E+01 0.  0.
    3000022    2    3    3    0    0  0.28854279117E+02 -0.31321186812E+02  0.57787306771E+01  0.42977231019E+02  0.24998214440E+00 0.  0.
    1000022    2    1    0    0    0 -0.39396695244E+02  0.45207648802E+02 -0.14505809805E+02  0.62500005998E+02  0.10000056265E+02 0.  0.
    3000022    2    5    5    0    0 -0.31578796286E+02  0.31487628595E+02 -0.13718104971E+02  0.46657689958E+02  0.24999766826E+00 0.  0.
        -13    1    4    4    0    0  0.13571528398E+02 -0.14729182515E+02  0.26497583990E+01  0.20203154338E+02  0.10500000000E+00 0. -1.
         13    1    4    4    0    0  0.15282750719E+02 -0.16592004297E+02  0.31289722781E+01  0.22774076681E+02  0.10500000000E+00 0.  1.
    3000001    1    5    5    0    0 -0.78178989581E+01  0.13720020207E+02 -0.78770483388E+00  0.15842316040E+02  0.10000000000E+01 0.  1.
        -13    1    6    6    0    0 -0.24224250471E+02  0.24170556876E+02 -0.10526609922E+02  0.35802942226E+02  0.10500000000E+00 0. -1.
         13    1    6    6    0    0 -0.73545458147E+01  0.73170717190E+01 -0.31914950491E+01  0.10854747732E+02  0.10500000000E+00 0.  1.
</event>
<event>
11    0  0.3396091E-009  0.9118800E+02  0.7816531E-02  0.1126479E+00
         25   -1    0    0    0    0  0.00000000000E+00  0.00000000000E+00  0.99999998245E-14  0.12500000000E+03  0.12500000000E+03 0.  0.
    3000001    1    3    3    0    0  0.14777162884E+02 -0.46998320943E+02  0.33511508174E+02  0.59592179810E+02  0.10000000000E+01 0.  1.
    1000022    2    1    0    0    0  0.13493492233E+02 -0.49471828047E+02  0.34303265532E+02  0.62500001209E+02  0.10000001099E+02 0.  0.
    3000022    2    3    3    0    0 -0.12836706519E+01 -0.24735071035E+01  0.79175735857E+00  0.29078213989E+01  0.24999567815E+00 0.  0.
    1000022    2    1    0    0    0 -0.13493492233E+02  0.49471828047E+02 -0.34303265532E+02  0.62499998791E+02  0.99999859924E+01 0.  0.
    3000022    2    5    5    0    0 -0.12240779032E+02  0.48841584332E+02 -0.33984978592E+02  0.60748483996E+02  0.25001306613E+00 0.  0.
        -13    1    4    4    0    0 -0.81543647027E+00 -0.15171650200E+01  0.54656979347E+00  0.18101076968E+01  0.10500000000E+00 0. -1.
         13    1    4    4    0    0 -0.46823418167E+00 -0.95634208356E+00  0.24518756510E+00  0.10977137021E+01  0.10500000000E+00 0.  1.
    3000001    1    5    5    0    0 -0.12527132001E+01  0.63024371437E+00 -0.31828694002E+00  0.17515147951E+01  0.10000000000E+01 0.  1.
        -13    1    6    6    0    0 -0.47638595404E+01  0.19056031939E+02 -0.13184204761E+02  0.23657155179E+02  0.10500000000E+00 0. -1.
         13    1    6    6    0    0 -0.74769194920E+01  0.29785552393E+02 -0.20800773831E+02  0.37091328817E+02  0.10500000000E+00 0.  1.
</event>
<event>
11    0  0.3396091E-009  0.9118800E+02  0.7816531E-02  0.1126479E+00
         25   -1    0    0    0    0  0.00000000000E+00  0.00000000000E+00  0.99999998245E-14  0.12500000000E+03  0.12500000000E+03 0.  0.
    3000001    1    3    3    0    0 -0.29273058454E+02  0.26069422721E+02 -0.10350982508E+02  0.40554526149E+02  0.10000000000E+01 0. -1.
    1000022    2    1    0    0    0 -0.45958591224E+02  0.40227025421E+02 -0.87088589619E+01  0.62499999149E+02  0.99999993822E+01 0.  0.
    3000022    2    3    3    0    0 -0.16685532770E+02  0.14157602700E+02  0.16421235458E+01  0.21945473000E+02  0.24999485774E+00 0.  0.
    1000022    2    1    0    0    0  0.45958591224E+02 -0.40227025421E+02  0.87088589619E+01  0.62500000851E+02  0.10000010024E+02 0.  0.
    3000022    2    5    5    0    0  0.43702950907E+02 -0.36356370627E+02  0.59864868046E+01  0.57163223553E+02  0.24999904894E+00 0.  0.
        -13    1    4    4    0    0 -0.12039542497E+02  0.10214848177E+02  0.11455507791E+01  0.15830888112E+02  0.10500000000E+00 0.  1.
         13    1    4    4    0    0 -0.46459902730E+01  0.39427545226E+01  0.49657276665E+00  0.61145848882E+01  0.10500000000E+00 0.  1.
    3000001    1    5    5    0    0  0.22556403171E+01 -0.38706547936E+01  0.27223721572E+01  0.53367772985E+01  0.10000000000E+01 0.  1.
        -13    1    6    6    0    0  0.15679989506E+02 -0.13017090669E+02  0.22003556619E+01  0.20497787940E+02  0.10500000000E+00 0. -1.
         13    1    6    6    0    0  0.28022961401E+02 -0.23339279958E+02  0.37861311427E+01  0.36665435613E+02  0.10500000000E+00 0.  1.
</event>
<event>
11    0  0.3396091E-009  0.9118800E+02  0.7816531E-02  0.1126479E+00
         25   -1    0    0    0    0  0.00000000000E+00  0.00000000000E+00  0.99999998245E-14  0.12500000000E+03  0.12500000000E+03 0.  0.
    3000001    1    3    3    0    0  0.41422268180E+02 -0.31783412316E+02  0.15292892419E+02  0.54413804850E+02  0.10000000000E+01 0.  1.
    1000022    2    1    0    0    0  0.48783951168E+02 -0.32977625496E+02  0.18407948218E+02  0.62500002444E+02  0.10000003650E+02 0.  0.
    3000022    2    3    3    0    0  0.73616829879E+01 -0.11942131799E+01  0.31150557993E+01  0.80861975949E+01  0.24999475251E+00 0.  0.
    1000022    2    1    0    0    0 -0.48783951168E+02  0.32977625496E+02 -0.18407948218E+02  0.62499997556E+02  0.99999730945E+01 0.  0.
    3000022    2    5    5    0    0 -0.37525381628E+02  0.24619307466E+02 -0.18226996509E+02  0.48441206288E+02  0.24999690504E+00 0.  0.
        -13    1    4    4    0    0  0.47453457593E+01 -0.82424468310E+00  0.19898750425E+01  0.52123232208E+01  0.10500000000E+00 0.  1.
         13    1    4    4    0    0  0.26163372286E+01 -0.36996849685E+00  0.11251807568E+01  0.28738743741E+01  0.10500000000E+00 0. -1.
    3000001    1    5    5    0    0 -0.11258569540E+02  0.83583180302E+01 -0.18095170896E+00  0.14058791268E+02  0.10000000000E+01 0. -1.
        -13    1    6    6    0    0 -0.11387216240E+02  0.75146270681E+01 -0.55725144557E+01  0.14737783281E+02  0.10500000000E+00 0. -1.
         13    1    6    6    0    0 -0.26138165388E+02  0.17104680398E+02 -0.12654482053E+02  0.33703423007E+02  0.10500000000E+00 0.  1.
</event>
<event>
11    0  0.3396091E-009  0.9118800E+02  0.7816531E-02  0.1126479E+00
         25   -1    0    0    0    0  0.00000000000E+00  0.00000000000E+00  0.99999998245E-14  0.12500000000E+03  0.12500000000E+03 0.  0.
    3000001    1    3    3    0    0 -0.38122593617E+02 -0.12738742483E+02 -0.60692904907E-01  0.40207106184E+02  0.10000000000E+01 0.  1.
    1000022    2    1    0    0    0 -0.55854716897E+02 -0.26144159135E+02 -0.17272167363E+01  0.62500001730E+02  0.10000024099E+02 0.  0.
    3000022    2    3    3    0    0 -0.17732123280E+02 -0.13405416653E+02 -0.16665238314E+01  0.22292895545E+02  0.24999687097E+00 0.  0.
    1000022    2    1    0    0    0  0.55854716897E+02  0.26144159135E+02  0.17272167363E+01  0.62499998270E+02  0.10000002480E+02 0.  0.
    3000022    2    5    5    0    0  0.49196059030E+02  0.22695996587E+02 -0.16746227757E+01  0.54205418015E+02  0.24999113604E+00 0.  0.
        -13    1    4    4    0    0 -0.69480765257E+01 -0.51761443997E+01 -0.63909677964E+00  0.86883662415E+01  0.10500000000E+00 0.  1.
         13    1    4    4    0    0 -0.10784046755E+02 -0.82292722531E+01 -0.10274270517E+01  0.13604529304E+02  0.10500000000E+00 0. -1.
    3000001    1    5    5    0    0  0.66586578670E+01  0.34481625479E+01  0.34018395120E+01  0.82945802554E+01  0.10000000000E+01 0.  1.
        -13    1    6    6    0    0  0.19276478214E+02  0.89517703899E+01 -0.68892653514E+00  0.21265052321E+02  0.10500000000E+00 0.  1.
         13    1    6    6    0    0  0.29919580816E+02  0.13744226198E+02 -0.98569624061E+00  0.32940365694E+02  0.10500000000E+00 0. -1.
</event>
<event>
11    0  0.3396091E-009  0.9118800E+02  0.7816531E-02  0.1126479E+00
         25   -1    0    0    0    0  0.00000000000E+00  0.00000000000E+00  0.99999998245E-14  0.12500000000E+03  0.12500000000E+03 0.  0.
    3000001    1    3    3    0    0 -0.26571711541E+01 -0.20451699021E+02 -0.11089760150E+02  0.23437477074E+02  0.10000000000E+01 0.  1.
    1000022    2    1    0    0    0 -0.15734769750E+01 -0.47857761145E+02 -0.38902555030E+02  0.62500000155E+02  0.10000004997E+02 0.  0.
    3000022    2    3    3    0    0  0.10836941791E+01 -0.27406062124E+02 -0.27812794880E+02  0.39062523081E+02  0.25003251769E+00 0.  0.
    1000022    2    1    0    0    0  0.15734769750E+01  0.47857761145E+02  0.38902555030E+02  0.62499999845E+02  0.10000003058E+02 0.  0.
    3000022    2    5    5    0    0 -0.28476156791E+01  0.29804584975E+02  0.20231772956E+02  0.36135983965E+02  0.24999914007E+00 0.  0.
        -13    1    4    4    0    0  0.35815360726E+00 -0.96363978258E+01 -0.97047820881E+01  0.13681456700E+02  0.10500000000E+00 0.  1.
         13    1    4    4    0    0  0.72554057180E+00 -0.17769664298E+02 -0.18108012792E+02  0.25381066381E+02  0.10500000000E+00 0. -1.
    3000001    1    5    5    0    0  0.44210926541E+01  0.18053176169E+02  0.18670782074E+02  0.26364015879E+02  0.10000000000E+01 0. -1.
        -13    1    6    6    0    0 -0.16031924610E+01  0.17001945843E+02  0.11464870084E+02  0.20569167692E+02  0.10500000000E+00 0. -1.
         13    1    6    6    0    0 -0.12444232180E+01  0.12802639133E+02  0.87669028726E+01  0.15566816273E+02  0.10500000000E+00 0.  1.
</event>
<event>
11    0  0.3396091E-009  0.9118800E+02  0.7816531E-02  0.1126479E+00
         25   -1    0    0    0    0  0.00000000000E+00  0.00000000000E+00  0.99999998245E-14  0.12500000000E+03  0.12500000000E+03 0.  0.
    3000001    1    3    3    0    0 -0.46416881241E+02 -0.53550227743E+01 -0.83697587761E+01  0.47479005834E+02  0.10000000000E+01 0.  1.
    1000022    2    1    0    0    0 -0.61207685761E+02 -0.51554890217E+01 -0.57697512435E+01  0.62499999551E+02  0.10000002558E+02 0.  0.
    3000022    2    3    3    0    0 -0.14790804521E+02  0.19953375259E+00  0.26000075326E+01  0.15020993717E+02  0.25000197403E+00 0.  0.
    1000022    2    1    0    0    0  0.61207685761E+02  0.51554890217E+01  0.57697512435E+01  0.62500000449E+02  0.10000008171E+02 0.  0.
    3000022    2    5    5    0    0  0.15370685759E+02  0.23100987352E+01 -0.27325709182E+01  0.15783661795E+02  0.24999794256E+00 0.  0.
        -13    1    4    4    0    0 -0.73624349136E+01  0.55240275037E-01  0.13464424989E+01  0.74854813972E+01  0.10500000000E+00 0.  1.
         13    1    4    4    0    0 -0.74283696070E+01  0.14429347756E+00  0.12535650337E+01  0.75355123197E+01  0.10500000000E+00 0. -1.
    3000001    1    5    5    0    0  0.45837000002E+02  0.28453902864E+01  0.85023221617E+01  0.46716338654E+02  0.10000000000E+01 0. -1.
        -13    1    6    6    0    0  0.11305374542E+02  0.16781145537E+01 -0.19821033009E+01  0.11600315534E+02  0.10500000000E+00 0.  1.
         13    1    6    6    0    0  0.40653112170E+01  0.63198418155E+00 -0.75046761733E+00  0.41833462613E+01  0.10500000000E+00 0. -1.
</event>
<event>
11    0  0.3396091E-009  0.9118800E+02  0.7816531E-02  0.1126479E+00
         25   -1    0    0    0    0  0.00000000000E+00  0.00000000000E+00  0.99999998245E-14  0.12500000000E+03  0.12500000000E+03 0.  0.
    3000001    1    3    3    0    0 -0.42082732274E+02  0.41710810371E+02 -0.11570818612E+02  0.60379068400E+02  0.10000000000E+01 0. -1.
    1000022    2    1    0    0    0 -0.42048533338E+02  0.43761892254E+02 -0.11093587761E+02  0.62500001092E+02  0.10000003880E+02 0.  0.
    3000022    2    3    3    0    0  0.34198935279E-01  0.20510818824E+01  0.47723085159E+00  0.21209326927E+01  0.24999949183E+00 0.  0.
    1000022    2    1    0    0    0  0.42048533338E+02 -0.43761892254E+02  0.11093587761E+02  0.62499998908E+02  0.99999902250E+01 0.  0.
    3000022    2    5    5    0    0  0.14016457975E+02 -0.21527699291E+02  0.55066606748E+01  0.26273346563E+02  0.24999372546E+00 0.  0.
        -13    1    4    4    0    0  0.49796345894E-01  0.90844246636E+00  0.15383509836E+00  0.92867520061E+00  0.10500000000E+00 0.  1.
         13    1    4    4    0    0 -0.15597410615E-01  0.11426394160E+01  0.32339575323E+00  0.11922574921E+01  0.10500000000E+00 0. -1.
    3000001    1    5    5    0    0  0.28032075363E+02 -0.22234192962E+02  0.55869270859E+01  0.36226652345E+02  0.10000000000E+01 0.  1.
        -13    1    6    6    0    0  0.82417814428E+01 -0.12759710540E+02  0.32888495473E+01  0.15542352806E+02  0.10500000000E+00 0. -1.
         13    1    6    6    0    0  0.57746765324E+01 -0.87679887516E+01  0.22178111275E+01  0.10730993756E+02  0.10500000000E+00 0.  1.
</event>
<event>
11    0  0.3396091E-009  0.9118800E+02  0.7816531E-02  0.1126479E+00
         25   -1    0    0    0    0  0.00000000000E+00  0.00000000000E+00  0.99999998245E-14  0.12500000000E+03  0.12500000000E+03 0.  0.
    3000001    1    3    3    0    0  0.53622513319E+01 -0.30212723619E+01 -0.99777598247E+00  0.63148541506E+01  0.10000000000E+01 0.  1.
    1000022    2    1    0    0    0  0.33422074472E+02 -0.49388429469E+02 -0.15811318031E+02  0.62499998618E+02  0.10000001094E+02 0.  0.
    3000022    2    3    3    0    0  0.28059823140E+02 -0.46367157107E+02 -0.14813542049E+02  0.56185144467E+02  0.24999578565E+00 0.  0.
    1000022    2    1    0    0    0 -0.33422074472E+02  0.49388429469E+02  0.15811318031E+02  0.62500001382E+02  0.10000018373E+02 0.  0.
    3000022    2    5    5    0    0 -0.90724606246E+01  0.12325103596E+02  0.86100203955E+01  0.17561682467E+02  0.25003884336E+00 0.  0.
        -13    1    4    4    0    0  0.18962460608E+02 -0.31236106399E+02 -0.99765779787E+01  0.37878917467E+02  0.10500000000E+00 0. -1.
         13    1    4    4    0    0  0.90973625321E+01 -0.15131050708E+02 -0.48369640699E+01  0.18306227000E+02  0.10500000000E+00 0.  1.
    3000001    1    5    5    0    0 -0.24349613847E+02  0.37063325873E+02  0.72012976355E+01  0.44938318916E+02  0.10000000000E+01 0. -1.
        -13    1    6    6    0    0 -0.55395161835E+01  0.74429875866E+01  0.51750045459E+01  0.10624311781E+02  0.10500000000E+00 0.  1.
         13    1    6    6    0    0 -0.35329444411E+01  0.48821160092E+01  0.34350158496E+01  0.69373706862E+01  0.10500000000E+00 0. -1.
</event>
<event>
11    0  0.3396091E-009  0.9118800E+02  0.7816531E-02  0.1126479E+00
         25   -1    0    0    0    0  0.00000000000E+00  0.00000000000E+00  0.99999998245E-14  0.12500000000E+03  0.12500000000E+03 0.  0.
    3000001    1    3    3    0    0  0.29475719329E+02  0.29686927938E+02  0.11343567914E+02  0.43356755568E+02  0.10000000000E+01 0. -1.
    1000022    2    1    0    0    0  0.38994273151E+02  0.46281607119E+02  0.11987871748E+02  0.62500001684E+02  0.10000032270E+02 0.  0.
    3000022    2    3    3    0    0  0.95185538223E+01  0.16594679180E+02  0.64430383338E+00  0.19143246116E+02  0.25000091862E+00 0.  0.
    1000022    2    1    0    0    0 -0.38994273151E+02 -0.46281607119E+02 -0.11987871748E+02  0.62499998316E+02  0.10000011220E+02 0.  0.
    3000022    2    5    5    0    0 -0.91292780704E+00  0.36907252046E+00 -0.67084099797E+00  0.12174562751E+01  0.25004085887E+00 0.  0.
        -13    1    4    4    0    0  0.30419424563E+01  0.53781391609E+01  0.17264551444E+00  0.61821214979E+01  0.10500000000E+00 0. -1.
         13    1    4    4    0    0  0.64766113659E+01  0.11216540019E+02  0.47165831894E+00  0.12961124618E+02  0.10500000000E+00 0.  1.
    3000001    1    5    5    0    0 -0.38081345344E+02 -0.46650679639E+02 -0.11317030750E+02  0.61282542041E+02  0.10000000000E+01 0. -1.
        -13    1    6    6    0    0 -0.47009731984E+00  0.13216953343E+00 -0.28120923918E+00  0.57320494754E+00  0.10500000000E+00 0.  1.
         13    1    6    6    0    0 -0.44283048720E+00  0.23690298703E+00 -0.38963175879E+00  0.64425132760E+00  0.10500000000E+00 0. -1.
</event>
<event>
11    0  0.3396091E-009  0.9118800E+02  0.7816531E-02  0.1126479E+00
         25   -1    0    0    0    0  0.00000000000E+00  0.00000000000E+00  0.99999998245E-14  0.12500000000E+03  0.12500000000E+03 0.  0.
    3000001    1    3    3    0    0  0.27342976006E+01 -0.30847991385E+01  0.98645117140E+01  0.10737828479E+02  0.10000000000E+01 0. -1.
    1000022    2    1    0    0    0  0.23985229468E+02  0.17461375284E+01  0.56814696638E+02  0.62500000164E+02  0.10000001878E+02 0.  0.
    3000022    2    3    3    0    0  0.21250931867E+02  0.48309366669E+01  0.46950184924E+02  0.51762171685E+02  0.24999768918E+00 0.  0.
    1000022    2    1    0    0    0 -0.23985229468E+02 -0.17461375284E+01 -0.56814696638E+02  0.62499999836E+02  0.99999998244E+01 0.  0.
    3000022    2    5    5    0    0 -0.16495667857E+02 -0.56616866180E+01 -0.35640755361E+02  0.39679814758E+02  0.25000614922E+00 0.  0.
        -13    1    4    4    0    0  0.54545080932E+01  0.12701843209E+01  0.12051564473E+02  0.13289704963E+02  0.10500000000E+00 0.  1.
         13    1    4    4    0    0  0.15796423774E+02  0.35607523460E+01  0.34898620451E+02  0.38472466722E+02  0.10500000000E+00 0. -1.
    3000001    1    5    5    0    0 -0.74895616101E+01  0.39155490896E+01 -0.21173941277E+02  0.22820185078E+02  0.10000000000E+01 0.  1.
        -13    1    6    6    0    0 -0.94344017401E+01 -0.32353956248E+01 -0.20530451683E+02  0.22825121957E+02  0.10500000000E+00 0. -1.
         13    1    6    6    0    0 -0.70612661174E+01 -0.24262909932E+01 -0.15110303678E+02  0.16854692801E+02  0.10500000000E+00 0.  1.
</event>
<event>
11    0  0.3396091E-009  0.9118800E+02  0.7816531E-02  0.1126479E+00
         25   -1    0    0    0    0  0.00000000000E+00  0.00000000000E+00  0.99999998245E-14  0.12500000000E+03  0.12500000000E+03 0.  0.
    3000001    1    3    3    0    0 -0.24498263775E+02  0.24124166516E+02 -0.72249688661E+01  0.35147411188E+02  0.10000000000E+01 0.  1.
    1000022    2    1    0    0    0 -0.36534899597E+02  0.48082745608E+02 -0.12629353240E+02  0.62499997768E+02  0.99999922036E+01 0.  0.
    3000022    2    3    3    0    0 -0.12036635821E+02  0.23958579091E+02 -0.54043843737E+01  0.27352586580E+02  0.25001638825E+00 0.  0.
    1000022    2    1    0    0    0  0.36534899597E+02 -0.48082745608E+02  0.12629353240E+02  0.62500002232E+02  0.10000020102E+02 0.  0.
    3000022    2    5    5    0    0  0.36253178434E+01 -0.11025428603E+02  0.31783307924E+01  0.12036083042E+02  0.25000601968E+00 0.  0.
        -13    1    4    4    0    0 -0.39234369613E+01  0.77188880965E+01 -0.17774355733E+01  0.88399600255E+01  0.10500000000E+00 0. -1.
         13    1    4    4    0    0 -0.81131988600E+01  0.16239690995E+02 -0.36269488004E+01  0.18512626555E+02  0.10500000000E+00 0.  1.
    3000001    1    5    5    0    0  0.32909581753E+02 -0.37057317004E+02  0.94510224474E+01  0.50463919190E+02  0.10000000000E+01 0. -1.
        -13    1    6    6    0    0  0.19030910643E+01 -0.59931260706E+01  0.17419203217E+01  0.65256897800E+01  0.10500000000E+00 0. -1.
         13    1    6    6    0    0  0.17222267791E+01 -0.50323025329E+01  0.14364104707E+01  0.55103932619E+01  0.10500000000E+00 0.  1.
</event>
<event>
11    0  0.3396091E-009  0.9118800E+02  0.7816531E-02  0.1126479E+00
         25   -1    0    0    0    0  0.00000000000E+00  0.00000000000E+00  0.99999998245E-14  0.12500000000E+03  0.12500000000E+03 0.  0.
    3000001    1    3    3    0    0 -0.85998941787E+01 -0.20324037472E+02 -0.19189677153E+01  0.22174469918E+02  0.10000000000E+01 0.  1.
    1000022    2    1    0    0    0 -0.20798864155E+02 -0.57607115189E+02  0.74214325961E+01  0.62499999492E+02  0.99999902073E+01 0.  0.
    3000022    2    3    3    0    0 -0.12198969976E+02 -0.37283077717E+02  0.93404003114E+01  0.40325529574E+02  0.25000978512E+00 0.  0.
    1000022    2    1    0    0    0  0.20798864155E+02  0.57607115189E+02 -0.74214325961E+01  0.62500000508E+02  0.99999965619E+01 0.  0.
    3000022    2    5    5    0    0  0.21073641176E+02  0.50628520183E+02 -0.51174183677E+01  0.55078088879E+02  0.24999100544E+00 0.  0.
        -13    1    4    4    0    0 -0.75136611767E+01 -0.23081836124E+02  0.57296849423E+01  0.24941262551E+02  0.10500000000E+00 0. -1.
         13    1    4    4    0    0 -0.46853087995E+01 -0.14201241594E+02  0.36107153691E+01  0.15384267023E+02  0.10500000000E+00 0.  1.
    3000001    1    5    5    0    0 -0.27477702069E+00  0.69785950061E+01 -0.23040142283E+01  0.74219116294E+01  0.10000000000E+01 0.  1.
        -13    1    6    6    0    0  0.15754582180E+02  0.37776739712E+02 -0.38150311094E+01  0.41107838794E+02  0.10500000000E+00 0.  1.
         13    1    6    6    0    0  0.53190589957E+01  0.12851780471E+02 -0.13023872583E+01  0.13970250085E+02  0.10500000000E+00 0. -1.
</event>
<event>
11    0  0.3396091E-009  0.9118800E+02  0.7816531E-02  0.1126479E+00
         25   -1    0    0    0    0  0.00000000000E+00  0.00000000000E+00  0.99999998245E-14  0.12500000000E+03  0.12500000000E+03 0.  0.
    3000001    1    3    3    0    0 -0.13615556138E+01  0.27376976033E+00 -0.50319844499E+01  0.53150400822E+01  0.10000000000E+01 0.  1.
    1000022    2    1    0    0    0 -0.38778051932E+02  0.17903304920E+02 -0.44519482620E+02  0.62500000690E+02  0.10000005746E+02 0.  0.
    3000022    2    3    3    0    0 -0.37416496318E+02  0.17629535159E+02 -0.39487498170E+02  0.57184960608E+02  0.25000283135E+00 0.  0.
    1000022    2    1    0    0    0  0.38778051932E+02 -0.17903304920E+02  0.44519482620E+02  0.62499999310E+02  0.99999971146E+01 0.  0.
    3000022    2    5    5    0    0  0.20266369582E+02 -0.13996742656E+02  0.21572124360E+02  0.32742229513E+02  0.25000617736E+00 0.  0.
        -13    1    4    4    0    0 -0.12475879229E+02  0.59364099592E+01 -0.13175699980E+02  0.19091846969E+02  0.10500000000E+00 0. -1.
         13    1    4    4    0    0 -0.24940617089E+02  0.11693125200E+02 -0.26311798190E+02  0.38093113639E+02  0.10500000000E+00 0.  1.
    3000001    1    5    5    0    0  0.18511682350E+02 -0.39065622636E+01  0.22947358260E+02  0.29757769796E+02  0.10000000000E+01 0. -1.
        -13    1    6    6    0    0  0.10253850946E+02 -0.70004251041E+01  0.10888986361E+02  0.16514492418E+02  0.10500000000E+00 0.  1.
         13    1    6    6    0    0  0.10012518636E+02 -0.69963175520E+01  0.10683137999E+02  0.16227737095E+02  0.10500000000E+00 0. -1.
</event>
<event>
11    0  0.3396091E-009  0.9118800E+02  0.7816531E-02  0.1126479E+00
         25   -1    0    0    0    0  0.00000000000E+00  0.00000000000E+00  0.99999998245E-14  0.12500000000E+03  0.12500000000E+03 0.  0.
    3000001    1    3    3    0    0  0.28804689453E+02 -0.31243610738E+02 -0.36267863991E+00  0.42508880040E+02  0.10000000000E+01 0.  1.
    1000022    2    1    0    0    0  0.46467049354E+02 -0.40566016543E+02 -0.12089459545E+01  0.62499999986E+02  0.10000003702E+02 0.  0.
    3000022    2    3    3    0    0  0.17662359901E+02 -0.93224058052E+01 -0.84626731459E+00  0.19991119946E+02  0.25000212127E+00 0.  0.
    1000022    2    1    0    0    0 -0.46467049354E+02  0.40566016543E+02  0.12089459545E+01  0.62500000014E+02  0.10000003880E+02 0.  0.
    3000022    2    5    5    0    0 -0.26881403905E+02  0.22303082050E+02 -0.41367361717E+01  0.35174030656E+02  0.25000322390E+00 0.  0.
        -13    1    4    4    0    0  0.68528781474E+01 -0.36324386120E+01 -0.38901612735E+00  0.77665248162E+01  0.10500000000E+00 0.  1.
         13    1    4    4    0    0  0.10809481753E+02 -0.56899671932E+01 -0.45725118723E+00  0.12224595129E+02  0.10500000000E+00 0. -1.
    3000001    1    5    5    0    0 -0.19585645449E+02  0.18262934494E+02  0.53456821262E+01  0.27325969358E+02  0.10000000000E+01 0.  1.
        -13    1    6    6    0    0 -0.15371652639E+02  0.12705439164E+02 -0.23075313861E+01  0.20076145430E+02  0.10500000000E+00 0.  1.
         13    1    6    6    0    0 -0.11509751266E+02  0.95976428861E+01 -0.18292047856E+01  0.15097885227E+02  0.10500000000E+00 0. -1.
</event>
<event>
11    0  0.3396091E-009  0.9118800E+02  0.7816531E-02  0.1126479E+00
         25   -1    0    0    0    0  0.00000000000E+00  0.00000000000E+00  0.99999998245E-14  0.12500000000E+03  0.12500000000E+03 0.  0.
    3000001    1    3    3    0    0  0.23895238763E+02  0.20591652337E+02 -0.86248896334E+01  0.32716774026E+02  0.10000000000E+01 0. -1.
    1000022    2    1    0    0    0  0.50885385555E+02  0.31736771401E+02 -0.14481195060E+02  0.62499999452E+02  0.99999899508E+01 0.  0.
    3000022    2    3    3    0    0  0.26990146793E+02  0.11145119064E+02 -0.58563054262E+01  0.29783225425E+02  0.25000130405E+00 0.  0.
    1000022    2    1    0    0    0 -0.50885385555E+02 -0.31736771401E+02  0.14481195060E+02  0.62500000548E+02  0.99999968027E+01 0.  0.
    3000022    2    5    5    0    0 -0.18870336157E+02 -0.63018334414E+01  0.49626330190E+01  0.20505923819E+02  0.24998757118E+00 0.  0.
        -13    1    4    4    0    0  0.18230621899E+02  0.74722545359E+01 -0.39452796364E+01  0.20093939860E+02  0.10500000000E+00 0. -1.
         13    1    4    4    0    0  0.87595248932E+01  0.36728645283E+01 -0.19110257898E+01  0.96892855653E+01  0.10500000000E+00 0.  1.
    3000001    1    5    5    0    0 -0.32015049398E+02 -0.25434937960E+02  0.95185620406E+01  0.41994076729E+02  0.10000000000E+01 0. -1.
        -13    1    6    6    0    0 -0.73820255099E+01 -0.24026611380E+01  0.19180823658E+01  0.79973211850E+01  0.10500000000E+00 0.  1.
         13    1    6    6    0    0 -0.11488310647E+02 -0.38991723034E+01  0.30445506532E+01  0.12508602634E+02  0.10500000000E+00 0. -1.
</event>
<event>
11    0  0.3396091E-009  0.9118800E+02  0.7816531E-02  0.1126479E+00
         25   -1    0    0    0    0  0.00000000000E+00  0.00000000000E+00  0.99999998245E-14  0.12500000000E+03  0.12500000000E+03 0.  0.
    3000001    1    3    3    0    0 -0.71453100911E+01  0.22722462101E+02  0.13033161977E+02  0.27170370836E+02  0.10000000000E+01 0.  1.
    1000022    2    1    0    0    0 -0.19345496945E+02  0.55238861817E+02  0.19510763846E+02  0.62499999133E+02  0.99999939423E+01 0.  0.
    3000022    2    3    3    0    0 -0.12200186853E+02  0.32516399716E+02  0.64776018688E+01  0.35329628297E+02  0.24999973261E+00 0.  0.
    1000022    2    1    0    0    0  0.19345496945E+02 -0.55238861817E+02 -0.19510763846E+02  0.62500000867E+02  0.10000004785E+02 0.  0.
    3000022    2    5    5    0    0  0.51238048147E+01 -0.22077319938E+02 -0.32024938836E+01  0.22890607335E+02  0.25001133126E+00 0.  0.
        -13    1    4    4    0    0 -0.69618323688E+01  0.18733683720E+02  0.37451857794E+01  0.20333604137E+02  0.10500000000E+00 0. -1.
         13    1    4    4    0    0 -0.52383544846E+01  0.13782715995E+02  0.27324160894E+01  0.14996024160E+02  0.10500000000E+00 0.  1.
    3000001    1    5    5    0    0  0.14221692130E+02 -0.33161541879E+02 -0.16308269963E+02  0.39609393532E+02  0.10000000000E+01 0. -1.
        -13    1    6    6    0    0  0.26276128240E+01 -0.11126431526E+02 -0.15634405871E+01  0.11539376029E+02  0.10500000000E+00 0. -1.
         13    1    6    6    0    0  0.24961919907E+01 -0.10950888412E+02 -0.16390532965E+01  0.11351231306E+02  0.10500000000E+00 0.  1.
</event>
<event>
11    0  0.3396091E-009  0.9118800E+02  0.7816531E-02  0.1126479E+00
         25   -1    0    0    0    0  0.00000000000E+00  0.00000000000E+00  0.99999998245E-14  0.12500000000E+03  0.12500000000E+03 0.  0.
    3000001    1    3    3    0    0 -0.25566111377E+01 -0.18095035368E+02 -0.15077373559E+00  0.18302712865E+02  0.10000000000E+01 0.  1.
    1000022    2    1    0    0    0 -0.99164264440E+01 -0.59147742247E+02  0.14472706944E+02  0.62500001341E+02  0.99999997510E+01 0.  0.
    3000022    2    3    3    0    0 -0.73598153063E+01 -0.41052706879E+02  0.14623480680E+02  0.44197288477E+02  0.24999613416E+00 0.  0.
    1000022    2    1    0    0    0  0.99164264440E+01  0.59147742247E+02 -0.14472706944E+02  0.62499998659E+02  0.99999829841E+01 0.  0.
    3000022    2    5    5    0    0 -0.10943488164E-01  0.18111425220E+02 -0.78948235947E+01  0.19758911421E+02  0.24999536088E+00 0.  0.
        -13    1    4    4    0    0 -0.34405833375E+01 -0.19502561754E+02  0.69852701233E+01  0.20999822674E+02  0.10500000000E+00 0. -1.
         13    1    4    4    0    0 -0.39192319688E+01 -0.21550145125E+02  0.76382105567E+01  0.23197465802E+02  0.10500000000E+00 0.  1.
    3000001    1    5    5    0    0  0.99273699322E+01  0.41036317027E+02 -0.65778833497E+01  0.42741087238E+02  0.10000000000E+01 0.  1.
        -13    1    6    6    0    0 -0.44606517864E-01  0.72790739330E+01 -0.31198937472E+01  0.79203326355E+01  0.10500000000E+00 0.  1.
         13    1    6    6    0    0  0.33663029700E-01  0.10832351287E+02 -0.47749298476E+01  0.11838578786E+02  0.10500000000E+00 0. -1.
</event>
<event>
11    0  0.3396091E-009  0.9118800E+02  0.7816531E-02  0.1126479E+00
         25   -1    0    0    0    0  0.00000000000E+00  0.00000000000E+00  0.99999998245E-14  0.12500000000E+03  0.12500000000E+03 0.  0.
    3000001    1    3    3    0    0 -0.28959466483E+02  0.46965470321E+02  0.73786553591E+01  0.55676302467E+02  0.10000000000E+01 0.  1.
    1000022    2    1    0    0    0 -0.29641056010E+02  0.53704728733E+02  0.65924114719E+01  0.62499999829E+02  0.10000000001E+02 0.  0.
    3000022    2    3    3    0    0 -0.68158952652E+00  0.67392584122E+01 -0.78624388713E+00  0.68236973629E+01  0.24999604307E+00 0.  0.
    1000022    2    1    0    0    0  0.29641056010E+02 -0.53704728733E+02 -0.65924114719E+01  0.62500000171E+02  0.10000002133E+02 0.  0.
    3000022    2    5    5    0    0  0.26502124810E+02 -0.42604441397E+02 -0.25653662386E+01  0.50240866379E+02  0.25000870475E+00 0.  0.
        -13    1    4    4    0    0 -0.29238830170E+00  0.34838386927E+01 -0.37349956527E+00  0.35175488456E+01  0.10500000000E+00 0.  1.
         13    1    4    4    0    0 -0.38920122482E+00  0.32554197195E+01 -0.41274432186E+00  0.33061485173E+01  0.10500000000E+00 0. -1.
    3000001    1    5    5    0    0  0.31389311997E+01 -0.11100287336E+02 -0.40270452333E+01  0.12259133792E+02  0.10000000000E+01 0. -1.
        -13    1    6    6    0    0  0.10627969639E+02 -0.17006997841E+02 -0.97778988962E+00  0.20078815011E+02  0.10500000000E+00 0. -1.
         13    1    6    6    0    0  0.15874155171E+02 -0.25597443557E+02 -0.15875763490E+01  0.30162051368E+02  0.10500000000E+00 0.  1.
</event>
<event>
11    0  0.3396091E-009  0.9118800E+02  0.7816531E-02  0.1126479E+00
         25   -1    0    0    0    0  0.00000000000E+00  0.00000000000E+00  0.99999998245E-14  0.12500000000E+03  0.12500000000E+03 0.  0.
    3000001    1    3    3    0    0  0.44976525193E+01  0.21378867129E+02  0.23619847135E+02  0.32189781245E+02  0.10000000000E+01 0.  1.
    1000022    2    1    0    0    0  0.14858175403E+02  0.45096076648E+02  0.39393254212E+02  0.62499999447E+02  0.99999974077E+01 0.  0.
    3000022    2    3    3    0    0  0.10360522884E+02  0.23717209519E+02  0.15773407077E+02  0.30310218203E+02  0.24998975585E+00 0.  0.
    1000022    2    1    0    0    0 -0.14858175403E+02 -0.45096076648E+02 -0.39393254212E+02  0.62500000553E+02  0.10000004316E+02 0.  0.
    3000022    2    5    5    0    0 -0.58122352618E+01 -0.88578961573E+01 -0.12910528611E+02  0.16702953557E+02  0.25001083626E+00 0.  0.
        -13    1    4    4    0    0  0.56401649023E+01  0.13066234066E+02  0.87020153018E+01  0.16681547533E+02  0.10500000000E+00 0. -1.
         13    1    4    4    0    0  0.47203579815E+01  0.10650975453E+02  0.70713917753E+01  0.13628670669E+02  0.10500000000E+00 0.  1.
    3000001    1    5    5    0    0 -0.90459401414E+01 -0.36238180491E+02 -0.26482725601E+02  0.45797046996E+02  0.10000000000E+01 0.  1.
        -13    1    6    6    0    0 -0.39352549739E+01 -0.59481252097E+01 -0.86193898116E+01  0.11187999417E+02  0.10500000000E+00 0.  1.
         13    1    6    6    0    0 -0.18769802879E+01 -0.29097709476E+01 -0.42911387998E+01  0.55149541402E+01  0.10500000000E+00 0. -1.
</event>
<event>
11    0  0.3396091E-009  0.9118800E+02  0.7816531E-02  0.1126479E+00
         25   -1    0    0    0    0  0.00000000000E+00  0.00000000000E+00  0.99999998245E-14  0.12500000000E+03  0.12500000000E+03 0.  0.
    3000001    1    3    3    0    0 -0.42557734161E+02  0.78395554522E+01  0.21870235930E+02  0.48496665723E+02  0.10000000000E+01 0.  1.
    1000022    2    1    0    0    0 -0.51894421993E+02  0.84077313730E+01  0.32288210953E+02  0.62499996405E+02  0.10000000158E+02 0.  0.
    3000022    2    3    3    0    0 -0.93366878319E+01  0.56817592079E+00  0.10417975024E+02  0.14003330682E+02  0.25000607655E+00 0.  0.
    1000022    2    1    0    0    0  0.51894421993E+02 -0.84077313730E+01 -0.32288210953E+02  0.62500003595E+02  0.10000045099E+02 0.  0.
    3000022    2    5    5    0    0  0.28685515624E+01  0.71712199608E+00  0.20066733560E+00  0.29741593510E+01  0.25000888478E+00 0.  0.
        -13    1    4    4    0    0 -0.61884398149E+01  0.34539375801E+00  0.69683900889E+01  0.93266054715E+01  0.10500000000E+00 0.  1.
         13    1    4    4    0    0 -0.31482480170E+01  0.22278216278E+00  0.34495849347E+01  0.46767252101E+01  0.10500000000E+00 0. -1.
    3000001    1    5    5    0    0  0.49025870431E+02 -0.91248533691E+01 -0.32488878289E+02  0.59525844244E+02  0.10000000000E+01 0.  1.
        -13    1    6    6    0    0  0.13259379343E+01  0.39510024193E+00  0.12084636150E+00  0.13927829874E+01  0.10500000000E+00 0. -1.
         13    1    6    6    0    0  0.15426136280E+01  0.32202175415E+00  0.79820974095E-01  0.15813763636E+01  0.10500000000E+00 0.  1.
</event>
<event>
11    0  0.3396091E-009  0.9118800E+02  0.7816531E-02  0.1126479E+00
         25   -1    0    0    0    0  0.00000000000E+00  0.00000000000E+00  0.99999998245E-14  0.12500000000E+03  0.12500000000E+03 0.  0.
    3000001    1    3    3    0    0  0.22272446086E+02 -0.28494075495E+02  0.15703898463E+02  0.39440925698E+02  0.10000000000E+01 0.  1.
    1000022    2    1    0    0    0  0.31978392799E+02 -0.42556439622E+02  0.31186242854E+02  0.62500000041E+02  0.10000005124E+02 0.  0.
    3000022    2    3    3    0    0  0.97059467133E+01 -0.14062364127E+02  0.15482344391E+02  0.23059074344E+02  0.24987056783E+00 0.  0.
    1000022    2    1    0    0    0 -0.31978392799E+02  0.42556439622E+02 -0.31186242854E+02  0.62499999959E+02  0.10000004610E+02 0.  0.
    3000022    2    5    5    0    0 -0.26414523608E+02  0.39352244628E+02 -0.29349312438E+02  0.55747384222E+02  0.24998466084E+00 0.  0.
        -13    1    4    4    0    0  0.41825762920E+01 -0.59529292589E+01  0.65606699580E+01  0.97971795174E+01  0.10500000000E+00 0.  1.
         13    1    4    4    0    0  0.55233704213E+01 -0.81094348685E+01  0.89216744326E+01  0.13261894826E+02  0.10500000000E+00 0. -1.
    3000001    1    5    5    0    0 -0.55638691909E+01  0.32041949946E+01 -0.18369304155E+01  0.67526157368E+01  0.10000000000E+01 0. -1.
        -13    1    6    6    0    0 -0.14632063595E+02  0.21716418564E+02 -0.16158732240E+02  0.30770371674E+02  0.10500000000E+00 0. -1.
         13    1    6    6    0    0 -0.11782460013E+02  0.17635826063E+02 -0.13190580198E+02  0.24977012548E+02  0.10500000000E+00 0.  1.
</event>
<event>
11    0  0.3396091E-009  0.9118800E+02  0.7816531E-02  0.1126479E+00
         25   -1    0    0    0    0  0.00000000000E+00  0.00000000000E+00  0.99999998245E-14  0.12500000000E+03  0.12500000000E+03 0.  0.
    3000001    1    3    3    0    0 -0.53985244878E+01  0.44410638366E+00 -0.19204661977E+02  0.19978997442E+02  0.10000000000E+01 0. -1.
    1000022    2    1    0    0    0 -0.45367581411E+01  0.86497900199E+01 -0.60916739185E+02  0.62500001337E+02  0.10000000620E+02 0.  0.
    3000022    2    3    3    0    0  0.86176634671E+00  0.82056836363E+01 -0.41712077208E+02  0.42521003895E+02  0.25000419339E+00 0.  0.
    1000022    2    1    0    0    0  0.45367581411E+01 -0.86497900199E+01  0.60916739185E+02  0.62499998663E+02  0.99999839056E+01 0.  0.
    3000022    2    5    5    0    0 -0.20654431954E+01 -0.63706778282E+01  0.35233017813E+02  0.35864740857E+02  0.25000189644E+00 0.  0.
        -13    1    4    4    0    0  0.53646715359E+00  0.45096631677E+01 -0.22836281501E+02  0.23283720422E+02  0.10500000000E+00 0.  1.
         13    1    4    4    0    0  0.32529919312E+00  0.36960204686E+01 -0.18875795707E+02  0.19237283473E+02  0.10500000000E+00 0. -1.
    3000001    1    5    5    0    0  0.66022013365E+01 -0.22791121917E+01  0.25683721372E+02  0.26635257805E+02  0.10000000000E+01 0.  1.
        -13    1    6    6    0    0 -0.13905267378E+01 -0.41545652799E+01  0.22839761815E+02  0.23256390993E+02  0.10500000000E+00 0.  1.
         13    1    6    6    0    0 -0.67491645755E+00 -0.22161125484E+01  0.12393255998E+02  0.12608349864E+02  0.10500000000E+00 0. -1.
</event>
<event>
11    0  0.3396091E-009  0.9118800E+02  0.7816531E-02  0.1126479E+00
         25   -1    0    0    0    0  0.00000000000E+00  0.00000000000E+00  0.99999998245E-14  0.12500000000E+03  0.12500000000E+03 0.  0.
    3000001    1    3    3    0    0 -0.20253841364E+02  0.13192201278E+02 -0.26680155798E+02  0.36015038220E+02  0.10000000000E+01 0.  1.
    1000022    2    1    0    0    0 -0.28374780226E+02  0.20467162354E+02 -0.50815521987E+02  0.62499998255E+02  0.99999809674E+01 0.  0.
    3000022    2    3    3    0    0 -0.81209388625E+01  0.72749610765E+01 -0.24135366189E+02  0.26484960036E+02  0.25000067494E+00 0.  0.
    1000022    2    1    0    0    0  0.28374780226E+02 -0.20467162354E+02  0.50815521987E+02  0.62500001745E+02  0.10000002774E+02 0.  0.
    3000022    2    5    5    0    0  0.28449961246E+02 -0.18466674168E+02  0.49117403115E+02  0.59690871475E+02  0.24999775682E+00 0.  0.
        -13    1    4    4    0    0 -0.42432006191E+01  0.38468420279E+01 -0.12819560389E+02  0.14041192921E+02  0.10500000000E+00 0.  1.
         13    1    4    4    0    0 -0.38777382434E+01  0.34281190486E+01 -0.11315805801E+02  0.12443767115E+02  0.10500000000E+00 0. -1.
    3000001    1    5    5    0    0 -0.75181019764E-01 -0.20004881862E+01  0.16981188721E+01  0.28091302698E+01  0.10000000000E+01 0.  1.
        -13    1    6    6    0    0  0.21826353796E+02 -0.14167194715E+02  0.37660556071E+02  0.45775841169E+02  0.10500000000E+00 0.  1.
         13    1    6    6    0    0  0.66236074501E+01 -0.42994794530E+01  0.11456847044E+02  0.13915030306E+02  0.10500000000E+00 0. -1.
</event>
<event>
11    0  0.3396091E-009  0.9118800E+02  0.7816531E-02  0.1126479E+00
         25   -1    0    0    0    0  0.00000000000E+00  0.00000000000E+00  0.99999998245E-14  0.12500000000E+03  0.12500000000E+03 0.  0.
    3000001    1    3    3    0    0  0.17128193555E+01 -0.11584663499E+02 -0.28941880038E+02  0.31237327009E+02  0.10000000000E+01 0.  1.
    1000022    2    1    0    0    0 -0.59373713196E+01 -0.25604975804E+02 -0.55815610913E+02  0.62499996260E+02  0.99999973426E+01 0.  0.
    3000022    2    3    3    0    0 -0.76501906751E+01 -0.14020312304E+02 -0.26873730875E+02  0.31262669251E+02  0.25000618633E+00 0.  0.
    1000022    2    1    0    0    0  0.59373713196E+01  0.25604975804E+02  0.55815610913E+02  0.62500003740E+02  0.10000044093E+02 0.  0.
    3000022    2    5    5    0    0  0.24030636895E+01  0.29455860865E+01  0.27996362330E+01  0.47277539655E+01  0.25000406518E+00 0.  0.
        -13    1    4    4    0    0 -0.36635664225E+01 -0.66851178351E+01 -0.12956207493E+02  0.15032859242E+02  0.10500000000E+00 0.  1.
         13    1    4    4    0    0 -0.39866242526E+01 -0.73351944693E+01 -0.13917523382E+02  0.16229810009E+02  0.10500000000E+00 0. -1.
    3000001    1    5    5    0    0  0.35343076301E+01  0.22659389717E+02  0.53015974680E+02  0.57772249775E+02  0.10000000000E+01 0. -1.
        -13    1    6    6    0    0  0.69589015852E+00  0.86673541106E+00  0.76780502879E+00  0.13550066228E+01  0.10500000000E+00 0. -1.
         13    1    6    6    0    0  0.17071735310E+01  0.20788506754E+01  0.20318312042E+01  0.33727473427E+01  0.10500000000E+00 0.  1.
</event>
<event>
11    0  0.3396091E-009  0.9118800E+02  0.7816531E-02  0.1126479E+00
         25   -1    0    0    0    0  0.00000000000E+00  0.00000000000E+00  0.99999998245E-14  0.12500000000E+03  0.12500000000E+03 0.  0.
    3000001    1    3    3    0    0 -0.61177679350E+00 -0.22890981767E+00 -0.19486486395E+01  0.22855857170E+01  0.10000000000E+01 0. -1.
    1000022    2    1    0    0    0  0.25302764845E+02  0.55031253851E+01 -0.55997638536E+02  0.62499998513E+02  0.99999997382E+01 0.  0.
    3000022    2    3    3    0    0  0.25914541639E+02  0.57320352027E+01 -0.54048989896E+02  0.60214412796E+02  0.25000736013E+00 0.  0.
    1000022    2    1    0    0    0 -0.25302764845E+02 -0.55031253851E+01  0.55997638536E+02  0.62500001487E+02  0.10000018323E+02 0.  0.
    3000022    2    5    5    0    0 -0.10754489309E+02  0.26109562035E+01  0.22494009306E+02  0.25070283178E+02  0.25002275585E+00 0.  0.
        -13    1    4    4    0    0  0.61169563658E+01  0.13625513875E+01 -0.12792265172E+02  0.14245236913E+02  0.10500000000E+00 0. -1.
         13    1    4    4    0    0  0.19797585273E+02  0.43694838153E+01 -0.41256724724E+02  0.45969175883E+02  0.10500000000E+00 0.  1.
    3000001    1    5    5    0    0 -0.14548275536E+02 -0.81140815885E+01  0.33503629230E+02  0.37429718309E+02  0.10000000000E+01 0. -1.
        -13    1    6    6    0    0 -0.75428018425E+01  0.18776026915E+01  0.15804755861E+02  0.17613079922E+02  0.10500000000E+00 0.  1.
         13    1    6    6    0    0 -0.32116874666E+01  0.73335351193E+00  0.66892534445E+01  0.74572032560E+01  0.10500000000E+00 0. -1.
</event>
<event>
11    0  0.3396091E-009  0.9118800E+02  0.7816531E-02  0.1126479E+00
         25   -1    0    0    0    0  0.00000000000E+00  0.00000000000E+00  0.99999998245E-14  0.12500000000E+03  0.12500000000E+03 0.  0.
    3000001    1    3    3    0    0  0.74358911675E+01 -0.85364928337E+00 -0.16955959770E+02  0.18561405288E+02  0.10000000000E+01 0.  1.
    1000022    2    1    0    0    0  0.16994590856E+02  0.98498357321E+01 -0.58484312724E+02  0.62499998016E+02  0.99999767485E+01 0.  0.
    3000022    2    3    3    0    0  0.95586996883E+01  0.10703485015E+02 -0.41528352954E+02  0.43938592728E+02  0.25000132935E+00 0.  0.
    1000022    2    1    0    0    0 -0.16994590856E+02 -0.98498357321E+01  0.58484312724E+02  0.62500001984E+02  0.10000001547E+02 0.  0.
    3000022    2    5    5    0    0 -0.74668032389E+01 -0.42494381792E+01  0.12327714791E+02  0.15028171154E+02  0.25000164696E+00 0.  0.
        -13    1    4    4    0    0  0.39197182013E+01  0.44006621069E+01 -0.17250062655E+02  0.18229254081E+02  0.10500000000E+00 0.  1.
         13    1    4    4    0    0  0.56389814870E+01  0.63028229085E+01 -0.24278290299E+02  0.25709338647E+02  0.10500000000E+00 0. -1.
    3000001    1    5    5    0    0 -0.95277876169E+01 -0.56003975529E+01  0.46156597932E+02  0.47471830830E+02  0.10000000000E+01 0. -1.
        -13    1    6    6    0    0 -0.24812696269E+01 -0.14736443953E+01  0.41552869951E+01  0.50602136098E+01  0.10500000000E+00 0. -1.
         13    1    6    6    0    0 -0.49855336121E+01 -0.27757937839E+01  0.81724277961E+01  0.99679575445E+01  0.10500000000E+00 0.  1.
</event>
<event>
11    0  0.3396091E-009  0.9118800E+02  0.7816531E-02  0.1126479E+00
         25   -1    0    0    0    0  0.00000000000E+00  0.00000000000E+00  0.99999998245E-14  0.12500000000E+03  0.12500000000E+03 0.  0.
    3000001    1    3    3    0    0 -0.11102589841E+02  0.36815251399E+02 -0.44488125825E+01  0.38722372992E+02  0.10000000000E+01 0.  1.
    1000022    2    1    0    0    0 -0.22018130434E+02  0.57626021740E+02 -0.83276107362E+00  0.62499999646E+02  0.10000000773E+02 0.  0.
    3000022    2    3    3    0    0 -0.10915540593E+02  0.20810770340E+02  0.36160515089E+01  0.23777626654E+02  0.25002438745E+00 0.  0.
    1000022    2    1    0    0    0  0.22018130434E+02 -0.57626021740E+02  0.83276107362E+00  0.62500000354E+02  0.10000005193E+02 0.  0.
    3000022    2    5    5    0    0  0.19514050741E+02 -0.48259647817E+02  0.41068873618E+01  0.52218012291E+02  0.25000018260E+00 0.  0.
        -13    1    4    4    0    0 -0.61346062222E+01  0.11608861462E+02  0.20735004530E+01  0.13293212067E+02  0.10500000000E+00 0. -1.
         13    1    4    4    0    0 -0.47809343704E+01  0.92019088787E+01  0.15425510559E+01  0.10484414587E+02  0.10500000000E+00 0.  1.
    3000001    1    5    5    0    0  0.25040796929E+01 -0.93663739225E+01 -0.32741262882E+01  0.10281988062E+02  0.10000000000E+01 0. -1.
        -13    1    6    6    0    0  0.13949443778E+02 -0.34408564409E+02  0.29039445683E+01  0.37242183146E+02  0.10500000000E+00 0. -1.
         13    1    6    6    0    0  0.55646069626E+01 -0.13851083408E+02  0.12029427935E+01  0.14975829145E+02  0.10500000000E+00 0.  1.
</event>
<event>
11    0  0.3396091E-009  0.9118800E+02  0.7816531E-02  0.1126479E+00
         25   -1    0    0    0    0  0.00000000000E+00  0.00000000000E+00  0.99999998245E-14  0.12500000000E+03  0.12500000000E+03 0.  0.
    3000001    1    3    3    0    0  0.28197120568E+01  0.22790116476E+02 -0.73119980176E+01  0.24120644686E+02  0.10000000000E+01 0.  1.
    1000022    2    1    0    0    0  0.24426514327E+01  0.54221634081E+02 -0.29330843386E+02  0.62499994866E+02  0.99999418054E+01 0.  0.
    3000022    2    3    3    0    0 -0.37706062408E+00  0.31431517605E+02 -0.22018845369E+02  0.38379350180E+02  0.24999041693E+00 0.  0.
    1000022    2    1    0    0    0 -0.24426514327E+01 -0.54221634081E+02  0.29330843386E+02  0.62500005134E+02  0.10000005977E+02 0.  0.
    3000022    2    5    5    0    0 -0.21989071319E+01 -0.25090338027E+01  0.84034757720E+00  0.34495115688E+01  0.25000562964E+00 0.  0.
        -13    1    4    4    0    0 -0.30786918520E+00  0.21788528511E+02 -0.15251226832E+02  0.26597851473E+02  0.10500000000E+00 0. -1.
         13    1    4    4    0    0 -0.69191438885E-01  0.96429890939E+01 -0.67676185364E+01  0.11781498707E+02  0.10500000000E+00 0.  1.
    3000001    1    5    5    0    0 -0.24374430080E+00 -0.51712600278E+02  0.28490495809E+02  0.59050493565E+02  0.10000000000E+01 0.  1.
        -13    1    6    6    0    0 -0.74130200374E+00 -0.90722446879E+00  0.33665925537E+00  0.12234988156E+01  0.10500000000E+00 0. -1.
         13    1    6    6    0    0 -0.14576051281E+01 -0.16018093339E+01  0.50368832183E+00  0.22260127532E+01  0.10500000000E+00 0.  1.
</event>
<event>
11    0  0.3396091E-009  0.9118800E+02  0.7816531E-02  0.1126479E+00
         25   -1    0    0    0    0  0.00000000000E+00  0.00000000000E+00  0.99999998245E-14  0.12500000000E+03  0.12500000000E+03 0.  0.
    3000001    1    3    3    0    0 -0.37333810541E+02  0.39476503332E+02  0.28689827864E+02  0.61451720462E+02  0.10000000000E+01 0. -1.
    1000022    2    1    0    0    0 -0.38236902707E+02  0.39006651337E+02  0.28682235432E+02  0.62500002300E+02  0.10000004047E+02 0.  0.
    3000022    2    3    3    0    0 -0.90309216598E+00 -0.46985199497E+00 -0.75924323146E-02  0.10482818379E+01  0.25000161836E+00 0.  0.
    1000022    2    1    0    0    0  0.38236902707E+02 -0.39006651337E+02 -0.28682235432E+02  0.62499997700E+02  0.99999752993E+01 0.  0.
    3000022    2    5    5    0    0  0.70519891739E+01 -0.60205758284E+01 -0.10179934903E+01  0.93314892413E+01  0.24999220150E+00 0.  0.
        -13    1    4    4    0    0 -0.48581725980E+00 -0.32439193729E+00  0.12110814097E-01  0.59364990585E+00  0.10500000000E+00 0. -1.
         13    1    4    4    0    0 -0.41727490618E+00 -0.14546005768E+00 -0.19703246412E-01  0.45463193203E+00  0.10500000000E+00 0.  1.
    3000001    1    5    5    0    0  0.31184913533E+02 -0.32986075509E+02 -0.27664241941E+02  0.53168508459E+02  0.10000000000E+01 0.  1.
        -13    1    6    6    0    0  0.40032387496E+01 -0.34438996742E+01 -0.64253831013E+00  0.53207373486E+01  0.10500000000E+00 0. -1.
         13    1    6    6    0    0  0.30487504242E+01 -0.25766761542E+01 -0.37545518016E+00  0.40107518927E+01  0.10500000000E+00 0.  1.
</event>
<event>
11    0  0.3396091E-009  0.9118800E+02  0.7816531E-02  0.1126479E+00
         25   -1    0    0    0    0  0.00000000000E+00  0.00000000000E+00  0.99999998245E-14  0.12500000000E+03  0.12500000000E+03 0.  0.
    3000001    1    3    3    0    0  0.80590424000E+01 -0.15419162815E+01  0.16613217280E+02  0.18555987137E+02  0.10000000000E+01 0. -1.
    1000022    2    1    0    0    0  0.36595271575E+02  0.46547462446E+01  0.49450676304E+02  0.62499999483E+02  0.99999992147E+01 0.  0.
    3000022    2    3    3    0    0  0.28536229175E+02  0.61966625262E+01  0.32837459023E+02  0.43944012346E+02  0.25000801594E+00 0.  0.
    1000022    2    1    0    0    0 -0.36595271575E+02 -0.46547462446E+01 -0.49450676304E+02  0.62500000517E+02  0.10000005675E+02 0.  0.
    3000022    2    5    5    0    0 -0.14180876925E+02  0.27413364842E+01 -0.21510393784E+02  0.25910842088E+02  0.25000178854E+00 0.  0.
        -13    1    4    4    0    0  0.12018331120E+02  0.25504915182E+01  0.13859762213E+02  0.18521590739E+02  0.10500000000E+00 0. -1.
         13    1    4    4    0    0  0.16517898054E+02  0.36461710079E+01  0.18977696811E+02  0.25422421608E+02  0.10500000000E+00 0.  1.
    3000001    1    5    5    0    0 -0.22414394649E+02 -0.73960827289E+01 -0.27940282520E+02  0.36589158429E+02  0.10000000000E+01 0. -1.
        -13    1    6    6    0    0 -0.82026690759E+01  0.16172969837E+01 -0.12552947297E+02  0.15082670200E+02  0.10500000000E+00 0.  1.
         13    1    6    6    0    0 -0.59782078494E+01  0.11240395005E+01 -0.89574464866E+01  0.10828171889E+02  0.10500000000E+00 0. -1.
</event>
<event>
11    0  0.3396091E-009  0.9118800E+02  0.7816531E-02  0.1126479E+00
         25   -1    0    0    0    0  0.00000000000E+00  0.00000000000E+00  0.99999998245E-14  0.12500000000E+03  0.12500000000E+03 0.  0.
    3000001    1    3    3    0    0  0.48156569586E+01  0.23197031646E+02  0.51543327203E+02  0.56736297097E+02  0.10000000000E+01 0.  1.
    1000022    2    1    0    0    0  0.23035781099E+01  0.25999739642E+02  0.55901315428E+02  0.62500000021E+02  0.10000000119E+02 0.  0.
    3000022    2    3    3    0    0 -0.25120788487E+01  0.28027079961E+01  0.43579882255E+01  0.57637029237E+01  0.24999553051E+00 0.  0.
    1000022    2    1    0    0    0 -0.23035781099E+01 -0.25999739642E+02 -0.55901315428E+02  0.62499999979E+02  0.99999998615E+01 0.  0.
    3000022    2    5    5    0    0 -0.61408969823E+01 -0.15794947448E+02 -0.35850638312E+02  0.39655034392E+02  0.25000927481E+00 0.  0.
        -13    1    4    4    0    0 -0.15195795036E+01  0.16004800418E+01  0.25698275821E+01  0.33890554781E+01  0.10500000000E+00 0.  1.
         13    1    4    4    0    0 -0.99249934503E+00  0.12022279543E+01  0.17881606435E+01  0.23746474456E+01  0.10500000000E+00 0. -1.
    3000001    1    5    5    0    0  0.38373188724E+01 -0.10204792194E+02 -0.20050677117E+02  0.22844965588E+02  0.10000000000E+01 0.  1.
        -13    1    6    6    0    0 -0.16935878578E+01 -0.44430122103E+01 -0.10003051159E+02  0.11076129957E+02  0.10500000000E+00 0. -1.
         13    1    6    6    0    0 -0.44473091245E+01 -0.11351935238E+02 -0.25847587153E+02  0.28578904435E+02  0.10500000000E+00 0.  1.
</event>
<event>
11    0  0.3396091E-009  0.9118800E+02  0.7816531E-02  0.1126479E+00
         25   -1    0    0    0    0  0.00000000000E+00  0.00000000000E+00  0.99999998245E-14  0.12500000000E+03  0.12500000000E+03 0.  0.
    3000001    1    3    3    0    0  0.13874853823E+02 -0.45100243428E+02 -0.27621792885E+02  0.54685527958E+02  0.10000000000E+01 0.  1.
    1000022    2    1    0    0    0  0.13115900231E+02 -0.50032171621E+02 -0.33630416212E+02  0.62499999606E+02  0.10000001010E+02 0.  0.
    3000022    2    3    3    0    0 -0.75895359198E+00 -0.49319281922E+01 -0.60086233271E+01  0.78144716475E+01  0.24997318731E+00 0.  0.
    1000022    2    1    0    0    0 -0.13115900231E+02  0.50032171621E+02  0.33630416212E+02  0.62500000394E+02  0.10000005939E+02 0.  0.
    3000022    2    5    5    0    0 -0.97605617074E+01  0.33277204643E+02  0.27700967042E+02  0.44385211340E+02  0.24999385397E+00 0.  0.
        -13    1    4    4    0    0 -0.31543315235E+00 -0.16869241344E+01 -0.20593720735E+01  0.26827689886E+01  0.10500000000E+00 0.  1.
         13    1    4    4    0    0 -0.44352043962E+00 -0.32450040578E+01 -0.39492512536E+01  0.51317026589E+01  0.10500000000E+00 0. -1.
    3000001    1    5    5    0    0 -0.33553385232E+01  0.16754966978E+02  0.59294491697E+01  0.18114789054E+02  0.10000000000E+01 0. -1.
        -13    1    6    6    0    0 -0.69855387050E+01  0.23691186129E+02  0.19759138226E+02  0.31630754332E+02  0.10500000000E+00 0.  1.
         13    1    6    6    0    0 -0.27750230024E+01  0.95860185141E+01  0.79418288163E+01  0.12754457008E+02  0.10500000000E+00 0. -1.
</event>
<event>
11    0  0.3396091E-009  0.9118800E+02  0.7816531E-02  0.1126479E+00
         25   -1    0    0    0    0  0.00000000000E+00  0.00000000000E+00  0.99999998245E-14  0.12500000000E+03  0.12500000000E+03 0.  0.
    3000001    1    3    3    0    0 -0.22492197597E+02 -0.19088776626E+02  0.69880569129E+01  0.30333369170E+02  0.10000000000E+01 0.  1.
    1000022    2    1    0    0    0 -0.47455040109E+02 -0.32688875818E+02  0.22038752312E+02  0.62500000029E+02  0.99999983071E+01 0.  0.
    3000022    2    3    3    0    0 -0.24962842513E+02 -0.13600099192E+02  0.15050695399E+02  0.32166630859E+02  0.25000892029E+00 0.  0.
    1000022    2    1    0    0    0  0.47455040109E+02  0.32688875818E+02 -0.22038752312E+02  0.62499999971E+02  0.99999979442E+01 0.  0.
    3000022    2    5    5    0    0  0.43919975099E+02  0.29372550187E+02 -0.17168982886E+02  0.55556704313E+02  0.25000741223E+00 0.  0.
        -13    1    4    4    0    0 -0.12174018179E+02 -0.66748256161E+01  0.72865562140E+01  0.15680081061E+02  0.10500000000E+00 0. -1.
         13    1    4    4    0    0 -0.12788824333E+02 -0.69252735757E+01  0.77641391851E+01  0.16486549797E+02  0.10500000000E+00 0.  1.
    3000001    1    5    5    0    0  0.35350650107E+01  0.33163256314E+01 -0.48697694264E+01  0.69432956576E+01  0.10000000000E+01 0.  1.
        -13    1    6    6    0    0  0.15006602339E+02  0.10086248357E+02 -0.58374966863E+01  0.19000471369E+02  0.10500000000E+00 0.  1.
         13    1    6    6    0    0  0.28913372759E+02  0.19286301830E+02 -0.11331486199E+02  0.36556232944E+02  0.10500000000E+00 0. -1.
</event>
<event>
11    0  0.3396091E-009  0.9118800E+02  0.7816531E-02  0.1126479E+00
         25   -1    0    0    0    0  0.00000000000E+00  0.00000000000E+00  0.99999998245E-14  0.12500000000E+03  0.12500000000E+03 0.  0.
    3000001    1    3    3    0    0 -0.28723572045E+02  0.79615769613E+01 -0.16665537580E+02  0.34163876267E+02  0.10000000000E+01 0. -1.
    1000022    2    1    0    0    0 -0.49053738805E+02  0.87092955312E+01 -0.36388584959E+02  0.62499999246E+02  0.99999835496E+01 0.  0.
    3000022    2    3    3    0    0 -0.20330166760E+02  0.74771856985E+00 -0.19723047379E+02  0.28336122979E+02  0.25000804538E+00 0.  0.
    1000022    2    1    0    0    0  0.49053738805E+02 -0.87092955312E+01  0.36388584959E+02  0.62500000754E+02  0.99999929787E+01 0.  0.
    3000022    2    5    5    0    0  0.18294560860E+02 -0.74019845768E-01  0.17787055932E+02  0.25517411660E+02  0.25000614386E+00 0.  0.
        -13    1    4    4    0    0 -0.85487536049E+01  0.30532243196E+00 -0.83828078184E+01  0.11977349536E+02  0.10500000000E+00 0. -1.
         13    1    4    4    0    0 -0.11781413155E+02  0.44239613788E+00 -0.11340239560E+02  0.16358773443E+02  0.10500000000E+00 0.  1.
    3000001    1    5    5    0    0  0.30759177945E+02 -0.86352756854E+01  0.18601529027E+02  0.36982589095E+02  0.10000000000E+01 0.  1.
        -13    1    6    6    0    0  0.10779109511E+02 -0.10670697935E+00  0.10495479852E+02  0.15045488047E+02  0.10500000000E+00 0.  1.
         13    1    6    6    0    0  0.75154513486E+01  0.32687133586E-01  0.72915760801E+01  0.10471923613E+02  0.10500000000E+00 0. -1.
</event>
<event>
11    0  0.3396091E-009  0.9118800E+02  0.7816531E-02  0.1126479E+00
         25   -1    0    0    0    0  0.00000000000E+00  0.00000000000E+00  0.99999998245E-14  0.12500000000E+03  0.12500000000E+03 0.  0.
    3000001    1    3    3    0    0  0.67292256966E+00 -0.25235278677E+00  0.39535194439E+01  0.41408722158E+01  0.10000000000E+01 0. -1.
    1000022    2    1    0    0    0 -0.12597682887E+02 -0.28974116953E+02  0.52991022464E+02  0.62500000981E+02  0.10000029678E+02 0.  0.
    3000022    2    3    3    0    0 -0.13270605456E+02 -0.28721764166E+02  0.49037503020E+02  0.58359128765E+02  0.25000366632E+00 0.  0.
    1000022    2    1    0    0    0  0.12597682887E+02  0.28974116953E+02 -0.52991022464E+02  0.62499999019E+02  0.10000017413E+02 0.  0.
    3000022    2    5    5    0    0  0.40839076520E+01  0.20447872224E+02 -0.30192446124E+02  0.36693869881E+02  0.25000746892E+00 0.  0.
        -13    1    4    4    0    0 -0.96620346157E+01 -0.20823535631E+02  0.35564839626E+02  0.42330171175E+02  0.10500000000E+00 0. -1.
         13    1    4    4    0    0 -0.36085708407E+01 -0.78982285355E+01  0.13472663394E+02  0.16028957591E+02  0.10500000000E+00 0.  1.
    3000001    1    5    5    0    0  0.85137752347E+01  0.85262447294E+01 -0.22798576340E+02  0.25806129137E+02  0.10000000000E+01 0. -1.
        -13    1    6    6    0    0  0.25779835723E+01  0.12827284953E+02 -0.19045868420E+02  0.23107171343E+02  0.10500000000E+00 0. -1.
         13    1    6    6    0    0  0.15059240797E+01  0.76205872704E+01 -0.11146577704E+02  0.13586698539E+02  0.10500000000E+00 0.  1.
</event>
<event>
11    0  0.3396091E-009  0.9118800E+02  0.7816531E-02  0.1126479E+00
         25   -1    0    0    0    0  0.00000000000E+00  0.00000000000E+00  0.99999998245E-14  0.12500000000E+03  0.12500000000E+03 0.  0.
    3000001    1    3    3    0    0  0.23364223266E+02 -0.74874509124E+01  0.33510941527E+02  0.41544338387E+02  0.10000000000E+01 0. -1.
    1000022    2    1    0    0    0  0.37825214344E+02 -0.50451346979E+01  0.48477310645E+02  0.62500002927E+02  0.10000024711E+02 0.  0.
    3000022    2    3    3    0    0  0.14460991079E+02  0.24423162145E+01  0.14966369118E+02  0.20955664540E+02  0.25000056688E+00 0.  0.
    1000022    2    1    0    0    0 -0.37825214344E+02  0.50451346979E+01 -0.48477310645E+02  0.62499997073E+02  0.99999881178E+01 0.  0.
    3000022    2    5    5    0    0 -0.19230190802E+02 -0.10879265613E+01 -0.18690709140E+02  0.26840061989E+02  0.24999382657E+00 0.  0.
        -13    1    4    4    0    0  0.74542082309E+01  0.13230102534E+01  0.76907533931E+01  0.10792325478E+02  0.10500000000E+00 0.  1.
         13    1    4    4    0    0  0.70067828477E+01  0.11193059611E+01  0.72756157248E+01  0.10163339062E+02  0.10500000000E+00 0. -1.
    3000001    1    5    5    0    0 -0.18595023542E+02  0.61330612592E+01 -0.29786601505E+02  0.35659935084E+02  0.10000000000E+01 0. -1.
        -13    1    6    6    0    0 -0.12948288618E+02 -0.68972868886E+00 -0.12540390157E+02  0.18039021983E+02  0.10500000000E+00 0.  1.
         13    1    6    6    0    0 -0.62819021843E+01 -0.39819787241E+00 -0.61503189828E+01  0.88010400061E+01  0.10500000000E+00 0. -1.
</event>
<event>
11    0  0.3396091E-009  0.9118800E+02  0.7816531E-02  0.1126479E+00
         25   -1    0    0    0    0  0.00000000000E+00  0.00000000000E+00  0.99999998245E-14  0.12500000000E+03  0.12500000000E+03 0.  0.
    3000001    1    3    3    0    0 -0.19442992384E+01  0.32344531139E+01 -0.18581222898E+02  0.18986938428E+02  0.10000000000E+01 0.  1.
    1000022    2    1    0    0    0  0.78879994810E+01  0.65032741792E+01 -0.60841899748E+02  0.62500000788E+02  0.10000011138E+02 0.  0.
    3000022    2    3    3    0    0  0.98322987194E+01  0.32688210652E+01 -0.42260676850E+02  0.43513062361E+02  0.24999785515E+00 0.  0.
    1000022    2    1    0    0    0 -0.78879994810E+01 -0.65032741792E+01  0.60841899748E+02  0.62499999212E+02  0.10000001284E+02 0.  0.
    3000022    2    5    5    0    0 -0.69858474182E+01 -0.92362532068E+00  0.18998786727E+02  0.20265031863E+02  0.24994280093E+00 0.  0.
        -13    1    4    4    0    0  0.49856523292E+01  0.16257560811E+01 -0.21133060473E+02  0.21774229767E+02  0.10500000000E+00 0. -1.
         13    1    4    4    0    0  0.48466463902E+01  0.16430649841E+01 -0.21127616377E+02  0.21738832594E+02  0.10500000000E+00 0.  1.
    3000001    1    5    5    0    0 -0.90215206281E+00 -0.55796488585E+01  0.41843113020E+02  0.42234967349E+02  0.10000000000E+01 0. -1.
        -13    1    6    6    0    0 -0.40527981143E+01 -0.60059995742E+00  0.11021163018E+02  0.11758526784E+02  0.10500000000E+00 0.  1.
         13    1    6    6    0    0 -0.29330493039E+01 -0.32302536326E+00  0.79776237093E+01  0.85065050786E+01  0.10500000000E+00 0. -1.
</event>
<event>
11    0  0.3396091E-009  0.9118800E+02  0.7816531E-02  0.1126479E+00
         25   -1    0    0    0    0  0.00000000000E+00  0.00000000000E+00  0.99999998245E-14  0.12500000000E+03  0.12500000000E+03 0.  0.
    3000001    1    3    3    0    0 -0.27288866847E+01 -0.84329464298E+01  0.31566327661E+00  0.89253039910E+01  0.10000000000E+01 0. -1.
    1000022    2    1    0    0    0 -0.36767598849E+02 -0.48622094063E+02 -0.95018754636E+01  0.62500000280E+02  0.10000002075E+02 0.  0.
    3000022    2    3    3    0    0 -0.34038712164E+02 -0.40189147633E+02 -0.98175387402E+01  0.53574696289E+02  0.25000454717E+00 0.  0.
    1000022    2    1    0    0    0  0.36767598849E+02  0.48622094063E+02  0.95018754636E+01  0.62499999720E+02  0.99999985762E+01 0.  0.
    3000022    2    5    5    0    0  0.34520965505E+02  0.48131632858E+02  0.95219828868E+01  0.59992347853E+02  0.25000377235E+00 0.  0.
        -13    1    4    4    0    0 -0.12520719014E+02 -0.14870754044E+02 -0.36055918699E+01  0.19771672873E+02  0.10500000000E+00 0. -1.
         13    1    4    4    0    0 -0.21517993151E+02 -0.25318393588E+02 -0.62119468704E+01  0.33803023416E+02  0.10500000000E+00 0.  1.
    3000001    1    5    5    0    0  0.22466333443E+01  0.49046120460E+00 -0.20107423134E-01  0.25076518668E+01  0.10000000000E+01 0.  1.
        -13    1    6    6    0    0  0.25829613200E+02  0.36026172596E+02  0.71528376078E+01  0.44902429119E+02  0.10500000000E+00 0. -1.
         13    1    6    6    0    0  0.86913523046E+01  0.12105460262E+02  0.23691452789E+01  0.15089918734E+02  0.10500000000E+00 0.  1.
</event>
<event>
11    0  0.3396091E-009  0.9118800E+02  0.7816531E-02  0.1126479E+00
         25   -1    0    0    0    0  0.00000000000E+00  0.00000000000E+00  0.99999998245E-14  0.12500000000E+03  0.12500000000E+03 0.  0.
    3000001    1    3    3    0    0 -0.14721873621E+02 -0.10320987000E+01  0.11687264481E+01  0.14837948381E+02  0.10000000000E+01 0. -1.
    1000022    2    1    0    0    0 -0.60528937135E+02  0.11813494588E+02 -0.17143944141E+01  0.62500000571E+02  0.10000001905E+02 0.  0.
    3000022    2    3    3    0    0 -0.45807063514E+02  0.12845593288E+02 -0.28831208622E+01  0.47662052191E+02  0.24999677939E+00 0.  0.
    1000022    2    1    0    0    0  0.60528937135E+02 -0.11813494588E+02  0.17143944141E+01  0.62499999429E+02  0.99999947641E+01 0.  0.
    3000022    2    5    5    0    0  0.46427231180E+02 -0.98866523836E+01  0.53689839438E+01  0.47771562432E+02  0.24999646302E+00 0.  0.
        -13    1    4    4    0    0 -0.10762796832E+02  0.30036645612E+01 -0.68052695985E+00  0.11195264105E+02  0.10500000000E+00 0. -1.
         13    1    4    4    0    0 -0.35044266683E+02  0.98419287267E+01 -0.22025939023E+01  0.36466788086E+02  0.10500000000E+00 0.  1.
    3000001    1    5    5    0    0  0.14101705955E+02 -0.19268422044E+01 -0.36545895298E+01  0.14728436997E+02  0.10000000000E+01 0.  1.
        -13    1    6    6    0    0  0.33160904984E+02 -0.71031107913E+01  0.38269402815E+01  0.34128526180E+02  0.10500000000E+00 0. -1.
         13    1    6    6    0    0  0.13266326196E+02 -0.27835415922E+01  0.15420436624E+01  0.13643036252E+02  0.10500000000E+00 0.  1.
</event>
<event>
11    0  0.3396091E-009  0.9118800E+02  0.7816531E-02  0.1126479E+00
         25   -1    0    0    0    0  0.00000000000E+00  0.00000000000E+00  0.99999998245E-14  0.12500000000E+03  0.12500000000E+03 0.  0.
    3000001    1    3    3    0    0  0.54699212671E+01  0.21711987648E+02 -0.18931335323E+02  0.29338130537E+02  0.10000000000E+01 0.  1.
    1000022    2    1    0    0    0  0.13858552528E+02  0.38061065838E+02 -0.46535422064E+02  0.62500000165E+02  0.10000015156E+02 0.  0.
    3000022    2    3    3    0    0  0.83886312605E+01  0.16349078190E+02 -0.27604086741E+02  0.33161869628E+02  0.25000072949E+00 0.  0.
    1000022    2    1    0    0    0 -0.13858552528E+02 -0.38061065838E+02  0.46535422064E+02  0.62499999835E+02  0.10000013091E+02 0.  0.
    3000022    2    5    5    0    0 -0.46909680227E+00 -0.16510294635E+00 -0.41036114181E+00  0.69152073298E+00  0.24998772897E+00 0.  0.
        -13    1    4    4    0    0  0.34953740298E+01  0.69541840063E+01 -0.11680437783E+02  0.14036451354E+02  0.10500000000E+00 0. -1.
         13    1    4    4    0    0  0.48932572307E+01  0.93948941835E+01 -0.15923648958E+02  0.19125418274E+02  0.10500000000E+00 0.  1.
    3000001    1    5    5    0    0 -0.13389455725E+02 -0.37895962891E+02  0.46945783206E+02  0.61808479102E+02  0.10000000000E+01 0.  1.
        -13    1    6    6    0    0 -0.14432798330E+00 -0.25147020414E-02 -0.13523284783E+00  0.22394154063E+00  0.10500000000E+00 0.  1.
         13    1    6    6    0    0 -0.32476881897E+00 -0.16258824430E+00 -0.27512829398E+00  0.46757919234E+00  0.10500000000E+00 0. -1.
</event>
<event>
11    0  0.3396091E-009  0.9118800E+02  0.7816531E-02  0.1126479E+00
         25   -1    0    0    0    0  0.00000000000E+00  0.00000000000E+00  0.99999998245E-14  0.12500000000E+03  0.12500000000E+03 0.  0.
    3000001    1    3    3    0    0  0.17577197378E+02 -0.16091383539E+02  0.16701729967E+02  0.29117662608E+02  0.10000000000E+01 0.  1.
    1000022    2    1    0    0    0  0.38110878167E+02 -0.25469152020E+02  0.41293257603E+02  0.62499998111E+02  0.99999950592E+01 0.  0.
    3000022    2    3    3    0    0  0.20533680789E+02 -0.93777684809E+01  0.24591527636E+02  0.33382335504E+02  0.25000751966E+00 0.  0.
    1000022    2    1    0    0    0 -0.38110878167E+02  0.25469152020E+02 -0.41293257603E+02  0.62500001889E+02  0.10000018668E+02 0.  0.
    3000022    2    5    5    0    0 -0.38107246019E+01  0.36139858590E+01 -0.95351053464E+01  0.10888675058E+02  0.24998953514E+00 0.  0.
        -13    1    4    4    0    0  0.15107846816E+02 -0.69278021963E+01  0.18073618873E+02  0.24554189110E+02  0.10500000000E+00 0.  1.
         13    1    4    4    0    0  0.54258339732E+01 -0.24499662845E+01  0.65179087636E+01  0.88281463938E+01  0.10500000000E+00 0. -1.
    3000001    1    5    5    0    0 -0.34300153565E+02  0.21855166161E+02 -0.31758152257E+02  0.51611326831E+02  0.10000000000E+01 0. -1.
        -13    1    6    6    0    0 -0.27279237194E+01  0.25431400615E+01 -0.68259600904E+01  0.77790671258E+01  0.10500000000E+00 0.  1.
         13    1    6    6    0    0 -0.10828008825E+01  0.10708457976E+01 -0.27091452561E+01  0.31096079321E+01  0.10500000000E+00 0. -1.
</event>
<event>
11    0  0.3396091E-009  0.9118800E+02  0.7816531E-02  0.1126479E+00
         25   -1    0    0    0    0  0.00000000000E+00  0.00000000000E+00  0.99999998245E-14  0.12500000000E+03  0.12500000000E+03 0.  0.
    3000001    1    3    3    0    0  0.15271052807E+02 -0.30608278479E+02  0.39510842217E+02  0.52270244097E+02  0.10000000000E+01 0. -1.
    1000022    2    1    0    0    0  0.21968255003E+02 -0.34502893569E+02  0.46186534203E+02  0.62500000857E+02  0.10000013651E+02 0.  0.
    3000022    2    3    3    0    0  0.66972021957E+01 -0.38946150897E+01  0.66756919851E+01  0.10229756760E+02  0.25003186498E+00 0.  0.
    1000022    2    1    0    0    0 -0.21968255003E+02  0.34502893569E+02 -0.46186534203E+02  0.62499999143E+02  0.10000002938E+02 0.  0.
    3000022    2    5    5    0    0  0.87027803428E+00  0.11912678740E+01 -0.67036459431E+00  0.16396286750E+01  0.24998099552E+00 0.  0.
        -13    1    4    4    0    0  0.20366054658E+01 -0.12078956790E+01  0.20980731114E+01  0.31653924837E+01  0.10500000000E+00 0. -1.
         13    1    4    4    0    0  0.46605967298E+01 -0.26867194107E+01  0.45776188737E+01  0.70643642759E+01  0.10500000000E+00 0.  1.
    3000001    1    5    5    0    0 -0.22838533037E+02  0.33311625695E+02 -0.45516169608E+02  0.60860370468E+02  0.10000000000E+01 0. -1.
        -13    1    6    6    0    0  0.62003416523E+00  0.88043861404E+00 -0.44961410803E+00  0.11716622232E+01  0.10500000000E+00 0. -1.
         13    1    6    6    0    0  0.25024386905E+00  0.31082925992E+00 -0.22075048628E+00  0.46796645180E+00  0.10500000000E+00 0.  1.
</event>
<event>
11    0  0.3396091E-009  0.9118800E+02  0.7816531E-02  0.1126479E+00
         25   -1    0    0    0    0  0.00000000000E+00  0.00000000000E+00  0.99999998245E-14  0.12500000000E+03  0.12500000000E+03 0.  0.
    3000001    1    3    3    0    0 -0.70976159238E+01 -0.55179972235E+02  0.15810659134E+02  0.57846196331E+02  0.10000000000E+01 0. -1.
    1000022    2    1    0    0    0 -0.10026163556E+02 -0.58788154656E+02  0.15801226684E+02  0.62500000541E+02  0.10000010970E+02 0.  0.
    3000022    2    3    3    0    0 -0.29285476325E+01 -0.36081824208E+01 -0.94324502914E-02  0.46538042104E+01  0.24986604319E+00 0.  0.
    1000022    2    1    0    0    0  0.10026163556E+02  0.58788154656E+02 -0.15801226684E+02  0.62499999459E+02  0.10000004202E+02 0.  0.
    3000022    2    5    5    0    0  0.11540525958E+02  0.42566258797E+02 -0.12572368590E+02  0.45860626774E+02  0.25001751566E+00 0.  0.
        -13    1    4    4    0    0 -0.15206747946E+01 -0.19784089881E+01 -0.16679412647E-01  0.24975702508E+01  0.10500000000E+00 0. -1.
         13    1    4    4    0    0 -0.14078728379E+01 -0.16297734327E+01  0.72469623560E-02  0.21562339595E+01  0.10500000000E+00 0.  1.
    3000001    1    5    5    0    0 -0.15143624017E+01  0.16221895859E+02 -0.32288580943E+01  0.16639372684E+02  0.10000000000E+01 0.  1.
        -13    1    6    6    0    0  0.71452378172E+01  0.26129591641E+02 -0.77035445635E+01  0.28163195959E+02  0.10500000000E+00 0. -1.
         13    1    6    6    0    0  0.43952881408E+01  0.16436667157E+02 -0.48688240263E+01  0.17697430815E+02  0.10500000000E+00 0.  1.
</event>
<event>
11    0  0.3396091E-009  0.9118800E+02  0.7816531E-02  0.1126479E+00
         25   -1    0    0    0    0  0.00000000000E+00  0.00000000000E+00  0.99999998245E-14  0.12500000000E+03  0.12500000000E+03 0.  0.
    3000001    1    3    3    0    0 -0.88499162657E+00  0.62078849265E+01  0.18832670510E+02  0.19874368518E+02  0.10000000000E+01 0. -1.
    1000022    2    1    0    0    0 -0.71144600970E+01  0.58978845885E+01  0.60998764541E+02  0.62499998817E+02  0.99999995799E+01 0.  0.
    3000022    2    3    3    0    0 -0.62294684705E+01 -0.31000033799E+00  0.42166094031E+02  0.42625630300E+02  0.24999002109E+00 0.  0.
    1000022    2    1    0    0    0  0.71144600970E+01 -0.58978845885E+01 -0.60998764541E+02  0.62500001183E+02  0.10000014362E+02 0.  0.
    3000022    2    5    5    0    0  0.44416335456E+01 -0.63382242541E-01 -0.45197241714E+02  0.45415694259E+02  0.25000130798E+00 0.  0.
        -13    1    4    4    0    0 -0.30333621649E+01 -0.12252944342E+00  0.20943548758E+02  0.21162692623E+02  0.10500000000E+00 0. -1.
         13    1    4    4    0    0 -0.31961063056E+01 -0.18747089457E+00  0.21222545273E+02  0.21462937676E+02  0.10500000000E+00 0.  1.
    3000001    1    5    5    0    0  0.26728265515E+01 -0.58345023460E+01 -0.15801522827E+02  0.17084306923E+02  0.10000000000E+01 0.  1.
        -13    1    6    6    0    0  0.21942868509E+01 -0.98711903523E-01 -0.22262637672E+02  0.22370978967E+02  0.10500000000E+00 0.  1.
         13    1    6    6    0    0  0.22473466947E+01  0.35329660982E-01 -0.22934604042E+02  0.23044715293E+02  0.10500000000E+00 0. -1.
</event>
<event>
11    0  0.3396091E-009  0.9118800E+02  0.7816531E-02  0.1126479E+00
         25   -1    0    0    0    0  0.00000000000E+00  0.00000000000E+00  0.99999998245E-14  0.12500000000E+03  0.12500000000E+03 0.  0.
    3000001    1    3    3    0    0 -0.10954928687E+02 -0.25544031961E+02 -0.17940201879E+02  0.33096206351E+02  0.10000000000E+01 0.  1.
    1000022    2    1    0    0    0 -0.12528877878E+02 -0.46817579741E+02 -0.38175799213E+02  0.62499999505E+02  0.99999869426E+01 0.  0.
    3000022    2    3    3    0    0 -0.15739491902E+01 -0.21273547780E+02 -0.20235597334E+02  0.29403793154E+02  0.25000231088E+00 0.  0.
    1000022    2    1    0    0    0  0.12528877878E+02  0.46817579741E+02  0.38175799213E+02  0.62500000495E+02  0.99999931342E+01 0.  0.
    3000022    2    5    5    0    0  0.69320754941E+01  0.39613349712E+02  0.32524764743E+02  0.51722277275E+02  0.24999774028E+00 0.  0.
        -13    1    4    4    0    0 -0.88800419982E+00 -0.12453930504E+02 -0.11767785701E+02  0.17157527263E+02  0.10500000000E+00 0. -1.
         13    1    4    4    0    0 -0.68594499042E+00 -0.88196172761E+01 -0.84678116326E+01  0.12246265891E+02  0.10500000000E+00 0.  1.
    3000001    1    5    5    0    0  0.55968023837E+01  0.72042300292E+01  0.56510344703E+01  0.10777723221E+02  0.10000000000E+01 0. -1.
        -13    1    6    6    0    0  0.45551918348E+01  0.26194044342E+02  0.21562683954E+02  0.34232120822E+02  0.10500000000E+00 0.  1.
         13    1    6    6    0    0  0.23768836593E+01  0.13419305370E+02  0.10962080789E+02  0.17490156453E+02  0.10500000000E+00 0. -1.
</event>
<event>
11    0  0.3396091E-009  0.9118800E+02  0.7816531E-02  0.1126479E+00
         25   -1    0    0    0    0  0.00000000000E+00  0.00000000000E+00  0.99999998245E-14  0.12500000000E+03  0.12500000000E+03 0.  0.
    3000001    1    3    3    0    0 -0.30816158175E+02  0.19609040874E+02 -0.41593577890E+02  0.55364029933E+02  0.10000000000E+01 0. -1.
    1000022    2    1    0    0    0 -0.36364886222E+02  0.19078033835E+02 -0.46042083438E+02  0.62499998940E+02  0.10000004760E+02 0.  0.
    3000022    2    3    3    0    0 -0.55487280463E+01 -0.53100703948E+00 -0.44485055483E+01  0.71359690070E+01  0.25000129584E+00 0.  0.
    1000022    2    1    0    0    0  0.36364886222E+02 -0.19078033835E+02  0.46042083438E+02  0.62500001060E+02  0.10000018016E+02 0.  0.
    3000022    2    5    5    0    0  0.21517038588E+02 -0.12200444768E+02  0.20390809283E+02  0.32057470343E+02  0.24999883021E+00 0.  0.
        -13    1    4    4    0    0 -0.38564231755E+01 -0.33575422676E+00 -0.31307273993E+01  0.49796796742E+01  0.10500000000E+00 0.  1.
         13    1    4    4    0    0 -0.16923048709E+01 -0.19525281272E+00 -0.13177781490E+01  0.21562893328E+01  0.10500000000E+00 0. -1.
    3000001    1    5    5    0    0  0.14847847634E+02 -0.68775890661E+01  0.25651274155E+02  0.30442530718E+02  0.10000000000E+01 0. -1.
        -13    1    6    6    0    0  0.74226659508E+01 -0.41450887535E+01  0.70118705933E+01  0.11020666260E+02  0.10500000000E+00 0.  1.
         13    1    6    6    0    0  0.14094372637E+02 -0.80553560149E+01  0.13378938690E+02  0.21036804083E+02  0.10500000000E+00 0. -1.
</event>
<event>
11    0  0.3396091E-009  0.9118800E+02  0.7816531E-02  0.1126479E+00
         25   -1    0    0    0    0  0.00000000000E+00  0.00000000000E+00  0.99999998245E-14  0.12500000000E+03  0.12500000000E+03 0.  0.
    3000001    1    3    3    0    0 -0.28152804882E+02  0.29791429129E+02  0.12914145643E+02  0.42987030951E+02  0.10000000000E+01 0. -1.
    1000022    2    1    0    0    0 -0.36439105588E+02  0.43781088997E+02  0.23699324076E+02  0.62499999521E+02  0.99999904357E+01 0.  0.
    3000022    2    3    3    0    0 -0.82863007061E+01  0.13989659868E+02  0.10785178434E+02  0.19512968571E+02  0.25001199169E+00 0.  0.
    1000022    2    1    0    0    0  0.36439105588E+02 -0.43781088997E+02 -0.23699324076E+02  0.62500000479E+02  0.99999964189E+01 0.  0.
    3000022    2    5    5    0    0  0.25414486405E+02 -0.36046975846E+02 -0.20418927797E+02  0.48603247833E+02  0.25000122050E+00 0.  0.
        -13    1    4    4    0    0 -0.53705797109E+01  0.90474925684E+01  0.69112706346E+01  0.12588762250E+02  0.10500000000E+00 0. -1.
         13    1    4    4    0    0 -0.29157209952E+01  0.49421672992E+01  0.38739077990E+01  0.69242063206E+01  0.10500000000E+00 0.  1.
    3000001    1    5    5    0    0  0.11024619183E+02 -0.77341131500E+01 -0.32803962788E+01  0.13896752646E+02  0.10000000000E+01 0.  1.
        -13    1    6    6    0    0  0.74257395543E+01 -0.10605595411E+02 -0.59801303454E+01  0.14261600398E+02  0.10500000000E+00 0. -1.
         13    1    6    6    0    0  0.17988746851E+02 -0.25441380435E+02 -0.14438797452E+02  0.34341647436E+02  0.10500000000E+00 0.  1.
</event>
<event>
11    0  0.3396091E-009  0.9118800E+02  0.7816531E-02  0.1126479E+00
         25   -1    0    0    0    0  0.00000000000E+00  0.00000000000E+00  0.99999998245E-14  0.12500000000E+03  0.12500000000E+03 0.  0.
    3000001    1    3    3    0    0  0.20817326138E+01 -0.71399593652E+01 -0.12064235103E+02  0.14207688026E+02  0.10000000000E+01 0.  1.
    1000022    2    1    0    0    0 -0.86246695528E+01 -0.28638440843E+02 -0.53960215544E+02  0.62500000310E+02  0.99999979186E+01 0.  0.
    3000022    2    3    3    0    0 -0.10706402167E+02 -0.21498481478E+02 -0.41895980440E+02  0.48292312284E+02  0.24999090486E+00 0.  0.
    1000022    2    1    0    0    0  0.86246695528E+01  0.28638440843E+02  0.53960215544E+02  0.62499999690E+02  0.99999940493E+01 0.  0.
    3000022    2    5    5    0    0  0.34049484954E+01  0.15002474685E+02  0.18024088102E+02  0.23698062671E+02  0.25000301932E+00 0.  0.
        -13    1    4    4    0    0 -0.69998327389E+01 -0.13932635874E+02 -0.27170373027E+02  0.31326605245E+02  0.10500000000E+00 0. -1.
         13    1    4    4    0    0 -0.37065694277E+01 -0.75658456034E+01 -0.14725607414E+02  0.16965707039E+02  0.10500000000E+00 0.  1.
    3000001    1    5    5    0    0  0.52197210574E+01  0.13635966158E+02  0.35936127442E+02  0.38801937020E+02  0.10000000000E+01 0. -1.
        -13    1    6    6    0    0  0.14540173371E+01  0.62996670149E+01  0.74821622560E+01  0.98890721476E+01  0.10500000000E+00 0. -1.
         13    1    6    6    0    0  0.19509311583E+01  0.87028076701E+01  0.10541925846E+02  0.13808990523E+02  0.10500000000E+00 0.  1.
</event>
<event>
11    0  0.3396091E-009  0.9118800E+02  0.7816531E-02  0.1126479E+00
         25   -1    0    0    0    0  0.00000000000E+00  0.00000000000E+00  0.99999998245E-14  0.12500000000E+03  0.12500000000E+03 0.  0.
    3000001    1    3    3    0    0 -0.24032378484E+01  0.68669432737E+01 -0.42202458038E+02  0.42836642335E+02  0.10000000000E+01 0.  1.
    1000022    2    1    0    0    0  0.11176452146E+01  0.14607734119E+02 -0.59930083461E+02  0.62499999805E+02  0.10000002253E+02 0.  0.
    3000022    2    3    3    0    0  0.35208830630E+01  0.77407908454E+01 -0.17727625423E+02  0.19663357470E+02  0.24992679129E+00 0.  0.
    1000022    2    1    0    0    0 -0.11176452146E+01 -0.14607734119E+02  0.59930083461E+02  0.62500000195E+02  0.10000004686E+02 0.  0.
    3000022    2    5    5    0    0  0.21402320971E+01 -0.10355029759E+02  0.24970168831E+02  0.27117873493E+02  0.24999322485E+00 0.  0.
        -13    1    4    4    0    0  0.16122813543E+01  0.36748992708E+01 -0.82719764081E+01  0.91946155173E+01  0.10500000000E+00 0. -1.
         13    1    4    4    0    0  0.19086017087E+01  0.40658915745E+01 -0.94556490150E+01  0.10468741953E+02  0.10500000000E+00 0.  1.
    3000001    1    5    5    0    0 -0.32578773117E+01 -0.42527043605E+01  0.34959914630E+02  0.35382126702E+02  0.10000000000E+01 0.  1.
        -13    1    6    6    0    0  0.49333159085E+00 -0.24783365521E+01  0.59729448178E+01  0.64863412584E+01  0.10500000000E+00 0.  1.
         13    1    6    6    0    0  0.16469005063E+01 -0.78766932065E+01  0.18997224013E+02  0.20631532235E+02  0.10500000000E+00 0. -1.
</event>
<event>
11    0  0.3396091E-009  0.9118800E+02  0.7816531E-02  0.1126479E+00
         25   -1    0    0    0    0  0.00000000000E+00  0.00000000000E+00  0.99999998245E-14  0.12500000000E+03  0.12500000000E+03 0.  0.
    3000001    1    3    3    0    0  0.16228403715E+02 -0.21751906274E+02  0.31052699717E+02  0.41252595960E+02  0.10000000000E+01 0.  1.
    1000022    2    1    0    0    0  0.17673384924E+02 -0.34097221028E+02  0.48283339597E+02  0.62500000881E+02  0.10000010545E+02 0.  0.
    3000022    2    3    3    0    0  0.14449812081E+01 -0.12345314754E+02  0.17230639880E+02  0.21247404921E+02  0.24999622424E+00 0.  0.
    1000022    2    1    0    0    0 -0.17673384924E+02  0.34097221028E+02 -0.48283339597E+02  0.62499999119E+02  0.99999995374E+01 0.  0.
    3000022    2    5    5    0    0 -0.21541513879E+01 -0.11091061598E-01 -0.21113951045E+01  0.30267108178E+01  0.24999574764E+00 0.  0.
        -13    1    4    4    0    0  0.99476044460E+00 -0.80483421106E+01  0.11206276601E+02  0.13833185437E+02  0.10500000000E+00 0.  1.
         13    1    4    4    0    0  0.45022076351E+00 -0.42969726439E+01  0.60243632791E+01  0.74142194840E+01  0.10500000000E+00 0. -1.
    3000001    1    5    5    0    0 -0.15519233536E+02  0.34108312090E+02 -0.46171944493E+02  0.59473288302E+02  0.10000000000E+01 0.  1.
        -13    1    6    6    0    0 -0.80784118407E+00 -0.64417052116E-01 -0.79943187584E+00  0.11431855752E+01  0.10500000000E+00 0. -1.
         13    1    6    6    0    0 -0.13463102038E+01  0.53325990518E-01 -0.13119632286E+01  0.18835252426E+01  0.10500000000E+00 0.  1.
</event>
<event>
11    0  0.3396091E-009  0.9118800E+02  0.7816531E-02  0.1126479E+00
         25   -1    0    0    0    0  0.00000000000E+00  0.00000000000E+00  0.99999998245E-14  0.12500000000E+03  0.12500000000E+03 0.  0.
    3000001    1    3    3    0    0  0.73854222342E+01 -0.10907121720E+02  0.93213714900E+01  0.16167799239E+02  0.10000000000E+01 0. -1.
    1000022    2    1    0    0    0  0.40616634737E+02 -0.39089870312E+02  0.25070321360E+02  0.62499998886E+02  0.99999934642E+01 0.  0.
    3000022    2    3    3    0    0  0.33231212502E+02 -0.28182748592E+02  0.15748949870E+02  0.46332199646E+02  0.24999894765E+00 0.  0.
    1000022    2    1    0    0    0 -0.40616634737E+02  0.39089870312E+02 -0.25070321360E+02  0.62500001114E+02  0.10000007393E+02 0.  0.
    3000022    2    5    5    0    0 -0.40784922233E+02  0.38136478704E+02 -0.24185132252E+02  0.60850505435E+02  0.25000024744E+00 0.  0.
        -13    1    4    4    0    0  0.11301383749E+02 -0.95608685201E+01  0.54054638771E+01  0.15759490672E+02  0.10500000000E+00 0.  1.
         13    1    4    4    0    0  0.21929828754E+02 -0.18621880072E+02  0.10343485993E+02  0.30572708975E+02  0.10500000000E+00 0. -1.
    3000001    1    5    5    0    0  0.16828749650E+00  0.95339160777E+00 -0.88518910774E+00  0.16494956792E+01  0.10000000000E+01 0.  1.
        -13    1    6    6    0    0 -0.22293944839E+02  0.20810356958E+02 -0.13276487834E+02  0.33262096858E+02  0.10500000000E+00 0.  1.
         13    1    6    6    0    0 -0.18490977394E+02  0.17326121746E+02 -0.10908644418E+02  0.27588408577E+02  0.10500000000E+00 0. -1.
</event>
<event>
11    0  0.3396091E-009  0.9118800E+02  0.7816531E-02  0.1126479E+00
         25   -1    0    0    0    0  0.00000000000E+00  0.00000000000E+00  0.99999998245E-14  0.12500000000E+03  0.12500000000E+03 0.  0.
    3000001    1    3    3    0    0  0.35002596068E+02  0.14888115333E+02  0.33827642806E+02  0.50913133153E+02  0.10000000000E+01 0.  1.
    1000022    2    1    0    0    0  0.39027907246E+02  0.20209495323E+02  0.43297212939E+02  0.62499999548E+02  0.10000002501E+02 0.  0.
    3000022    2    3    3    0    0  0.40253111772E+01  0.53213799908E+01  0.94695701334E+01  0.11586866395E+02  0.24999852313E+00 0.  0.
    1000022    2    1    0    0    0 -0.39027907246E+02 -0.20209495323E+02 -0.43297212939E+02  0.62500000452E+02  0.10000008150E+02 0.  0.
    3000022    2    5    5    0    0 -0.30434156569E+02 -0.15926525096E+02 -0.38888606195E+02  0.51887168687E+02  0.24998965756E+00 0.  0.
        -13    1    4    4    0    0  0.17792691865E+01  0.24553287643E+01  0.42607665382E+01  0.52306399868E+01  0.10500000000E+00 0. -1.
         13    1    4    4    0    0  0.22460419908E+01  0.28660512265E+01  0.52088035952E+01  0.63562264081E+01  0.10500000000E+00 0.  1.
    3000001    1    5    5    0    0 -0.85937506761E+01 -0.42829702275E+01 -0.44086067446E+01  0.10612831765E+02  0.10000000000E+01 0. -1.
        -13    1    6    6    0    0 -0.13226695648E+02 -0.69282451919E+01 -0.17003618102E+02  0.22629187188E+02  0.10500000000E+00 0. -1.
         13    1    6    6    0    0 -0.17207460922E+02 -0.89982799040E+01 -0.21884988092E+02  0.29257981499E+02  0.10500000000E+00 0.  1.
</event>
<event>
11    0  0.3396091E-009  0.9118800E+02  0.7816531E-02  0.1126479E+00
         25   -1    0    0    0    0  0.00000000000E+00  0.00000000000E+00  0.99999998245E-14  0.12500000000E+03  0.12500000000E+03 0.  0.
    3000001    1    3    3    0    0 -0.79404590843E+01  0.17940530181E+02  0.50654670327E+02  0.54330554383E+02  0.10000000000E+01 0.  1.
    1000022    2    1    0    0    0 -0.84945535618E+01  0.23852904318E+02  0.56259501334E+02  0.62500001089E+02  0.10000008057E+02 0.  0.
    3000022    2    3    3    0    0 -0.55409447753E+00  0.59123741369E+01  0.56048310069E+01  0.81694467056E+01  0.25008045856E+00 0.  0.
    1000022    2    1    0    0    0  0.84945535618E+01 -0.23852904318E+02 -0.56259501334E+02  0.62499998911E+02  0.99999944435E+01 0.  0.
    3000022    2    5    5    0    0  0.55289993469E+01 -0.94690878776E+01 -0.14224056608E+02  0.17961618827E+02  0.25001095451E+00 0.  0.
        -13    1    4    4    0    0 -0.29405992295E+00  0.27952365887E+01  0.27347586165E+01  0.39229769966E+01  0.10500000000E+00 0.  1.
         13    1    4    4    0    0 -0.26003455458E+00  0.31171375481E+01  0.28700723905E+01  0.42464697091E+01  0.10500000000E+00 0. -1.
    3000001    1    5    5    0    0  0.29655542149E+01 -0.14383816440E+02 -0.42035444726E+02  0.44538380084E+02  0.10000000000E+01 0. -1.
        -13    1    6    6    0    0  0.20971353798E+01 -0.35658038826E+01 -0.52703959392E+01  0.67008232693E+01  0.10500000000E+00 0. -1.
         13    1    6    6    0    0  0.34318639671E+01 -0.59032839950E+01 -0.89536606690E+01  0.11260795558E+02  0.10500000000E+00 0.  1.
</event>
<event>
11    0  0.3396091E-009  0.9118800E+02  0.7816531E-02  0.1126479E+00
         25   -1    0    0    0    0  0.00000000000E+00  0.00000000000E+00  0.99999998245E-14  0.12500000000E+03  0.12500000000E+03 0.  0.
    3000001    1    3    3    0    0 -0.16087073216E+02 -0.11815315164E+02 -0.51465930648E+01  0.20636933329E+02  0.10000000000E+01 0.  1.
    1000022    2    1    0    0    0 -0.55515408581E+02 -0.24011698443E+02 -0.12154315758E+02  0.62499996846E+02  0.99999981097E+01 0.  0.
    3000022    2    3    3    0    0 -0.39428335365E+02 -0.12196383279E+02 -0.70077226932E+01  0.41863063516E+02  0.25002978784E+00 0.  0.
    1000022    2    1    0    0    0  0.55515408581E+02  0.24011698443E+02  0.12154315758E+02  0.62500003154E+02  0.10000037536E+02 0.  0.
    3000022    2    5    5    0    0  0.11258618384E+02  0.22462920260E+01  0.54707427058E+01  0.12719820915E+02  0.25000515135E+00 0.  0.
        -13    1    4    4    0    0 -0.25725949741E+02 -0.79051426546E+01 -0.45950330614E+01  0.27302767705E+02  0.10500000000E+00 0.  1.
         13    1    4    4    0    0 -0.13702385624E+02 -0.42912406243E+01 -0.24126896317E+01  0.14560295812E+02  0.10500000000E+00 0. -1.
    3000001    1    5    5    0    0  0.44256790197E+02  0.21765406417E+02  0.66835730522E+01  0.49780182239E+02  0.10000000000E+01 0. -1.
        -13    1    6    6    0    0  0.58689303244E+01  0.12374961371E+01  0.28774869522E+01  0.66533221779E+01  0.10500000000E+00 0. -1.
         13    1    6    6    0    0  0.53896880592E+01  0.10087958888E+01  0.25932557536E+01  0.60664987368E+01  0.10500000000E+00 0.  1.
</event>
<event>
11    0  0.3396091E-009  0.9118800E+02  0.7816531E-02  0.1126479E+00
         25   -1    0    0    0    0  0.00000000000E+00  0.00000000000E+00  0.99999998245E-14  0.12500000000E+03  0.12500000000E+03 0.  0.
    3000001    1    3    3    0    0 -0.10066208456E+01  0.63028721982E+01  0.12893212700E+02  0.14421318151E+02  0.10000000000E+01 0. -1.
    1000022    2    1    0    0    0  0.66334267727E+01  0.38684166493E+02  0.47600246006E+02  0.62499995397E+02  0.99999458387E+01 0.  0.
    3000022    2    3    3    0    0  0.76400476183E+01  0.32381294295E+02  0.34707033306E+02  0.48078677246E+02  0.24999406815E+00 0.  0.
    1000022    2    1    0    0    0 -0.66334267727E+01 -0.38684166493E+02 -0.47600246006E+02  0.62500004603E+02  0.10000003382E+02 0.  0.
    3000022    2    5    5    0    0  0.14528042617E+01 -0.41416474262E+01 -0.23271561727E+01  0.49741372147E+01  0.25000310420E+00 0.  0.
        -13    1    4    4    0    0  0.44072068592E+01  0.18630733593E+02  0.20064201304E+02  0.27732848853E+02  0.10500000000E+00 0.  1.
         13    1    4    4    0    0  0.32328407591E+01  0.13750560702E+02  0.14642832001E+02  0.20345828393E+02  0.10500000000E+00 0. -1.
    3000001    1    5    5    0    0 -0.80862310344E+01 -0.34542519067E+02 -0.45273089833E+02  0.57525867389E+02  0.10000000000E+01 0. -1.
        -13    1    6    6    0    0  0.57399023198E+00 -0.18150491920E+01 -0.10418651726E+01  0.21726427211E+01  0.10500000000E+00 0. -1.
         13    1    6    6    0    0  0.87881402974E+00 -0.23265982343E+01 -0.12852910001E+01  0.28014944936E+01  0.10500000000E+00 0. -1.
</event>
<event>
11    0  0.3396091E-009  0.9118800E+02  0.7816531E-02  0.1126479E+00
         25   -1    0    0    0    0  0.00000000000E+00  0.00000000000E+00  0.99999998245E-14  0.12500000000E+03  0.12500000000E+03 0.  0.
    3000001    1    3    3    0    0 -0.29347711621E+02 -0.24435748323E+02  0.21868309313E+02  0.44018370321E+02  0.10000000000E+01 0.  1.
    1000022    2    1    0    0    0 -0.43198789601E+02 -0.28862486169E+02  0.33272693100E+02  0.62500005015E+02  0.99999994920E+01 0.  0.
    3000022    2    3    3    0    0 -0.13851077980E+02 -0.44267378468E+01  0.11404383787E+02  0.18481634694E+02  0.24996445652E+00 0.  0.
    1000022    2    1    0    0    0  0.43198789601E+02  0.28862486169E+02 -0.33272693100E+02  0.62499994985E+02  0.99999368053E+01 0.  0.
    3000022    2    5    5    0    0  0.18631834320E+02  0.78969465021E+01 -0.93363922393E+01  0.22287613257E+02  0.24994094194E+00 0.  0.
        -13    1    4    4    0    0 -0.76733091874E+01 -0.25098881925E+01  0.63790029209E+01  0.10289893872E+02  0.10500000000E+00 0.  1.
         13    1    4    4    0    0 -0.61777687926E+01 -0.19168496543E+01  0.50253808665E+01  0.81917408227E+01  0.10500000000E+00 0. -1.
    3000001    1    5    5    0    0  0.24566955282E+02  0.20965539667E+02 -0.23936300861E+02  0.40212381728E+02  0.10000000000E+01 0.  1.
        -13    1    6    6    0    0  0.69219238969E+01  0.29928234779E+01 -0.35069375095E+01  0.83174310036E+01  0.10500000000E+00 0.  1.
         13    1    6    6    0    0  0.11709910423E+02  0.49041230243E+01 -0.58294547297E+01  0.13970182253E+02  0.10500000000E+00 0. -1.
</event>
<event>
11    0  0.3396091E-009  0.9118800E+02  0.7816531E-02  0.1126479E+00
         25   -1    0    0    0    0  0.00000000000E+00  0.00000000000E+00  0.99999998245E-14  0.12500000000E+03  0.12500000000E+03 0.  0.
    3000001    1    3    3    0    0 -0.93475512613E+01  0.35036604399E+00 -0.70412319804E+01  0.11750677374E+02  0.10000000000E+01 0.  1.
    1000022    2    1    0    0    0 -0.42342489530E+02 -0.16460416223E+02 -0.41742282893E+02  0.62500000390E+02  0.10000007291E+02 0.  0.
    3000022    2    3    3    0    0 -0.32994938269E+02 -0.16810782267E+02 -0.34701050912E+02  0.50749323016E+02  0.25000073797E+00 0.  0.
    1000022    2    1    0    0    0  0.42342489530E+02  0.16460416223E+02  0.41742282893E+02  0.62499999610E+02  0.10000002413E+02 0.  0.
    3000022    2    5    5    0    0  0.26668095897E+01  0.36489656693E+01  0.22142435539E+01  0.50390673339E+01  0.25000247116E+00 0.  0.
        -13    1    4    4    0    0 -0.21891885198E+02 -0.11094338193E+02 -0.23014247694E+02  0.33645290895E+02  0.10500000000E+00 0. -1.
         13    1    4    4    0    0 -0.11103053072E+02 -0.57164440741E+01 -0.11686803218E+02  0.17104032122E+02  0.10500000000E+00 0.  1.
    3000001    1    5    5    0    0  0.39675679941E+02  0.12811450554E+02  0.39528039339E+02  0.57460932276E+02  0.10000000000E+01 0.  1.
        -13    1    6    6    0    0  0.14341042239E+01  0.20570349371E+01  0.11879065761E+01  0.27767237333E+01  0.10500000000E+00 0.  1.
         13    1    6    6    0    0  0.12327053658E+01  0.15919307322E+01  0.10263369778E+01  0.22623436006E+01  0.10500000000E+00 0. -1.
</event>
<event>
11    0  0.3396091E-009  0.9118800E+02  0.7816531E-02  0.1126479E+00
         25   -1    0    0    0    0  0.00000000000E+00  0.00000000000E+00  0.99999998245E-14  0.12500000000E+03  0.12500000000E+03 0.  0.
    3000001    1    3    3    0    0 -0.12036907789E+02 -0.17609987180E+02 -0.11906462597E+02  0.24449185041E+02  0.10000000000E+01 0. -1.
    1000022    2    1    0    0    0 -0.40311805302E+02 -0.39430366178E+02 -0.25029079341E+02  0.62499997651E+02  0.99999735018E+01 0.  0.
    3000022    2    3    3    0    0 -0.28274897513E+02 -0.21820378999E+02 -0.13122616744E+02  0.38050812610E+02  0.25000209949E+00 0.  0.
    1000022    2    1    0    0    0  0.40311805302E+02  0.39430366178E+02  0.25029079341E+02  0.62500002349E+02  0.10000002861E+02 0.  0.
    3000022    2    5    5    0    0  0.37129908826E+02  0.36220641348E+02  0.19813609272E+02  0.55526629656E+02  0.24999884583E+00 0.  0.
        -13    1    4    4    0    0 -0.19240426352E+02 -0.14898552257E+02 -0.89738341873E+01  0.25936491485E+02  0.10500000000E+00 0. -1.
         13    1    4    4    0    0 -0.90344711616E+01 -0.69218267421E+01 -0.41487825568E+01  0.12114321125E+02  0.10500000000E+00 0.  1.
    3000001    1    5    5    0    0  0.31818964759E+01  0.32097248308E+01  0.52154700695E+01  0.69733726932E+01  0.10000000000E+01 0.  1.
        -13    1    6    6    0    0  0.22765309718E+02  0.22228377147E+02  0.12089625385E+02  0.34037187664E+02  0.10500000000E+00 0. -1.
         13    1    6    6    0    0  0.14364599108E+02  0.13992264201E+02  0.77239838870E+01  0.21489441991E+02  0.10500000000E+00 0.  1.
</event>
<event>
11    0  0.3396091E-009  0.9118800E+02  0.7816531E-02  0.1126479E+00
         25   -1    0    0    0    0  0.00000000000E+00  0.00000000000E+00  0.99999998245E-14  0.12500000000E+03  0.12500000000E+03 0.  0.
    3000001    1    3    3    0    0  0.36453138904E+02 -0.39904158290E+02 -0.16475351605E+02  0.56512037614E+02  0.10000000000E+01 0.  1.
    1000022    2    1    0    0    0  0.38219583177E+02 -0.45616422247E+02 -0.16268230434E+02  0.62499998744E+02  0.10000000237E+02 0.  0.
    3000022    2    3    3    0    0  0.17664442732E+01 -0.57122639569E+01  0.20712117028E+00  0.59879611305E+01  0.24998887411E+00 0.  0.
    1000022    2    1    0    0    0 -0.38219583177E+02  0.45616422247E+02  0.16268230434E+02  0.62500001256E+02  0.10000015937E+02 0.  0.
    3000022    2    5    5    0    0 -0.35739663670E+02  0.43999541486E+02  0.17201508946E+02  0.59238818506E+02  0.24999531140E+00 0.  0.
        -13    1    4    4    0    0  0.12078085492E+01 -0.38341861821E+01  0.18716512327E+00  0.40256478925E+01  0.10500000000E+00 0. -1.
         13    1    4    4    0    0  0.55863572398E+00 -0.18780777748E+01  0.19956047015E-01  0.19623132380E+01  0.10500000000E+00 0.  1.
    3000001    1    5    5    0    0 -0.24799195063E+01  0.16168807602E+01 -0.93327851140E+00  0.32611827502E+01  0.10000000000E+01 0.  1.
        -13    1    6    6    0    0 -0.19981523157E+02  0.24679528032E+02  0.95912712825E+01  0.33171431705E+02  0.10500000000E+00 0.  1.
         13    1    6    6    0    0 -0.15758140514E+02  0.19320013454E+02  0.76102376633E+01  0.26067386801E+02  0.10500000000E+00 0. -1.
</event>
<event>
11    0  0.3396091E-009  0.9118800E+02  0.7816531E-02  0.1126479E+00
         25   -1    0    0    0    0  0.00000000000E+00  0.00000000000E+00  0.99999998245E-14  0.12500000000E+03  0.12500000000E+03 0.  0.
    3000001    1    3    3    0    0  0.11849734562E+02 -0.18018473134E-01 -0.12249402532E+02  0.17072328378E+02  0.10000000000E+01 0.  1.
    1000022    2    1    0    0    0  0.51479198881E+02  0.73458202673E+01 -0.33199110861E+02  0.62500000040E+02  0.10000002513E+02 0.  0.
    3000022    2    3    3    0    0  0.39629464318E+02  0.73638387404E+01 -0.20949708329E+02  0.45427671662E+02  0.25002078054E+00 0.  0.
    1000022    2    1    0    0    0 -0.51479198881E+02 -0.73458202673E+01  0.33199110861E+02  0.62499999960E+02  0.10000002010E+02 0.  0.
    3000022    2    5    5    0    0 -0.29795419620E+02 -0.26373380616E+00  0.15353617239E+02  0.33520630155E+02  0.24999561196E+00 0.  0.
        -13    1    4    4    0    0  0.23662804008E+02  0.44312681556E+01 -0.12572689030E+02  0.27159675355E+02  0.10500000000E+00 0.  1.
         13    1    4    4    0    0  0.15966660311E+02  0.29325705848E+01 -0.83770192996E+01  0.18267996307E+02  0.10500000000E+00 0. -1.
    3000001    1    5    5    0    0 -0.21683779260E+02 -0.70820864611E+01  0.17845493622E+02  0.28979369805E+02  0.10000000000E+01 0.  1.
        -13    1    6    6    0    0 -0.15363346048E+02 -0.80470022014E-01  0.79600817307E+01  0.17303548867E+02  0.10500000000E+00 0. -1.
         13    1    6    6    0    0 -0.14432073572E+02 -0.18326378414E+00  0.73935355083E+01  0.16217081289E+02  0.10500000000E+00 0.  1.
</event>
<event>
11    0  0.3396091E-009  0.9118800E+02  0.7816531E-02  0.1126479E+00
         25   -1    0    0    0    0  0.00000000000E+00  0.00000000000E+00  0.99999998245E-14  0.12500000000E+03  0.12500000000E+03 0.  0.
    3000001    1    3    3    0    0  0.21934028409E+02 -0.24165981407E+02 -0.10789026099E+02  0.34387488186E+02  0.10000000000E+01 0. -1.
    1000022    2    1    0    0    0  0.44259066156E+02 -0.41181941896E+02 -0.12305800552E+02  0.62500000136E+02  0.10000000719E+02 0.  0.
    3000022    2    3    3    0    0  0.22325037747E+02 -0.17015960489E+02 -0.15167744531E+01  0.28112511949E+02  0.25000314900E+00 0.  0.
    1000022    2    1    0    0    0 -0.44259066156E+02  0.41181941896E+02  0.12305800552E+02  0.62499999864E+02  0.99999990242E+01 0.  0.
    3000022    2    5    5    0    0 -0.28167275463E+02  0.27216393926E+02  0.31739155922E+01  0.39297121147E+02  0.24996995894E+00 0.  0.
        -13    1    4    4    0    0  0.10177847644E+02 -0.77170758674E+01 -0.74892248659E+00  0.12795067507E+02  0.10500000000E+00 0.  1.
         13    1    4    4    0    0  0.12147190103E+02 -0.92988846214E+01 -0.76785196654E+00  0.15317444443E+02  0.10500000000E+00 0. -1.
    3000001    1    5    5    0    0 -0.16091790694E+02  0.13965547970E+02  0.91318849600E+01  0.23202878717E+02  0.10000000000E+01 0.  1.
        -13    1    6    6    0    0 -0.18011769629E+02  0.17452167621E+02  0.19857488509E+01  0.25158621253E+02  0.10500000000E+00 0. -1.
         13    1    6    6    0    0 -0.10155505833E+02  0.97642263042E+01  0.11881667413E+01  0.14138499894E+02  0.10500000000E+00 0.  1.
</event>
<event>
11    0  0.3396091E-009  0.9118800E+02  0.7816531E-02  0.1126479E+00
         25   -1    0    0    0    0  0.00000000000E+00  0.00000000000E+00  0.99999998245E-14  0.12500000000E+03  0.12500000000E+03 0.  0.
    3000001    1    3    3    0    0  0.41299326072E+00  0.90588522146E-01 -0.55133682778E+00  0.12176789443E+01  0.10000000000E+01 0.  1.
    1000022    2    1    0    0    0  0.60843920602E+02 -0.98885367844E+01 -0.25464070580E+01  0.62499998706E+02  0.99999907666E+01 0.  0.
    3000022    2    3    3    0    0  0.60430927341E+02 -0.99791253065E+01 -0.19950702302E+01  0.61282319761E+02  0.24997777145E+00 0.  0.
    1000022    2    1    0    0    0 -0.60843920602E+02  0.98885367844E+01  0.25464070580E+01  0.62500001294E+02  0.10000006947E+02 0.  0.
    3000022    2    5    5    0    0 -0.49507841364E+02  0.47611844719E+01 -0.11764220832E+00  0.49737023871E+02  0.24993941842E+00 0.  0.
        -13    1    4    4    0    0  0.26174591623E+02 -0.43596086456E+01 -0.91878645429E+00  0.26551282977E+02  0.10500000000E+00 0. -1.
         13    1    4    4    0    0  0.34256335719E+02 -0.56195166610E+01 -0.10762837759E+01  0.34731036785E+02  0.10500000000E+00 0.  1.
    3000001    1    5    5    0    0 -0.11336079238E+02  0.51273523125E+01  0.26640492663E+01  0.12762977423E+02  0.10000000000E+01 0. -1.
        -13    1    6    6    0    0 -0.32927367029E+02  0.31884383021E+01 -0.29075216641E-01  0.33081558438E+02  0.10500000000E+00 0.  1.
         13    1    6    6    0    0 -0.16580474335E+02  0.15727461697E+01 -0.88566991676E-01  0.16655465433E+02  0.10500000000E+00 0. -1.
</event>
<event>
11    0  0.3396091E-009  0.9118800E+02  0.7816531E-02  0.1126479E+00
         25   -1    0    0    0    0  0.00000000000E+00  0.00000000000E+00  0.99999998245E-14  0.12500000000E+03  0.12500000000E+03 0.  0.
    3000001    1    3    3    0    0 -0.17862033145E+02  0.33968846224E+02  0.16909767350E+02  0.41950863802E+02  0.10000000000E+01 0.  1.
    1000022    2    1    0    0    0 -0.31176486184E+02  0.45774882689E+02  0.27183385496E+02  0.62499997156E+02  0.10000001072E+02 0.  0.
    3000022    2    3    3    0    0 -0.13314453039E+02  0.11806036465E+02  0.10273618147E+02  0.20549133354E+02  0.24999009791E+00 0.  0.
    1000022    2    1    0    0    0  0.31176486184E+02 -0.45774882689E+02 -0.27183385496E+02  0.62500002844E+02  0.10000036623E+02 0.  0.
    3000022    2    5    5    0    0  0.13206874258E+02 -0.19484965064E+02 -0.61744196042E+01  0.24336625512E+02  0.24998532293E+00 0.  0.
        -13    1    4    4    0    0 -0.44371884864E+01  0.40016855572E+01  0.34271871380E+01  0.68890322718E+01  0.10500000000E+00 0. -1.
         13    1    4    4    0    0 -0.88772645525E+01  0.78043509078E+01  0.68464310086E+01  0.13660101082E+02  0.10500000000E+00 0.  1.
    3000001    1    5    5    0    0  0.17969611927E+02 -0.26289917626E+02 -0.21008965892E+02  0.38163377332E+02  0.10000000000E+01 0.  1.
        -13    1    6    6    0    0  0.58537965134E+01 -0.85686168176E+01 -0.27780004389E+01  0.10743204328E+02  0.10500000000E+00 0.  1.
         13    1    6    6    0    0  0.73530777442E+01 -0.10916348246E+02 -0.33964191653E+01  0.13593421184E+02  0.10500000000E+00 0. -1.
</event>
<event>
11    0  0.3396091E-009  0.9118800E+02  0.7816531E-02  0.1126479E+00
         25   -1    0    0    0    0  0.00000000000E+00  0.00000000000E+00  0.99999998245E-14  0.12500000000E+03  0.12500000000E+03 0.  0.
    3000001    1    3    3    0    0 -0.25864403772E+01 -0.42071138748E+01 -0.15478802878E+00  0.50411744975E+01  0.10000000000E+01 0.  1.
    1000022    2    1    0    0    0 -0.45145926085E+02 -0.35942744088E+02  0.21822338526E+02  0.62500000107E+02  0.10000002997E+02 0.  0.
    3000022    2    3    3    0    0 -0.42559485708E+02 -0.31735630214E+02  0.21977126555E+02  0.57458825610E+02  0.25000006344E+00 0.  0.
    1000022    2    1    0    0    0  0.45145926085E+02  0.35942744088E+02 -0.21822338526E+02  0.62499999893E+02  0.10000001655E+02 0.  0.
    3000022    2    5    5    0    0  0.11829929490E+02  0.12612410034E+02 -0.25489053253E+01  0.17480833490E+02  0.25000508645E+00 0.  0.
        -13    1    4    4    0    0 -0.15754057014E+02 -0.11673334488E+02  0.81190148762E+01  0.21222310855E+02  0.10500000000E+00 0. -1.
         13    1    4    4    0    0 -0.26805428694E+02 -0.20062295726E+02  0.13858111679E+02  0.36236514755E+02  0.10500000000E+00 0.  1.
    3000001    1    5    5    0    0  0.33315996595E+02  0.23330334055E+02 -0.19273433201E+02  0.45019166403E+02  0.10000000000E+01 0.  1.
        -13    1    6    6    0    0  0.31312771333E+01  0.33878510214E+01 -0.67249456622E+00  0.46632290283E+01  0.10500000000E+00 0. -1.
         13    1    6    6    0    0  0.86986523566E+01  0.92245590124E+01 -0.18764107590E+01  0.12817604461E+02  0.10500000000E+00 0.  1.
</event>
<event>
11    0  0.3396091E-009  0.9118800E+02  0.7816531E-02  0.1126479E+00
         25   -1    0    0    0    0  0.00000000000E+00  0.00000000000E+00  0.99999998245E-14  0.12500000000E+03  0.12500000000E+03 0.  0.
    3000001    1    3    3    0    0  0.31382515846E+02  0.32779474879E+02 -0.21851746868E+02  0.50377128892E+02  0.10000000000E+01 0. -1.
    1000022    2    1    0    0    0  0.37152006285E+02  0.38299030509E+02 -0.30970354561E+02  0.62500001364E+02  0.99999999955E+01 0.  0.
    3000022    2    3    3    0    0  0.57694904392E+01  0.55195556298E+01 -0.91186076923E+01  0.12122872472E+02  0.25003289145E+00 0.  0.
    1000022    2    1    0    0    0 -0.37152006285E+02 -0.38299030509E+02  0.30970354561E+02  0.62499998636E+02  0.99999829512E+01 0.  0.
    3000022    2    5    5    0    0 -0.65698008652E+01 -0.46149292042E+01  0.86819936209E+01  0.11827905701E+02  0.24997015610E+00 0.  0.
        -13    1    4    4    0    0  0.32097847627E+01  0.31190666552E+01 -0.51958895503E+01  0.68585412619E+01  0.10500000000E+00 0.  1.
         13    1    4    4    0    0  0.25597056765E+01  0.24004889745E+01 -0.39227181420E+01  0.52643312100E+01  0.10500000000E+00 0. -1.
    3000001    1    5    5    0    0 -0.30582205420E+02 -0.33684101305E+02  0.22288360940E+02  0.50672092935E+02  0.10000000000E+01 0. -1.
        -13    1    6    6    0    0 -0.23187984379E+01 -0.15819791755E+01  0.29754683769E+01  0.40919336956E+01  0.10500000000E+00 0. -1.
         13    1    6    6    0    0 -0.42510024274E+01 -0.30329500287E+01  0.57065252440E+01  0.77359720058E+01  0.10500000000E+00 0.  1.
</event>
<event>
11    0  0.3396091E-009  0.9118800E+02  0.7816531E-02  0.1126479E+00
         25   -1    0    0    0    0  0.00000000000E+00  0.00000000000E+00  0.99999998245E-14  0.12500000000E+03  0.12500000000E+03 0.  0.
    3000001    1    3    3    0    0 -0.59147254268E+01 -0.39523224165E+01  0.14947334907E+02  0.16583957615E+02  0.10000000000E+01 0.  1.
    1000022    2    1    0    0    0 -0.24880728405E+02  0.12132848703E+01  0.56442250158E+02  0.62500003311E+02  0.10000005239E+02 0.  0.
    3000022    2    3    3    0    0 -0.18966002978E+02  0.51656072868E+01  0.41494915252E+02  0.45916045696E+02  0.24998601637E+00 0.  0.
    1000022    2    1    0    0    0  0.24880728405E+02 -0.12132848703E+01 -0.56442250158E+02  0.62499996689E+02  0.99999638555E+01 0.  0.
    3000022    2    5    5    0    0 -0.31484065567E+00  0.90934103225E+00 -0.58332399769E+01  0.59173654980E+01  0.25000011374E+00 0.  0.
        -13    1    4    4    0    0 -0.60165308084E+01  0.16093191979E+01  0.13244561480E+02  0.14636187517E+02  0.10500000000E+00 0. -1.
         13    1    4    4    0    0 -0.12949472170E+02  0.35562880890E+01  0.28250353772E+02  0.31279858179E+02  0.10500000000E+00 0.  1.
    3000001    1    5    5    0    0  0.25195569061E+02 -0.21226259026E+01 -0.50609010181E+02  0.56582631191E+02  0.10000000000E+01 0.  1.
        -13    1    6    6    0    0 -0.24185490245E+00  0.64119761663E+00 -0.43139192731E+01  0.43692737008E+01  0.10500000000E+00 0.  1.
         13    1    6    6    0    0 -0.72985753213E-01  0.26814341562E+00 -0.15193207038E+01  0.15480917972E+01  0.10500000000E+00 0. -1.
</event>
<event>
11    0  0.3396091E-009  0.9118800E+02  0.7816531E-02  0.1126479E+00
         25   -1    0    0    0    0  0.00000000000E+00  0.00000000000E+00  0.99999998245E-14  0.12500000000E+03  0.12500000000E+03 0.  0.
    3000001    1    3    3    0    0  0.15395601361E+01  0.34117104819E+01 -0.26639799321E+02  0.26920046836E+02  0.10000000000E+01 0. -1.
    1000022    2    1    0    0    0  0.57549198834E+01 -0.32120203423E+01 -0.61341779285E+02  0.62499998822E+02  0.99999894659E+01 0.  0.
    3000022    2    3    3    0    0  0.42153597473E+01 -0.66237308242E+01 -0.34701979964E+02  0.35579951985E+02  0.25000400956E+00 0.  0.
    1000022    2    1    0    0    0 -0.57549198834E+01  0.32120203423E+01  0.61341779285E+02  0.62500001178E+02  0.10000004195E+02 0.  0.
    3000022    2    5    5    0    0  0.13528714346E+01  0.40419899036E+01  0.14907667351E+02  0.15507062368E+02  0.24998790470E+00 0.  0.
        -13    1    4    4    0    0  0.11742767466E+01 -0.18280076240E+01 -0.94411342288E+01  0.96884765716E+01  0.10500000000E+00 0.  1.
         13    1    4    4    0    0  0.30410830007E+01 -0.47957232001E+01 -0.25260845735E+02  0.25891475414E+02  0.10500000000E+00 0. -1.
    3000001    1    5    5    0    0 -0.71077913180E+01 -0.82996956128E+00  0.46434111934E+02  0.46992938810E+02  0.10000000000E+01 0. -1.
        -13    1    6    6    0    0  0.76267889301E+00  0.22882284513E+01  0.86712080002E+01  0.90010300367E+01  0.10500000000E+00 0.  1.
         13    1    6    6    0    0  0.59019254159E+00  0.17537614524E+01  0.62364593505E+01  0.65060323315E+01  0.10500000000E+00 0. -1.
</event>
<event>
11    0  0.3396091E-009  0.9118800E+02  0.7816531E-02  0.1126479E+00
         25   -1    0    0    0    0  0.00000000000E+00  0.00000000000E+00  0.99999998245E-14  0.12500000000E+03  0.12500000000E+03 0.  0.
    3000001    1    3    3    0    0 -0.72477974245E+01  0.29590941814E+02  0.22279438175E+02  0.37756162018E+02  0.10000000000E+01 0.  1.
    1000022    2    1    0    0    0 -0.12873734792E+02  0.43082182156E+02  0.42242646560E+02  0.62499987879E+02  0.99999914856E+01 0.  0.
    3000022    2    3    3    0    0 -0.56259373678E+01  0.13491240342E+02  0.19963208385E+02  0.24743825861E+02  0.24998400022E+00 0.  0.
    1000022    2    1    0    0    0  0.12873734792E+02 -0.43082182156E+02 -0.42242646560E+02  0.62500012121E+02  0.10000142994E+02 0.  0.
    3000022    2    5    5    0    0  0.16015288573E+00 -0.86020867425E+01 -0.12679272906E+02  0.15324751587E+02  0.25000902509E+00 0.  0.
        -13    1    4    4    0    0 -0.25376422868E+01  0.60824944549E+01  0.91141401315E+01  0.11247886135E+02  0.10500000000E+00 0. -1.
         13    1    4    4    0    0 -0.30882950809E+01  0.74087458872E+01  0.10849068254E+02  0.13495939726E+02  0.10500000000E+00 0.  1.
    3000001    1    5    5    0    0  0.12713581907E+02 -0.34480095413E+02 -0.29563373654E+02  0.47175260533E+02  0.10000000000E+01 0. -1.
        -13    1    6    6    0    0  0.10541560384E+00 -0.28968411870E+01 -0.42427282123E+01  0.51395105794E+01  0.10500000000E+00 0. -1.
         13    1    6    6    0    0  0.54737281892E-01 -0.57052455555E+01 -0.84365446940E+01  0.10185241008E+02  0.10500000000E+00 0.  1.
</event>
<event>
11    0  0.3396091E-009  0.9118800E+02  0.7816531E-02  0.1126479E+00
         25   -1    0    0    0    0  0.00000000000E+00  0.00000000000E+00  0.99999998245E-14  0.12500000000E+03  0.12500000000E+03 0.  0.
    3000001    1    3    3    0    0  0.47251849828E+00  0.99261931985E+01  0.15888690349E+02  0.18767073990E+02  0.10000000000E+01 0. -1.
    1000022    2    1    0    0    0  0.10142424704E+02  0.21426285870E+02  0.56958716818E+02  0.62499999666E+02  0.10000001581E+02 0.  0.
    3000022    2    3    3    0    0  0.96699062056E+01  0.11500092672E+02  0.41070026469E+02  0.43732925676E+02  0.24999304065E+00 0.  0.
    1000022    2    1    0    0    0 -0.10142424704E+02 -0.21426285870E+02 -0.56958716818E+02  0.62500000334E+02  0.10000005752E+02 0.  0.
    3000022    2    5    5    0    0 -0.66676150361E+01 -0.57702561616E+01 -0.28314216076E+02  0.29656538408E+02  0.24998383801E+00 0.  0.
        -13    1    4    4    0    0  0.29346149344E+01  0.35159818328E+01  0.12392218883E+02  0.13211820727E+02  0.10500000000E+00 0.  1.
         13    1    4    4    0    0  0.67352912712E+01  0.79841108391E+01  0.28677807586E+02  0.30521104949E+02  0.10500000000E+00 0. -1.
    3000001    1    5    5    0    0 -0.34748096677E+01 -0.15656029709E+02 -0.28644500742E+02  0.32843461925E+02  0.10000000000E+01 0.  1.
        -13    1    6    6    0    0 -0.33950385200E+01 -0.29412050032E+01 -0.14195704956E+02  0.14889796426E+02  0.10500000000E+00 0. -1.
         13    1    6    6    0    0 -0.32725765162E+01 -0.28290511584E+01 -0.14118511120E+02  0.14766741982E+02  0.10500000000E+00 0.  1.
</event>
<event>
11    0  0.3396091E-009  0.9118800E+02  0.7816531E-02  0.1126479E+00
         25   -1    0    0    0    0  0.00000000000E+00  0.00000000000E+00  0.99999998245E-14  0.12500000000E+03  0.12500000000E+03 0.  0.
    3000001    1    3    3    0    0 -0.24054886921E+02  0.30491914142E+02  0.19046193481E+02  0.43268370652E+02  0.10000000000E+01 0. -1.
    1000022    2    1    0    0    0 -0.39525787768E+02  0.40036804170E+02  0.25318303751E+02  0.62499999960E+02  0.99999951695E+01 0.  0.
    3000022    2    3    3    0    0 -0.15470900848E+02  0.95448900277E+01  0.62721102697E+01  0.19231629308E+02  0.24999983168E+00 0.  0.
    1000022    2    1    0    0    0  0.39525787768E+02 -0.40036804170E+02 -0.25318303751E+02  0.62500000040E+02  0.99999956673E+01 0.  0.
    3000022    2    5    5    0    0  0.35503511458E+02 -0.35744281267E+02 -0.19094113183E+02  0.53877644920E+02  0.24998957233E+00 0.  0.
        -13    1    4    4    0    0 -0.11353429740E+02  0.70444026244E+01  0.46090080150E+01  0.14134282970E+02  0.10500000000E+00 0. -1.
         13    1    4    4    0    0 -0.41174711079E+01  0.25004874033E+01  0.16631022547E+01  0.50973463379E+01  0.10500000000E+00 0. -1.
    3000001    1    5    5    0    0  0.40222763107E+01 -0.42925229030E+01 -0.62241905674E+01  0.86223551198E+01  0.10000000000E+01 0.  1.
        -13    1    6    6    0    0  0.25597343970E+02 -0.25715281384E+02 -0.13745516190E+02  0.38800128290E+02  0.10500000000E+00 0. -1.
         13    1    6    6    0    0  0.99061674879E+01 -0.10028999883E+02 -0.53485969927E+01  0.15077516630E+02  0.10500000000E+00 0.  1.
</event>
<event>
11    0  0.3396091E-009  0.9118800E+02  0.7816531E-02  0.1126479E+00
         25   -1    0    0    0    0  0.00000000000E+00  0.00000000000E+00  0.99999998245E-14  0.12500000000E+03  0.12500000000E+03 0.  0.
    3000001    1    3    3    0    0  0.19120737846E+01  0.75010167371E+00  0.10327090553E+02  0.10576742314E+02  0.10000000000E+01 0.  1.
    1000022    2    1    0    0    0 -0.10101419590E+02  0.25553560480E+01  0.60808562842E+02  0.62499998253E+02  0.99999972195E+01 0.  0.
    3000022    2    3    3    0    0 -0.12013493374E+02  0.18052543743E+01  0.50481472289E+02  0.51923255939E+02  0.24999283125E+00 0.  0.
    1000022    2    1    0    0    0  0.10101419590E+02 -0.25553560480E+01 -0.60808562842E+02  0.62500001747E+02  0.10000019060E+02 0.  0.
    3000022    2    5    5    0    0  0.22027218729E+01 -0.54905645372E+01 -0.22874949367E+02  0.23628882574E+02  0.25000112615E+00 0.  0.
        -13    1    4    4    0    0 -0.50229455960E+01  0.77811471001E+00  0.20864678979E+02  0.21475132103E+02  0.10500000000E+00 0.  1.
         13    1    4    4    0    0 -0.69905477783E+01  0.10271396643E+01  0.29616793310E+02  0.30448123836E+02  0.10500000000E+00 0. -1.
    3000001    1    5    5    0    0  0.78986977168E+01  0.29352084892E+01 -0.37933613475E+02  0.38871119173E+02  0.10000000000E+01 0.  1.
        -13    1    6    6    0    0  0.12446006224E+01 -0.32034676597E+01 -0.13494827208E+02  0.13925969343E+02  0.10500000000E+00 0. -1.
         13    1    6    6    0    0  0.95812125052E+00 -0.22870968775E+01 -0.93801221587E+01  0.97029132310E+01  0.10500000000E+00 0.  1.
</event>
<event>
11    0  0.3396091E-009  0.9118800E+02  0.7816531E-02  0.1126479E+00
         25   -1    0    0    0    0  0.00000000000E+00  0.00000000000E+00  0.99999998245E-14  0.12500000000E+03  0.12500000000E+03 0.  0.
    3000001    1    3    3    0    0 -0.51635862951E+02  0.15550775501E+02 -0.25841151413E+02  0.59806806199E+02  0.10000000000E+01 0. -1.
    1000022    2    1    0    0    0 -0.54015961923E+02  0.16366244847E+02 -0.24913287623E+02  0.62499999788E+02  0.99999980227E+01 0.  0.
    3000022    2    3    3    0    0 -0.23800989722E+01  0.81546934669E+00  0.92786379064E+00  0.26931935891E+01  0.24999824264E+00 0.  0.
    1000022    2    1    0    0    0  0.54015961923E+02 -0.16366244847E+02  0.24913287623E+02  0.62500000212E+02  0.10000000668E+02 0.  0.
    3000022    2    5    5    0    0  0.23362411944E+02 -0.10807792882E+02  0.14991049727E+02  0.29789339572E+02  0.25000285393E+00 0.  0.
        -13    1    4    4    0    0 -0.96224008567E+00  0.36348223290E+00  0.32105845854E+00  0.10826489966E+01  0.10500000000E+00 0.  1.
         13    1    4    4    0    0 -0.14178588865E+01  0.45198711379E+00  0.60680533210E+00  0.16105445924E+01  0.10500000000E+00 0. -1.
    3000001    1    5    5    0    0  0.30653549980E+02 -0.55584519658E+01  0.99222378962E+01  0.32710660640E+02  0.10000000000E+01 0. -1.
        -13    1    6    6    0    0  0.15159692263E+02 -0.69716879280E+01  0.97665465589E+01  0.19334351780E+02  0.10500000000E+00 0. -1.
         13    1    6    6    0    0  0.82027196806E+01 -0.38361049536E+01  0.52245031677E+01  0.10454987792E+02  0.10500000000E+00 0.  1.
</event>
<event>
11    0  0.3396091E-009  0.9118800E+02  0.7816531E-02  0.1126479E+00
         25   -1    0    0    0    0  0.00000000000E+00  0.00000000000E+00  0.99999998245E-14  0.12500000000E+03  0.12500000000E+03 0.  0.
    3000001    1    3    3    0    0 -0.18715257362E+02  0.34725394385E+02  0.10378357882E+01  0.39473927806E+02  0.10000000000E+01 0.  1.
    1000022    2    1    0    0    0 -0.31766937906E+02  0.52222501079E+02  0.83619307410E+01  0.62499999439E+02  0.10000004064E+02 0.  0.
    3000022    2    3    3    0    0 -0.13051680544E+02  0.17497106695E+02  0.73240949528E+01  0.23026071633E+02  0.25000056650E+00 0.  0.
    1000022    2    1    0    0    0  0.31766937906E+02 -0.52222501079E+02 -0.83619307410E+01  0.62500000561E+02  0.10000011076E+02 0.  0.
    3000022    2    5    5    0    0  0.73926955181E+01 -0.58299366168E+01  0.22596602204E-01  0.94182331813E+01  0.24999534516E+00 0.  0.
        -13    1    4    4    0    0 -0.91058308816E+01  0.12241162054E+02  0.50750454439E+01  0.16078846841E+02  0.10500000000E+00 0. -1.
         13    1    4    4    0    0 -0.39458496627E+01  0.52559446402E+01  0.22490495088E+01  0.69472247923E+01  0.10500000000E+00 0.  1.
    3000001    1    5    5    0    0  0.24374242388E+02 -0.46392564462E+02 -0.83845273432E+01  0.53081767380E+02  0.10000000000E+01 0.  1.
        -13    1    6    6    0    0  0.41808726935E+01 -0.33699890177E+01  0.44697573441E-01  0.53711772762E+01  0.10500000000E+00 0.  1.
         13    1    6    6    0    0  0.32118228246E+01 -0.24599475990E+01 -0.22100971237E-01  0.40470559051E+01  0.10500000000E+00 0. -1.
</event>
<event>
11    0  0.3396091E-009  0.9118800E+02  0.7816531E-02  0.1126479E+00
         25   -1    0    0    0    0  0.00000000000E+00  0.00000000000E+00  0.99999998245E-14  0.12500000000E+03  0.12500000000E+03 0.  0.
    3000001    1    3    3    0    0  0.69473391730E+01 -0.53873919859E+01 -0.37464711549E+01  0.96086190532E+01  0.10000000000E+01 0. -1.
    1000022    2    1    0    0    0  0.46306109733E+02 -0.40694703570E+02 -0.24362548437E+01  0.62500000251E+02  0.99999998209E+01 0.  0.
    3000022    2    3    3    0    0  0.39358770560E+02 -0.35307311584E+02  0.13102163112E+01  0.52891381197E+02  0.24993380726E+00 0.  0.
    1000022    2    1    0    0    0 -0.46306109733E+02  0.40694703570E+02  0.24362548437E+01  0.62499999749E+02  0.99999966878E+01 0.  0.
    3000022    2    5    5    0    0 -0.56135720111E+01  0.88701907513E+01  0.26544849027E+01  0.10830571005E+02  0.25000702193E+00 0.  0.
        -13    1    4    4    0    0  0.23475229361E+02 -0.21007331086E+02  0.73007667010E+00  0.31510924929E+02  0.10500000000E+00 0. -1.
         13    1    4    4    0    0  0.15883541199E+02 -0.14299980497E+02  0.58013964111E+00  0.21380456268E+02  0.10500000000E+00 0.  1.
    3000001    1    5    5    0    0 -0.40692537722E+02  0.31824512818E+02 -0.21823005898E+00  0.51669428744E+02  0.10000000000E+01 0.  1.
        -13    1    6    6    0    0 -0.39907388426E+01  0.62341932272E+01  0.18945716778E+01  0.76414389054E+01  0.10500000000E+00 0. -1.
         13    1    6    6    0    0 -0.16228331685E+01  0.26359975241E+01  0.75991322486E+00  0.31891320997E+01  0.10500000000E+00 0.  1.
</event>
<event>
11    0  0.3396091E-009  0.9118800E+02  0.7816531E-02  0.1126479E+00
         25   -1    0    0    0    0  0.00000000000E+00  0.00000000000E+00  0.99999998245E-14  0.12500000000E+03  0.12500000000E+03 0.  0.
    3000001    1    3    3    0    0  0.20424124237E+02 -0.35415966829E+02  0.11374404622E+02  0.42447763637E+02  0.10000000000E+01 0. -1.
    1000022    2    1    0    0    0  0.29668806374E+02 -0.53156587952E+02  0.10019455880E+02  0.62499999970E+02  0.99999792898E+01 0.  0.
    3000022    2    3    3    0    0  0.92446821364E+01 -0.17740621124E+02 -0.13549487419E+01  0.20052236333E+02  0.25002045364E+00 0.  0.
    1000022    2    1    0    0    0 -0.29668806374E+02  0.53156587952E+02 -0.10019455880E+02  0.62500000030E+02  0.99999796633E+01 0.  0.
    3000022    2    5    5    0    0 -0.56150786050E+01  0.14694104040E+02 -0.63862704385E+01  0.16979185838E+02  0.25000064601E+00 0.  0.
        -13    1    4    4    0    0  0.61276729566E+01 -0.11655928392E+02 -0.86413662641E+00  0.13197226968E+02  0.10500000000E+00 0.  1.
         13    1    4    4    0    0  0.31170091798E+01 -0.60846927314E+01 -0.49081211553E+00  0.68550093651E+01  0.10500000000E+00 0. -1.
    3000001    1    5    5    0    0 -0.24053727769E+02  0.38462483912E+02 -0.36331854411E+01  0.45520814192E+02  0.10000000000E+01 0. -1.
        -13    1    6    6    0    0 -0.27461257060E+01  0.70663973850E+01 -0.30212677837E+01  0.81617560866E+01  0.10500000000E+00 0.  1.
         13    1    6    6    0    0 -0.28689528989E+01  0.76277066555E+01 -0.33650026548E+01  0.88174297516E+01  0.10500000000E+00 0. -1.
</event>
<event>
11    0  0.3396091E-009  0.9118800E+02  0.7816531E-02  0.1126479E+00
         25   -1    0    0    0    0  0.00000000000E+00  0.00000000000E+00  0.99999998245E-14  0.12500000000E+03  0.12500000000E+03 0.  0.
    3000001    1    3    3    0    0  0.13538615307E+02  0.14314158671E+02 -0.22549051279E+02  0.29960790318E+02  0.10000000000E+01 0. -1.
    1000022    2    1    0    0    0  0.23049016953E+02  0.37783439767E+02 -0.42981445360E+02  0.62499999394E+02  0.99999887931E+01 0.  0.
    3000022    2    3    3    0    0  0.95104016463E+01  0.23469281096E+02 -0.20432394081E+02  0.32539209076E+02  0.25000955849E+00 0.  0.
    1000022    2    1    0    0    0 -0.23049016953E+02 -0.37783439767E+02  0.42981445360E+02  0.62500000606E+02  0.99999963687E+01 0.  0.
    3000022    2    5    5    0    0 -0.16978292918E+02 -0.27491851317E+02  0.24853799857E+02  0.40765649577E+02  0.24999785077E+00 0.  0.
        -13    1    4    4    0    0  0.46151932926E+01  0.11278070435E+02 -0.99008473080E+01  0.15701359313E+02  0.10500000000E+00 0. -1.
         13    1    4    4    0    0  0.48952083536E+01  0.12191210660E+02 -0.10531546773E+02  0.16837849762E+02  0.10500000000E+00 0.  1.
    3000001    1    5    5    0    0 -0.60707240358E+01 -0.10291588450E+02  0.18127645503E+02  0.21734351029E+02  0.10000000000E+01 0.  1.
        -13    1    6    6    0    0 -0.92984898016E+01 -0.15049515399E+02  0.13691175256E+02  0.22369826356E+02  0.10500000000E+00 0. -1.
         13    1    6    6    0    0 -0.76798031159E+01 -0.12442335918E+02  0.11162624601E+02  0.18395823221E+02  0.10500000000E+00 0.  1.
</event>
<event>
11    0  0.3396091E-009  0.9118800E+02  0.7816531E-02  0.1126479E+00
         25   -1    0    0    0    0  0.00000000000E+00  0.00000000000E+00  0.99999998245E-14  0.12500000000E+03  0.12500000000E+03 0.  0.
    3000001    1    3    3    0    0 -0.13068282811E+02 -0.12124702766E+02  0.13435685839E+02  0.22345158016E+02  0.10000000000E+01 0. -1.
    1000022    2    1    0    0    0 -0.45816162554E+02 -0.26683191172E+02  0.31545784445E+02  0.62500000495E+02  0.10000005169E+02 0.  0.
    3000022    2    3    3    0    0 -0.32747879743E+02 -0.14558488405E+02  0.18110098606E+02  0.40154842479E+02  0.24998140673E+00 0.  0.
    1000022    2    1    0    0    0  0.45816162554E+02  0.26683191172E+02 -0.31545784445E+02  0.62499999505E+02  0.99999989768E+01 0.  0.
    3000022    2    5    5    0    0  0.17543468478E+02  0.10939157528E+02 -0.17965845363E+02  0.27391103607E+02  0.25000703543E+00 0.  0.
        -13    1    4    4    0    0 -0.15543612558E+02 -0.68398870193E+01  0.85580436938E+01  0.19016810528E+02  0.10500000000E+00 0. -1.
         13    1    4    4    0    0 -0.17204267185E+02 -0.77186013860E+01  0.95520549125E+01  0.21138031952E+02  0.10500000000E+00 0.  1.
    3000001    1    5    5    0    0  0.28272694076E+02  0.15744033644E+02 -0.13579939081E+02  0.35108895898E+02  0.10000000000E+01 0.  1.
        -13    1    6    6    0    0  0.61485029072E+01  0.37680596883E+01 -0.62763246412E+01  0.95606295722E+01  0.10500000000E+00 0. -1.
         13    1    6    6    0    0  0.11394965571E+02  0.71710978394E+01 -0.11689520722E+02  0.17830474034E+02  0.10500000000E+00 0.  1.
</event>
<event>
11    0  0.3396091E-009  0.9118800E+02  0.7816531E-02  0.1126479E+00
         25   -1    0    0    0    0  0.00000000000E+00  0.00000000000E+00  0.99999998245E-14  0.12500000000E+03  0.12500000000E+03 0.  0.
    3000001    1    3    3    0    0 -0.49298378483E+02  0.10875770857E+02  0.35257760362E+02  0.61585080811E+02  0.10000000000E+01 0. -1.
    1000022    2    1    0    0    0 -0.49242460972E+02  0.11754087332E+02  0.35260054009E+02  0.62499999123E+02  0.99999975091E+01 0.  0.
    3000022    2    3    3    0    0  0.55917511079E-01  0.87831647495E+00  0.22936474146E-02  0.91491831279E+00  0.25000731997E+00 0.  0.
    1000022    2    1    0    0    0  0.49242460972E+02 -0.11754087332E+02 -0.35260054009E+02  0.62500000877E+02  0.10000008465E+02 0.  0.
    3000022    2    5    5    0    0  0.37159028627E+02 -0.11351807348E+02 -0.30774044951E+02  0.49565726885E+02  0.25000092446E+00 0.  0.
        -13    1    4    4    0    0 -0.38013909800E-01  0.41359074638E+00  0.21359738647E-01  0.42893309649E+00  0.10500000000E+00 0.  1.
         13    1    4    4    0    0  0.93931420879E-01  0.46472572858E+00 -0.19066091232E-01  0.48598521630E+00  0.10500000000E+00 0. -1.
    3000001    1    5    5    0    0  0.12083432345E+02 -0.40227998379E+00 -0.44860090584E+01  0.12934273992E+02  0.10000000000E+01 0.  1.
        -13    1    6    6    0    0  0.24293170059E+02 -0.74155155003E+01 -0.20188287188E+02  0.32445738491E+02  0.10500000000E+00 0.  1.
         13    1    6    6    0    0  0.12865858567E+02 -0.39362918477E+01 -0.10585757763E+02  0.17119988394E+02  0.10500000000E+00 0. -1.
</event>
<event>
11    0  0.3396091E-009  0.9118800E+02  0.7816531E-02  0.1126479E+00
         25   -1    0    0    0    0  0.00000000000E+00  0.00000000000E+00  0.99999998245E-14  0.12500000000E+03  0.12500000000E+03 0.  0.
    3000001    1    3    3    0    0  0.20450771737E+02  0.14334127751E+02 -0.44978699843E+01  0.25395513726E+02  0.10000000000E+01 0. -1.
    1000022    2    1    0    0    0  0.43997167676E+02  0.43008933742E+02 -0.45531358040E+01  0.62499998823E+02  0.99999830994E+01 0.  0.
    3000022    2    3    3    0    0  0.23546395939E+02  0.28674805992E+02 -0.55265819694E-01  0.37104485097E+02  0.24999917941E+00 0.  0.
    1000022    2    1    0    0    0 -0.43997167676E+02 -0.43008933742E+02  0.45531358040E+01  0.62500001177E+02  0.99999978167E+01 0.  0.
    3000022    2    5    5    0    0 -0.42528115900E+02 -0.42774952523E+02  0.34989679175E+01  0.60420546858E+02  0.25000163501E+00 0.  0.
        -13    1    4    4    0    0  0.58158476473E+01  0.70636902253E+01  0.74387201123E-02  0.91504581191E+01  0.10500000000E+00 0. -1.
         13    1    4    4    0    0  0.17730548292E+02  0.21611115766E+02 -0.62704539807E-01  0.27954026977E+02  0.10500000000E+00 0.  1.
    3000001    1    5    5    0    0 -0.14690517760E+01 -0.23398121939E+00  0.10541678865E+01  0.20794543189E+01  0.10000000000E+01 0.  1.
        -13    1    6    6    0    0 -0.17522981143E+02 -0.17609577898E+02  0.15044345086E+01  0.24888279371E+02  0.10500000000E+00 0. -1.
         13    1    6    6    0    0 -0.25005134757E+02 -0.25165374626E+02  0.19945334089E+01  0.35532267487E+02  0.10500000000E+00 0.  1.
</event>
<event>
11    0  0.3396091E-009  0.9118800E+02  0.7816531E-02  0.1126479E+00
         25   -1    0    0    0    0  0.00000000000E+00  0.00000000000E+00  0.99999998245E-14  0.12500000000E+03  0.12500000000E+03 0.  0.
    3000001    1    3    3    0    0 -0.44815027294E+02  0.99126855269E+01 -0.36125853550E+01  0.46051045359E+02  0.10000000000E+01 0.  1.
    1000022    2    1    0    0    0 -0.61007449605E+02  0.91458410387E+01 -0.83355742492E+00  0.62499999354E+02  0.99999892839E+01 0.  0.
    3000022    2    3    3    0    0 -0.16192422311E+02 -0.76684448829E+00  0.27790279301E+01  0.16448953995E+02  0.25000105764E+00 0.  0.
    1000022    2    1    0    0    0  0.61007449605E+02 -0.91458410387E+01  0.83355742492E+00  0.62500000646E+02  0.99999973592E+01 0.  0.
    3000022    2    5    5    0    0  0.22788140953E-01 -0.90656497932E+00 -0.10074624955E+00  0.94606066489E+00  0.25000322752E+00 0.  0.
        -13    1    4    4    0    0 -0.90735293873E+01 -0.37629307972E+00  0.15171255493E+01  0.92077807835E+01  0.10500000000E+00 0.  1.
         13    1    4    4    0    0 -0.71188929237E+01 -0.39055140858E+00  0.12619023808E+01  0.72411732116E+01  0.10500000000E+00 0. -1.
    3000001    1    5    5    0    0  0.60984661464E+02 -0.82392760593E+01  0.93430367447E+00  0.61553939981E+02  0.10000000000E+01 0.  1.
        -13    1    6    6    0    0  0.38176209958E-01 -0.22841531238E+00 -0.28285994819E-01  0.25584384972E+00  0.10500000000E+00 0. -1.
         13    1    6    6    0    0 -0.15388069005E-01 -0.67814966694E+00 -0.72460254727E-01  0.69021681518E+00  0.10500000000E+00 0.  1.
</event>
<event>
11    0  0.3396091E-009  0.9118800E+02  0.7816531E-02  0.1126479E+00
         25   -1    0    0    0    0  0.00000000000E+00  0.00000000000E+00  0.99999998245E-14  0.12500000000E+03  0.12500000000E+03 0.  0.
    3000001    1    3    3    0    0  0.26645779575E+02 -0.48939713656E+01 -0.31433720309E+02  0.41509363972E+02  0.10000000000E+01 0. -1.
    1000022    2    1    0    0    0  0.38185455489E+02 -0.68237264178E+00 -0.48452609267E+02  0.62499999107E+02  0.99999950144E+01 0.  0.
    3000022    2    3    3    0    0  0.11539675914E+02  0.42115987239E+01 -0.17018888958E+02  0.20990635135E+02  0.24999600974E+00 0.  0.
    1000022    2    1    0    0    0 -0.38185455489E+02  0.68237264178E+00  0.48452609267E+02  0.62500000893E+02  0.10000006175E+02 0.  0.
    3000022    2    5    5    0    0 -0.26858508823E+02  0.49674541833E+01  0.32808973057E+02  0.42691290726E+02  0.24998710838E+00 0.  0.
        -13    1    4    4    0    0  0.58787927434E+01  0.21772816456E+01 -0.87891145186E+01  0.10796310412E+02  0.10500000000E+00 0.  1.
         13    1    4    4    0    0  0.56608831703E+01  0.20343170783E+01 -0.82297744392E+01  0.10194324723E+02  0.10500000000E+00 0. -1.
    3000001    1    5    5    0    0 -0.11326946666E+02 -0.42850815415E+01  0.15643636210E+02  0.19808710167E+02  0.10000000000E+01 0. -1.
        -13    1    6    6    0    0 -0.11835562137E+02  0.21690227525E+01  0.14354764550E+02  0.18731136673E+02  0.10500000000E+00 0. -1.
         13    1    6    6    0    0 -0.15022946687E+02  0.27984314307E+01  0.18454208507E+02  0.23960154053E+02  0.10500000000E+00 0.  1.
</event>
<event>
11    0  0.3396091E-009  0.9118800E+02  0.7816531E-02  0.1126479E+00
         25   -1    0    0    0    0  0.00000000000E+00  0.00000000000E+00  0.99999998245E-14  0.12500000000E+03  0.12500000000E+03 0.  0.
    3000001    1    3    3    0    0  0.21180520340E+02 -0.13491267974E+02 -0.97661575585E+01  0.26963059672E+02  0.10000000000E+01 0.  1.
    1000022    2    1    0    0    0  0.46098477178E+02 -0.25628444691E+02 -0.32005672377E+02  0.62500001064E+02  0.10000014665E+02 0.  0.
    3000022    2    3    3    0    0  0.24917956838E+02 -0.12137176717E+02 -0.22239514818E+02  0.35536941392E+02  0.25010498734E+00 0.  0.
    1000022    2    1    0    0    0 -0.46098477178E+02  0.25628444691E+02  0.32005672377E+02  0.62499998936E+02  0.10000001361E+02 0.  0.
    3000022    2    5    5    0    0 -0.86093411606E+01  0.50549763788E+01  0.18317777916E+01  0.10153396064E+02  0.25000069148E+00 0.  0.
        -13    1    4    4    0    0  0.16984519932E+02 -0.82346197921E+01 -0.15192664644E+02  0.24230372767E+02  0.10500000000E+00 0. -1.
         13    1    4    4    0    0  0.79334369062E+01 -0.39025569246E+01 -0.70468501742E+01  0.11306568625E+02  0.10500000000E+00 0.  1.
    3000001    1    5    5    0    0 -0.37489136018E+02  0.20573468312E+02  0.30173894585E+02  0.52346602872E+02  0.10000000000E+01 0.  1.
        -13    1    6    6    0    0 -0.53021290700E+01  0.31757533075E+01  0.11625553131E+01  0.62897171320E+01  0.10500000000E+00 0. -1.
         13    1    6    6    0    0 -0.33072120906E+01  0.18792230714E+01  0.66922247851E+00  0.38636789320E+01  0.10500000000E+00 0.  1.
</event>
<event>
11    0  0.3396091E-009  0.9118800E+02  0.7816531E-02  0.1126479E+00
         25   -1    0    0    0    0  0.00000000000E+00  0.00000000000E+00  0.99999998245E-14  0.12500000000E+03  0.12500000000E+03 0.  0.
    3000001    1    3    3    0    0  0.13685116544E+02  0.12175067137E+02 -0.32619713121E+01  0.18632099491E+02  0.10000000000E+01 0.  1.
    1000022    2    1    0    0    0  0.51870069311E+02  0.28554670700E+02 -0.17331375998E+02  0.62499999827E+02  0.10000003761E+02 0.  0.
    3000022    2    3    3    0    0  0.38184952768E+02  0.16379603563E+02 -0.14069404686E+02  0.43867900336E+02  0.25000181112E+00 0.  0.
    1000022    2    1    0    0    0 -0.51870069311E+02 -0.28554670700E+02  0.17331375998E+02  0.62500000173E+02  0.10000005927E+02 0.  0.
    3000022    2    5    5    0    0 -0.41978368219E+02 -0.25659651949E+02  0.17274746726E+02  0.52144803848E+02  0.25011471090E+00 0.  0.
        -13    1    4    4    0    0  0.23161809247E+02  0.99436383264E+01 -0.86004671499E+01  0.26633144970E+02  0.10500000000E+00 0. -1.
         13    1    4    4    0    0  0.15023143521E+02  0.64359652368E+01 -0.54689375356E+01  0.17234755366E+02  0.10500000000E+00 0.  1.
    3000001    1    5    5    0    0 -0.98917010924E+01 -0.28950187508E+01  0.56629271439E-01  0.10355196326E+02  0.10000000000E+01 0.  1.
        -13    1    6    6    0    0 -0.13738253980E+02 -0.83483622326E+01  0.56775601824E+01  0.17049354504E+02  0.10500000000E+00 0.  1.
         13    1    6    6    0    0 -0.28240114239E+02 -0.17311289716E+02  0.11597186544E+02  0.35095449343E+02  0.10500000000E+00 0. -1.
</event>
<event>
11    0  0.3396091E-009  0.9118800E+02  0.7816531E-02  0.1126479E+00
         25   -1    0    0    0    0  0.00000000000E+00  0.00000000000E+00  0.99999998245E-14  0.12500000000E+03  0.12500000000E+03 0.  0.
    3000001    1    3    3    0    0 -0.79356575265E+00  0.87754964236E+00  0.25614459438E+01  0.29934671038E+01  0.10000000000E+01 0. -1.
    1000022    2    1    0    0    0  0.21716751151E+02  0.28141608519E+02  0.50425019702E+02  0.62500000041E+02  0.99999991291E+01 0.  0.
    3000022    2    3    3    0    0  0.22510316904E+02  0.27264058877E+02  0.47863573758E+02  0.59506532938E+02  0.24999152088E+00 0.  0.
    1000022    2    1    0    0    0 -0.21716751151E+02 -0.28141608519E+02 -0.50425019702E+02  0.62499999959E+02  0.99999986116E+01 0.  0.
    3000022    2    5    5    0    0 -0.61919591787E+01 -0.15255446815E+02 -0.26360778678E+02  0.31080897086E+02  0.24999028829E+00 0.  0.
        -13    1    4    4    0    0  0.78277015091E+01  0.95581972933E+01  0.16679067937E+02  0.20756550259E+02  0.10500000000E+00 0.  1.
         13    1    4    4    0    0  0.14682615395E+02  0.17705861584E+02  0.31184505821E+02  0.38749982678E+02  0.10500000000E+00 0. -1.
    3000001    1    5    5    0    0 -0.15524791973E+02 -0.12886161704E+02 -0.24064241024E+02  0.31419102873E+02  0.10000000000E+01 0. -1.
        -13    1    6    6    0    0 -0.15012459853E+01 -0.37620687658E+01 -0.64877835863E+01  0.76491347073E+01  0.10500000000E+00 0. -1.
         13    1    6    6    0    0 -0.46907131934E+01 -0.11493378050E+02 -0.19872995092E+02  0.23431762379E+02  0.10500000000E+00 0.  1.
</event>
<event>
11    0  0.3396091E-009  0.9118800E+02  0.7816531E-02  0.1126479E+00
         25   -1    0    0    0    0  0.00000000000E+00  0.00000000000E+00  0.99999998245E-14  0.12500000000E+03  0.12500000000E+03 0.  0.
    3000001    1    3    3    0    0  0.25307777116E+02 -0.46120097161E+02 -0.12349916382E+02  0.54046899813E+02  0.10000000000E+01 0.  1.
    1000022    2    1    0    0    0  0.31746176842E+02 -0.51565075582E+02 -0.11809881302E+02  0.62500000611E+02  0.10000000806E+02 0.  0.
    3000022    2    3    3    0    0  0.64383997261E+01 -0.54449784212E+01  0.54003508021E+00  0.84531007985E+01  0.24998836241E+00 0.  0.
    1000022    2    1    0    0    0 -0.31746176842E+02  0.51565075582E+02  0.11809881302E+02  0.62499999389E+02  0.99999931674E+01 0.  0.
    3000022    2    5    5    0    0 -0.52147785267E+01  0.12703640763E+02  0.63096162934E+01  0.15114567788E+02  0.24999589512E+00 0.  0.
        -13    1    4    4    0    0  0.14813996729E+01 -0.12613418740E+01  0.13016533181E+00  0.19528175357E+01  0.10500000000E+00 0.  1.
         13    1    4    4    0    0  0.49570000532E+01 -0.41836365472E+01  0.40986974841E+00  0.65002832628E+01  0.10500000000E+00 0. -1.
    3000001    1    5    5    0    0 -0.26531398315E+02  0.38861434820E+02  0.55002650084E+01  0.47385431601E+02  0.10000000000E+01 0.  1.
        -13    1    6    6    0    0 -0.35623019302E+01  0.85739298182E+01  0.42291046093E+01  0.10202873045E+02  0.10500000000E+00 0.  1.
         13    1    6    6    0    0 -0.16524765965E+01  0.41297109444E+01  0.20805116841E+01  0.49116947435E+01  0.10500000000E+00 0. -1.
</event>
<event>
11    0  0.3396091E-009  0.9118800E+02  0.7816531E-02  0.1126479E+00
         25   -1    0    0    0    0  0.00000000000E+00  0.00000000000E+00  0.99999998245E-14  0.12500000000E+03  0.12500000000E+03 0.  0.
    3000001    1    3    3    0    0  0.19464422087E+02  0.62301312249E+01 -0.10013804455E+01  0.20486117862E+02  0.10000000000E+01 0.  1.
    1000022    2    1    0    0    0  0.58936451946E+02  0.10935480559E+02 -0.14599995876E+02  0.62500000070E+02  0.10000001304E+02 0.  0.
    3000022    2    3    3    0    0  0.39472029860E+02  0.47053493341E+01 -0.13598615430E+02  0.42013882208E+02  0.25000596246E+00 0.  0.
    1000022    2    1    0    0    0 -0.58936451946E+02 -0.10935480559E+02  0.14599995876E+02  0.62499999930E+02  0.10000000431E+02 0.  0.
    3000022    2    5    5    0    0 -0.12435609502E+02 -0.18170284681E+01 -0.97928777319E+00  0.12608231114E+02  0.25002229740E+00 0.  0.
        -13    1    4    4    0    0  0.14870365676E+02  0.18045565732E+01 -0.50699910699E+01  0.15814551344E+02  0.10500000000E+00 0. -1.
         13    1    4    4    0    0  0.24601664184E+02  0.29007927609E+01 -0.85286243603E+01  0.26199330865E+02  0.10500000000E+00 0.  1.
    3000001    1    5    5    0    0 -0.46500842444E+02 -0.91184520908E+01  0.15579283649E+02  0.49891768816E+02  0.10000000000E+01 0.  1.
        -13    1    6    6    0    0 -0.71777870026E+01 -0.99940959201E+00 -0.52152274551E+00  0.72665298982E+01  0.10500000000E+00 0. -1.
         13    1    6    6    0    0 -0.52578224993E+01 -0.81761887614E+00 -0.45776502768E+00  0.53417012161E+01  0.10500000000E+00 0.  1.
</event>
<event>
11    0  0.3396091E-009  0.9118800E+02  0.7816531E-02  0.1126479E+00
         25   -1    0    0    0    0  0.00000000000E+00  0.00000000000E+00  0.99999998245E-14  0.12500000000E+03  0.12500000000E+03 0.  0.
    3000001    1    3    3    0    0 -0.79921307889E+01 -0.91424081908E+01  0.19689973311E+02  0.23154974219E+02  0.10000000000E+01 0. -1.
    1000022    2    1    0    0    0 -0.10039722906E+02 -0.20740919741E+02  0.57229958682E+02  0.62500000623E+02  0.10000005972E+02 0.  0.
    3000022    2    3    3    0    0 -0.20475921176E+01 -0.11598511550E+02  0.37539985371E+02  0.39345026404E+02  0.24999497428E+00 0.  0.
    1000022    2    1    0    0    0  0.10039722906E+02  0.20740919741E+02 -0.57229958682E+02  0.62499999377E+02  0.99999981821E+01 0.  0.
    3000022    2    5    5    0    0  0.11559222897E+02  0.19301605756E+02 -0.54196869200E+02  0.58681604849E+02  0.24999557637E+00 0.  0.
        -13    1    4    4    0    0 -0.10478945100E+01 -0.58886769580E+01  0.19288641091E+02  0.20194982034E+02  0.10500000000E+00 0.  1.
         13    1    4    4    0    0 -0.99969760763E+00 -0.57098345921E+01  0.18251344280E+02  0.19150044370E+02  0.10500000000E+00 0. -1.
    3000001    1    5    5    0    0 -0.15194999904E+01  0.14393139850E+01 -0.30330894814E+01  0.38183945279E+01  0.10000000000E+01 0. -1.
        -13    1    6    6    0    0  0.78973355375E+01  0.13088093732E+02 -0.36815641002E+02  0.39863122726E+02  0.10500000000E+00 0.  1.
         13    1    6    6    0    0  0.36618873593E+01  0.62135120237E+01 -0.17381228199E+02  0.18818482123E+02  0.10500000000E+00 0. -1.
</event>
<event>
11    0  0.3396091E-009  0.9118800E+02  0.7816531E-02  0.1126479E+00
         25   -1    0    0    0    0  0.00000000000E+00  0.00000000000E+00  0.99999998245E-14  0.12500000000E+03  0.12500000000E+03 0.  0.
    3000001    1    3    3    0    0  0.13065636297E+02 -0.66629830724E+01  0.13075138537E+01  0.14758583528E+02  0.10000000000E+01 0. -1.
    1000022    2    1    0    0    0  0.51924416722E+02 -0.31289997001E+02 -0.11447318810E+02  0.62499999775E+02  0.99999949831E+01 0.  0.
    3000022    2    3    3    0    0  0.38858780424E+02 -0.24627013929E+02 -0.12754832663E+02  0.47741416247E+02  0.24987562330E+00 0.  0.
    1000022    2    1    0    0    0 -0.51924416722E+02  0.31289997001E+02  0.11447318810E+02  0.62500000225E+02  0.99999977983E+01 0.  0.
    3000022    2    5    5    0    0 -0.26971538442E+02  0.13290352891E+02  0.13384132661E+01  0.30099023483E+02  0.24999734402E+00 0.  0.
        -13    1    4    4    0    0  0.13201542115E+02 -0.84084185342E+01 -0.42961904231E+01  0.16231158111E+02  0.10500000000E+00 0.  1.
         13    1    4    4    0    0  0.25657238309E+02 -0.16218595395E+02 -0.84586422403E+01  0.31510258136E+02  0.10500000000E+00 0. -1.
    3000001    1    5    5    0    0 -0.24952878280E+02  0.17999644110E+02  0.10108905544E+02  0.32400976742E+02  0.10000000000E+01 0. -1.
        -13    1    6    6    0    0 -0.13724552450E+02  0.68227225966E+01  0.64086168843E+00  0.15340619684E+02  0.10500000000E+00 0. -1.
         13    1    6    6    0    0 -0.13246985992E+02  0.64676302948E+01  0.69755157764E+00  0.14758403800E+02  0.10500000000E+00 0.  1.
</event>
<event>
11    0  0.3396091E-009  0.9118800E+02  0.7816531E-02  0.1126479E+00
         25   -1    0    0    0    0  0.00000000000E+00  0.00000000000E+00  0.99999998245E-14  0.12500000000E+03  0.12500000000E+03 0.  0.
    3000001    1    3    3    0    0  0.20785821980E+01 -0.87162579640E+01  0.15737931411E+01  0.91526215753E+01  0.10000000000E+01 0.  1.
    1000022    2    1    0    0    0  0.76764705802E+01 -0.60104375981E+02 -0.11609728005E+02  0.62499999668E+02  0.99999980751E+01 0.  0.
    3000022    2    3    3    0    0  0.55978883822E+01 -0.51388118017E+02 -0.13183521146E+02  0.53347378092E+02  0.24998377033E+00 0.  0.
    1000022    2    1    0    0    0 -0.76764705802E+01  0.60104375981E+02  0.11609728005E+02  0.62500000332E+02  0.10000002230E+02 0.  0.
    3000022    2    5    5    0    0  0.20453433933E+01  0.47245796403E+01  0.51044110632E+00  0.51795879185E+01  0.24999701645E+00 0.  0.
        -13    1    4    4    0    0  0.16967667725E+01 -0.15741601658E+02 -0.40834023361E+01  0.16351215242E+02  0.10500000000E+00 0.  1.
         13    1    4    4    0    0  0.39011216097E+01 -0.35646516358E+02 -0.91001188096E+01  0.36996162850E+02  0.10500000000E+00 0. -1.
    3000001    1    5    5    0    0 -0.97218139735E+01  0.55379796340E+02  0.11099286898E+02  0.57320412414E+02  0.10000000000E+01 0. -1.
        -13    1    6    6    0    0  0.93689837679E+00  0.21528339290E+01  0.29993870620E+00  0.23692743027E+01  0.10500000000E+00 0. -1.
         13    1    6    6    0    0  0.11084450165E+01  0.25717457113E+01  0.21050240012E+00  0.28103136157E+01  0.10500000000E+00 0.  1.
</event>
<event>
11    0  0.3396091E-009  0.9118800E+02  0.7816531E-02  0.1126479E+00
         25   -1    0    0    0    0  0.00000000000E+00  0.00000000000E+00  0.99999998245E-14  0.12500000000E+03  0.12500000000E+03 0.  0.
    3000001    1    3    3    0    0 -0.52049204893E+01  0.33688078851E+01  0.17258023749E+02  0.18365169413E+02  0.10000000000E+01 0.  1.
    1000022    2    1    0    0    0 -0.14258495858E+02  0.25614312176E+02  0.54284919874E+02  0.62499999421E+02  0.99999854742E+01 0.  0.
    3000022    2    3    3    0    0 -0.90535753689E+01  0.22245504290E+02  0.37026896126E+02  0.44134830008E+02  0.24999001741E+00 0.  0.
    1000022    2    1    0    0    0  0.14258495858E+02 -0.25614312176E+02 -0.54284919874E+02  0.62500000579E+02  0.99999927138E+01 0.  0.
    3000022    2    5    5    0    0  0.15511277512E+02 -0.23968871543E+02 -0.48562166410E+02  0.56333409628E+02  0.25000154423E+00 0.  0.
        -13    1    4    4    0    0 -0.37886618867E+01  0.94661893858E+01  0.15669436324E+02  0.18695051754E+02  0.10500000000E+00 0. -1.
         13    1    4    4    0    0 -0.52649134822E+01  0.12779314905E+02  0.21357459802E+02  0.25439778254E+02  0.10500000000E+00 0.  1.
    3000001    1    5    5    0    0 -0.12527816540E+01 -0.16454406328E+01 -0.57227534641E+01  0.61665909512E+01  0.10000000000E+01 0. -1.
        -13    1    6    6    0    0  0.10181353834E+02 -0.15807922076E+02 -0.31909325754E+02  0.37037365745E+02  0.10500000000E+00 0.  1.
         13    1    6    6    0    0  0.53299236786E+01 -0.81609494665E+01 -0.16652840656E+02  0.19296043883E+02  0.10500000000E+00 0. -1.
</event>
<event>
11    0  0.3396091E-009  0.9118800E+02  0.7816531E-02  0.1126479E+00
         25   -1    0    0    0    0  0.00000000000E+00  0.00000000000E+00  0.99999998245E-14  0.12500000000E+03  0.12500000000E+03 0.  0.
    3000001    1    3    3    0    0  0.52279460929E+02  0.97063842594E+01 -0.25359100587E+02  0.58918926611E+02  0.10000000000E+01 0. -1.
    1000022    2    1    0    0    0  0.55623938434E+02  0.10610184837E+02 -0.24487780877E+02  0.62499999377E+02  0.99999980371E+01 0.  0.
    3000022    2    3    3    0    0  0.33444775050E+01  0.90380057718E+00  0.87131970981E+00  0.35810727666E+01  0.24999771610E+00 0.  0.
    1000022    2    1    0    0    0 -0.55623938434E+02 -0.10610184837E+02  0.24487780877E+02  0.62500000623E+02  0.10000005819E+02 0.  0.
    3000022    2    5    5    0    0 -0.31411455210E+02 -0.10316369299E+01  0.12649961546E+02  0.33879607711E+02  0.24999680939E+00 0.  0.
        -13    1    4    4    0    0  0.17006723958E+01  0.47197616239E+00  0.37505460191E+00  0.18074122524E+01  0.10500000000E+00 0. -1.
         13    1    4    4    0    0  0.16438051092E+01  0.43182441479E+00  0.49626510791E+00  0.17736605142E+01  0.10500000000E+00 0.  1.
    3000001    1    5    5    0    0 -0.24212483224E+02 -0.95785479067E+01  0.11837819331E+02  0.28620392911E+02  0.10000000000E+01 0. -1.
        -13    1    6    6    0    0 -0.12915607621E+02 -0.38204527974E+00  0.52529225688E+01  0.13948587718E+02  0.10500000000E+00 0.  1.
         13    1    6    6    0    0 -0.18495847589E+02 -0.64959165012E+00  0.73970389772E+01  0.19931019993E+02  0.10500000000E+00 0. -1.
</event>
<event>
11    0  0.3396091E-009  0.9118800E+02  0.7816531E-02  0.1126479E+00
         25   -1    0    0    0    0  0.00000000000E+00  0.00000000000E+00  0.99999998245E-14  0.12500000000E+03  0.12500000000E+03 0.  0.
    3000001    1    3    3    0    0  0.31992663228E+02 -0.16776754246E+02  0.18980946755E+02  0.40819925565E+02  0.10000000000E+01 0.  1.
    1000022    2    1    0    0    0  0.51701283895E+02 -0.25138206874E+02  0.22389683527E+02  0.62499998824E+02  0.99999861693E+01 0.  0.
    3000022    2    3    3    0    0  0.19708620666E+02 -0.83614526289E+01  0.34087367721E+01  0.21680073259E+02  0.24994298663E+00 0.  0.
    1000022    2    1    0    0    0 -0.51701283895E+02  0.25138206874E+02 -0.22389683527E+02  0.62500001176E+02  0.10000000866E+02 0.  0.
    3000022    2    5    5    0    0 -0.24225291213E+02  0.16491202885E+02 -0.14018773220E+02  0.32487120754E+02  0.25001069833E+00 0.  0.
        -13    1    4    4    0    0  0.11980898451E+02 -0.51459382164E+01  0.20983785477E+01  0.13207453401E+02  0.10500000000E+00 0.  1.
         13    1    4    4    0    0  0.77277222155E+01 -0.32155144124E+01  0.13103582244E+01  0.84726198577E+01  0.10500000000E+00 0. -1.
    3000001    1    5    5    0    0 -0.27475992682E+02  0.86470039889E+01 -0.83709103068E+01  0.30012880421E+02  0.10000000000E+01 0.  1.
        -13    1    6    6    0    0 -0.78371835654E+01  0.52744983702E+01 -0.45070497735E+01  0.10467392319E+02  0.10500000000E+00 0.  1.
         13    1    6    6    0    0 -0.16388107648E+02  0.11216704515E+02 -0.95117234463E+01  0.22019728436E+02  0.10500000000E+00 0. -1.
</event>
<event>
11    0  0.3396091E-009  0.9118800E+02  0.7816531E-02  0.1126479E+00
         25   -1    0    0    0    0  0.00000000000E+00  0.00000000000E+00  0.99999998245E-14  0.12500000000E+03  0.12500000000E+03 0.  0.
    3000001    1    3    3    0    0  0.11940825698E+01  0.85457153170E+01  0.10700088649E+01  0.87521427338E+01  0.10000000000E+01 0. -1.
    1000022    2    1    0    0    0  0.23754851387E+02  0.56043569302E+02 -0.10053612331E+02  0.62499998005E+02  0.10000000257E+02 0.  0.
    3000022    2    3    3    0    0  0.22560768817E+02  0.47497853985E+02 -0.11123621196E+02  0.53747855271E+02  0.25014971581E+00 0.  0.
    1000022    2    1    0    0    0 -0.23754851387E+02 -0.56043569302E+02  0.10053612331E+02  0.62500001995E+02  0.10000025198E+02 0.  0.
    3000022    2    5    5    0    0 -0.24059908544E+02 -0.49314950484E+02  0.91929739254E+01  0.55636470140E+02  0.24999920534E+00 0.  0.
        -13    1    4    4    0    0  0.81757514367E+01  0.17093398723E+02 -0.39797612729E+01  0.19361733297E+02  0.10500000000E+00 0.  1.
         13    1    4    4    0    0  0.14385017380E+02  0.30404455262E+02 -0.71438599233E+01  0.34386121974E+02  0.10500000000E+00 0. -1.
    3000001    1    5    5    0    0  0.30505715742E+00 -0.67286188179E+01  0.86063840586E+00  0.68635318555E+01  0.10000000000E+01 0.  1.
        -13    1    6    6    0    0 -0.17527726198E+02 -0.35954562810E+02  0.66667061559E+01  0.40551297988E+02  0.10500000000E+00 0. -1.
         13    1    6    6    0    0 -0.65321823461E+01 -0.13360387674E+02  0.25262677696E+01  0.15085172152E+02  0.10500000000E+00 0.  1.
</event>
<event>
11    0  0.3396091E-009  0.9118800E+02  0.7816531E-02  0.1126479E+00
         25   -1    0    0    0    0  0.00000000000E+00  0.00000000000E+00  0.99999998245E-14  0.12500000000E+03  0.12500000000E+03 0.  0.
    3000001    1    3    3    0    0 -0.29218262047E+02 -0.10105882214E+02  0.77134434369E+01  0.31879976505E+02  0.10000000000E+01 0.  1.
    1000022    2    1    0    0    0 -0.53784474854E+02 -0.28021796376E+02  0.11325156099E+02  0.62499998662E+02  0.99999932277E+01 0.  0.
    3000022    2    3    3    0    0 -0.24566212808E+02 -0.17915914162E+02  0.36117126620E+01  0.30620022156E+02  0.24999300638E+00 0.  0.
    1000022    2    1    0    0    0  0.53784474854E+02  0.28021796376E+02 -0.11325156099E+02  0.62500001338E+02  0.10000009958E+02 0.  0.
    3000022    2    5    5    0    0  0.10642255055E+02  0.10300847652E+02 -0.29240659484E+01  0.15098931007E+02  0.25000174844E+00 0.  0.
        -13    1    4    4    0    0 -0.16723463112E+02 -0.12255867495E+02  0.24774829948E+01  0.20881318289E+02  0.10500000000E+00 0.  1.
         13    1    4    4    0    0 -0.78427496960E+01 -0.56600466668E+01  0.11342296671E+01  0.97387038666E+01  0.10500000000E+00 0. -1.
    3000001    1    5    5    0    0  0.43142219799E+02  0.17720948724E+02 -0.84010901504E+01  0.47401070332E+02  0.10000000000E+01 0.  1.
        -13    1    6    6    0    0  0.47354112542E+01  0.45719348436E+01 -0.13666960168E+01  0.67235103155E+01  0.10500000000E+00 0. -1.
         13    1    6    6    0    0  0.59068438009E+01  0.57289128080E+01 -0.15573699316E+01  0.83754206912E+01  0.10500000000E+00 0.  1.
</event>
<event>
11    0  0.3396091E-009  0.9118800E+02  0.7816531E-02  0.1126479E+00
         25   -1    0    0    0    0  0.00000000000E+00  0.00000000000E+00  0.99999998245E-14  0.12500000000E+03  0.12500000000E+03 0.  0.
    3000001    1    3    3    0    0  0.28391058948E+02  0.24230079269E+02  0.32640534343E+02  0.49593885226E+02  0.10000000000E+01 0. -1.
    1000022    2    1    0    0    0  0.35841587554E+02  0.25851268970E+02  0.43050465797E+02  0.62500000240E+02  0.99999959459E+01 0.  0.
    3000022    2    3    3    0    0  0.74505286064E+01  0.16211897010E+01  0.10409931454E+02  0.12906115015E+02  0.24999866777E+00 0.  0.
    1000022    2    1    0    0    0 -0.35841587554E+02 -0.25851268970E+02 -0.43050465797E+02  0.62499999760E+02  0.99999929431E+01 0.  0.
    3000022    2    5    5    0    0 -0.22221538018E+02 -0.21062157044E+02 -0.32024469852E+02  0.44306211562E+02  0.25000487604E+00 0.  0.
        -13    1    4    4    0    0  0.43165564679E+01  0.10053463571E+01  0.60422798407E+01  0.74942345648E+01  0.10500000000E+00 0. -1.
         13    1    4    4    0    0  0.31339721384E+01  0.61584334385E+00  0.43676516132E+01  0.54118804498E+01  0.10500000000E+00 0.  1.
    3000001    1    5    5    0    0 -0.13620049536E+02 -0.47891119265E+01 -0.11025995945E+02  0.18193788198E+02  0.10000000000E+01 0.  1.
        -13    1    6    6    0    0 -0.70443815545E+01 -0.66162957811E+01 -0.10142583020E+02  0.14010056983E+02  0.10500000000E+00 0.  1.
         13    1    6    6    0    0 -0.15177156464E+02 -0.14445861263E+02 -0.21881886832E+02  0.30296154579E+02  0.10500000000E+00 0. -1.
</event>
<event>
11    0  0.3396091E-009  0.9118800E+02  0.7816531E-02  0.1126479E+00
         25   -1    0    0    0    0  0.00000000000E+00  0.00000000000E+00  0.99999998245E-14  0.12500000000E+03  0.12500000000E+03 0.  0.
    3000001    1    3    3    0    0  0.33069990139E+02 -0.12320336100E+02 -0.12962626857E+02  0.37609102946E+02  0.10000000000E+01 0. -1.
    1000022    2    1    0    0    0  0.50202335375E+02 -0.26369214394E+02 -0.24303086516E+02  0.62499999986E+02  0.10000001959E+02 0.  0.
    3000022    2    3    3    0    0  0.17132345236E+02 -0.14048878294E+02 -0.11340459659E+02  0.24890897040E+02  0.24999109046E+00 0.  0.
    1000022    2    1    0    0    0 -0.50202335375E+02  0.26369214394E+02  0.24303086516E+02  0.62500000014E+02  0.10000002134E+02 0.  0.
    3000022    2    5    5    0    0 -0.31305349382E+02  0.19148022048E+02  0.19998421705E+02  0.41793193460E+02  0.25000125539E+00 0.  0.
        -13    1    4    4    0    0  0.10303110225E+02 -0.84797952350E+01 -0.68950981684E+01  0.15020466414E+02  0.10500000000E+00 0. -1.
         13    1    4    4    0    0  0.68292350112E+01 -0.55690830593E+01 -0.44453614906E+01  0.98704306259E+01  0.10500000000E+00 0.  1.
    3000001    1    5    5    0    0 -0.18896985993E+02  0.72211923464E+01  0.43046648108E+01  0.20706806554E+02  0.10000000000E+01 0.  1.
        -13    1    6    6    0    0 -0.78395541031E+01  0.48166832101E+01  0.49922939474E+01  0.10468670858E+02  0.10500000000E+00 0.  1.
         13    1    6    6    0    0 -0.23465795279E+02  0.14331338838E+02  0.15006127758E+02  0.31324522602E+02  0.10500000000E+00 0. -1.
</event>
<event>
11    0  0.3396091E-009  0.9118800E+02  0.7816531E-02  0.1126479E+00
         25   -1    0    0    0    0  0.00000000000E+00  0.00000000000E+00  0.99999998245E-14  0.12500000000E+03  0.12500000000E+03 0.  0.
    3000001    1    3    3    0    0  0.86741274622E+01  0.51173715630E+02 -0.99115638468E+01  0.52851005255E+02  0.10000000000E+01 0. -1.
    1000022    2    1    0    0    0  0.87001320784E+01  0.60580838948E+02 -0.77794417270E+01  0.62499999914E+02  0.99999964888E+01 0.  0.
    3000022    2    3    3    0    0  0.26004616216E-01  0.94071233185E+01  0.21321221198E+01  0.96489946587E+01  0.25001563759E+00 0.  0.
    1000022    2    1    0    0    0 -0.87001320784E+01 -0.60580838948E+02  0.77794417270E+01  0.62500000086E+02  0.99999975675E+01 0.  0.
    3000022    2    5    5    0    0 -0.38787172224E+01 -0.14288390455E+02 -0.19652759860E+01  0.14937448094E+02  0.24999354717E+00 0.  0.
        -13    1    4    4    0    0  0.36386675167E-01  0.54186377426E+01  0.12910942548E+01  0.55714368300E+01  0.10500000000E+00 0. -1.
         13    1    4    4    0    0 -0.10382058951E-01  0.39884855760E+01  0.84102786501E+00  0.40775578287E+01  0.10500000000E+00 0.  1.
    3000001    1    5    5    0    0 -0.48214148560E+01 -0.46292448494E+02  0.97447177130E+01  0.47562551993E+02  0.10000000000E+01 0. -1.
        -13    1    6    6    0    0 -0.17861872653E+01 -0.66466892696E+01 -0.84809650972E+00  0.69353612655E+01  0.10500000000E+00 0. -1.
         13    1    6    6    0    0 -0.20925299571E+01 -0.76417011850E+01 -0.11171794763E+01  0.80020868281E+01  0.10500000000E+00 0.  1.
</event>
<event>
11    0  0.3396091E-009  0.9118800E+02  0.7816531E-02  0.1126479E+00
         25   -1    0    0    0    0  0.00000000000E+00  0.00000000000E+00  0.99999998245E-14  0.12500000000E+03  0.12500000000E+03 0.  0.
    3000001    1    3    3    0    0 -0.42436090613E+02  0.62722406297E+01 -0.16335858835E+02  0.45913212400E+02  0.10000000000E+01 0. -1.
    1000022    2    1    0    0    0 -0.57249468217E+02  0.13334423343E+02 -0.18733441278E+02  0.62499998539E+02  0.99999769090E+01 0.  0.
    3000022    2    3    3    0    0 -0.14813377604E+02  0.70621827130E+01 -0.23975824430E+01  0.16586786138E+02  0.24998422735E+00 0.  0.
    1000022    2    1    0    0    0  0.57249468217E+02 -0.13334423343E+02  0.18733441278E+02  0.62500001461E+02  0.99999951763E+01 0.  0.
    3000022    2    5    5    0    0  0.10108656266E+02 -0.66999944616E+00  0.69118093349E+01  0.12266598572E+02  0.25000296632E+00 0.  0.
        -13    1    4    4    0    0 -0.48460539598E+01  0.23118469112E+01 -0.73173247925E+00  0.54199015252E+01  0.10500000000E+00 0.  1.
         13    1    4    4    0    0 -0.99673236441E+01  0.47503358019E+01 -0.16658499638E+01  0.11166884613E+02  0.10500000000E+00 0. -1.
    3000001    1    5    5    0    0  0.47140811951E+02 -0.12664423897E+02  0.11821631943E+02  0.50233402889E+02  0.10000000000E+01 0. -1.
        -13    1    6    6    0    0  0.77913332953E+01 -0.51306032805E+00  0.53300142566E+01  0.94545323731E+01  0.10500000000E+00 0.  1.
         13    1    6    6    0    0  0.23173229708E+01 -0.15693911811E+00  0.15817950784E+01  0.28120661990E+01  0.10500000000E+00 0. -1.
</event>
<event>
11    0  0.3396091E-009  0.9118800E+02  0.7816531E-02  0.1126479E+00
         25   -1    0    0    0    0  0.00000000000E+00  0.00000000000E+00  0.99999998245E-14  0.12500000000E+03  0.12500000000E+03 0.  0.
    3000001    1    3    3    0    0  0.82693021708E+01  0.10517192962E+02  0.57395372066E+00  0.13428407540E+02  0.10000000000E+01 0. -1.
    1000022    2    1    0    0    0  0.47968339551E+02  0.37769997918E+02 -0.88721999267E+01  0.62500000891E+02  0.99999918965E+01 0.  0.
    3000022    2    3    3    0    0  0.39699037380E+02  0.27252804956E+02 -0.94461536473E+01  0.49071593351E+02  0.25001691958E+00 0.  0.
    1000022    2    1    0    0    0 -0.47968339551E+02 -0.37769997918E+02  0.88721999267E+01  0.62499999109E+02  0.99999807550E+01 0.  0.
    3000022    2    5    5    0    0 -0.24088880655E+02 -0.14596952086E+02  0.49331154949E+00  0.28171812721E+02  0.24998851513E+00 0.  0.
        -13    1    4    4    0    0  0.26460692472E+02  0.18109522455E+02 -0.63187944792E+01  0.32681206195E+02  0.10500000000E+00 0. -1.
         13    1    4    4    0    0  0.13238344907E+02  0.91432825009E+01 -0.31273591682E+01  0.16390387157E+02  0.10500000000E+00 0.  1.
    3000001    1    5    5    0    0 -0.23879458895E+02 -0.23173045832E+02  0.83788883772E+01  0.34328186388E+02  0.10000000000E+01 0.  1.
        -13    1    6    6    0    0 -0.17443573949E+02 -0.10566492953E+02  0.39528569008E+00  0.20398439185E+02  0.10500000000E+00 0.  1.
         13    1    6    6    0    0 -0.66453067068E+01 -0.40304591335E+01  0.98025859414E-01  0.77733735356E+01  0.10500000000E+00 0. -1.
</event>
<event>
11    0  0.3396091E-009  0.9118800E+02  0.7816531E-02  0.1126479E+00
         25   -1    0    0    0    0  0.00000000000E+00  0.00000000000E+00  0.99999998245E-14  0.12500000000E+03  0.12500000000E+03 0.  0.
    3000001    1    3    3    0    0 -0.21652164943E+01  0.10902631084E+01  0.41550167069E+01  0.49133491579E+01  0.10000000000E+01 0. -1.
    1000022    2    1    0    0    0 -0.32693079522E+02  0.39444419234E+02  0.34373688950E+02  0.62500000096E+02  0.99999931314E+01 0.  0.
    3000022    2    3    3    0    0 -0.30527863028E+02  0.38354156126E+02  0.30218672243E+02  0.57586650938E+02  0.25000196533E+00 0.  0.
    1000022    2    1    0    0    0  0.32693079522E+02 -0.39444419234E+02 -0.34373688950E+02  0.62499999904E+02  0.99999919323E+01 0.  0.
    3000022    2    5    5    0    0  0.15719609546E+02 -0.25071604976E+02 -0.16049740130E+02  0.33665236630E+02  0.24999751769E+00 0.  0.
        -13    1    4    4    0    0 -0.14430731782E+02  0.18065636276E+02  0.14317005688E+02  0.27195604621E+02  0.10500000000E+00 0.  1.
         13    1    4    4    0    0 -0.16097131246E+02  0.20288519849E+02  0.15901666554E+02  0.30391046317E+02  0.10500000000E+00 0. -1.
    3000001    1    5    5    0    0  0.16973469976E+02 -0.14372814258E+02 -0.18323948819E+02  0.28834763274E+02  0.10000000000E+01 0.  1.
        -13    1    6    6    0    0  0.45318457935E+01 -0.73090713992E+01 -0.46665438145E+01  0.97850808473E+01  0.10500000000E+00 0. -1.
         13    1    6    6    0    0  0.11187763752E+02 -0.17762533577E+02 -0.11383196316E+02  0.23880155783E+02  0.10500000000E+00 0.  1.
</event>
<event>
11    0  0.3396091E-009  0.9118800E+02  0.7816531E-02  0.1126479E+00
         25   -1    0    0    0    0  0.00000000000E+00  0.00000000000E+00  0.99999998245E-14  0.12500000000E+03  0.12500000000E+03 0.  0.
    3000001    1    3    3    0    0  0.76624078438E+01  0.13095943182E+02  0.56249490671E+01  0.16212842866E+02  0.10000000000E+01 0. -1.
    1000022    2    1    0    0    0  0.26155995818E+02  0.55522383862E+02  0.62752456515E+01  0.62500001461E+02  0.10000012387E+02 0.  0.
    3000022    2    3    3    0    0  0.18493587974E+02  0.42426440680E+02  0.65029658434E+00  0.46287158595E+02  0.25000050864E+00 0.  0.
    1000022    2    1    0    0    0 -0.26155995818E+02 -0.55522383862E+02 -0.62752456515E+01  0.62499998539E+02  0.99999941200E+01 0.  0.
    3000022    2    5    5    0    0 -0.18256217243E+01 -0.11852599780E+02 -0.31529051651E+01  0.12402432176E+02  0.24999337090E+00 0.  0.
        -13    1    4    4    0    0  0.10198197854E+02  0.23358970140E+02  0.42311120235E+00  0.25491857005E+02  0.10500000000E+00 0.  1.
         13    1    4    4    0    0  0.82953901205E+01  0.19067470540E+02  0.22718538199E+00  0.20795301590E+02  0.10500000000E+00 0. -1.
    3000001    1    5    5    0    0 -0.24330374094E+02 -0.43669784082E+02 -0.31223404863E+01  0.50097566362E+02  0.10000000000E+01 0.  1.
        -13    1    6    6    0    0 -0.63894218486E+00 -0.45494973206E+01 -0.12040768325E+01  0.47504735558E+01  0.10500000000E+00 0. -1.
         13    1    6    6    0    0 -0.11866795394E+01 -0.73031024592E+01 -0.19488283327E+01  0.76519586205E+01  0.10500000000E+00 0.  1.
</event>
<event>
11    0  0.3396091E-009  0.9118800E+02  0.7816531E-02  0.1126479E+00
         25   -1    0    0    0    0  0.00000000000E+00  0.00000000000E+00  0.99999998245E-14  0.12500000000E+03  0.12500000000E+03 0.  0.
    3000001    1    3    3    0    0  0.40772803660E+01  0.71962729550E+00  0.27269375741E+01  0.50574961355E+01  0.10000000000E+01 0. -1.
    1000022    2    1    0    0    0  0.36985810917E+02  0.37405066670E+02  0.32236015551E+02  0.62499998053E+02  0.99999918098E+01 0.  0.
    3000022    2    3    3    0    0  0.32908530551E+02  0.36685439375E+02  0.29509077977E+02  0.57442501917E+02  0.24999664863E+00 0.  0.
    1000022    2    1    0    0    0 -0.36985810917E+02 -0.37405066670E+02 -0.32236015551E+02  0.62500001947E+02  0.10000016153E+02 0.  0.
    3000022    2    5    5    0    0 -0.10438370218E+02 -0.17279991555E+02 -0.11200229248E+02  0.23088207248E+02  0.24999556267E+00 0.  0.
        -13    1    4    4    0    0  0.17013796358E+02  0.18947321359E+02  0.15170245866E+02  0.29641485081E+02  0.10500000000E+00 0.  1.
         13    1    4    4    0    0  0.15894734193E+02  0.17738118015E+02  0.14338832111E+02  0.27801016836E+02  0.10500000000E+00 0. -1.
    3000001    1    5    5    0    0 -0.26547440699E+02 -0.20125075116E+02 -0.21035786303E+02  0.39411794700E+02  0.10000000000E+01 0.  1.
        -13    1    6    6    0    0 -0.30860909859E+01 -0.50375249315E+01 -0.33047497774E+01  0.67700082053E+01  0.10500000000E+00 0.  1.
         13    1    6    6    0    0 -0.73522792325E+01 -0.12242466623E+02 -0.78954794702E+01  0.16318199043E+02  0.10500000000E+00 0. -1.
</event>
<event>
11    0  0.3396091E-009  0.9118800E+02  0.7816531E-02  0.1126479E+00
         25   -1    0    0    0    0  0.00000000000E+00  0.00000000000E+00  0.99999998245E-14  0.12500000000E+03  0.12500000000E+03 0.  0.
    3000001    1    3    3    0    0 -0.27279262550E+02  0.72625855094E+01  0.75972931665E+01  0.29251020102E+02  0.10000000000E+01 0.  1.
    1000022    2    1    0    0    0 -0.60469443767E+02  0.91523320414E+01  0.81198216550E+01  0.62500002174E+02  0.99999978382E+01 0.  0.
    3000022    2    3    3    0    0 -0.33190181216E+02  0.18897465320E+01  0.52252848842E+00  0.33248982071E+02  0.25000326666E+00 0.  0.
    1000022    2    1    0    0    0  0.60469443767E+02 -0.91523320414E+01 -0.81198216550E+01  0.62499997826E+02  0.99999706672E+01 0.  0.
    3000022    2    5    5    0    0  0.42400397110E+02 -0.73773384151E+01 -0.10104720822E+02  0.44208445838E+02  0.25000660240E+00 0.  0.
        -13    1    4    4    0    0 -0.14037473447E+02  0.86439622197E+00  0.22137043392E+00  0.14066196056E+02  0.10500000000E+00 0. -1.
         13    1    4    4    0    0 -0.19152707769E+02  0.10253503100E+01  0.30115805450E+00  0.19182786015E+02  0.10500000000E+00 0.  1.
    3000001    1    5    5    0    0  0.18069046656E+02 -0.17749936263E+01  0.19848991674E+01  0.18291551988E+02  0.10000000000E+01 0.  1.
        -13    1    6    6    0    0  0.11236382981E+02 -0.19772843281E+01 -0.26521675489E+01  0.11713708786E+02  0.10500000000E+00 0.  1.
         13    1    6    6    0    0  0.31164014130E+02 -0.54000540870E+01 -0.74525532735E+01  0.32494737052E+02  0.10500000000E+00 0. -1.
</event>
<event>
11    0  0.3396091E-009  0.9118800E+02  0.7816531E-02  0.1126479E+00
         25   -1    0    0    0    0  0.00000000000E+00  0.00000000000E+00  0.99999998245E-14  0.12500000000E+03  0.12500000000E+03 0.  0.
    3000001    1    3    3    0    0  0.24979419863E+01 -0.11293554208E+01  0.58680672319E+00  0.29764912168E+01  0.10000000000E+01 0. -1.
    1000022    2    1    0    0    0  0.27949499861E+02 -0.54545285147E+02  0.70630984208E+01  0.62500000885E+02  0.10000003857E+02 0.  0.
    3000022    2    3    3    0    0  0.25451557875E+02 -0.53415929726E+02  0.64762916976E+01  0.59523509668E+02  0.25000473436E+00 0.  0.
    1000022    2    1    0    0    0 -0.27949499861E+02  0.54545285147E+02 -0.70630984208E+01  0.62499999115E+02  0.99999927920E+01 0.  0.
    3000022    2    5    5    0    0 -0.28242712276E+02  0.53799396593E+02 -0.65315270179E+01  0.61112594556E+02  0.24999523528E+00 0.  0.
        -13    1    4    4    0    0  0.10829322918E+02 -0.22778081657E+02  0.26986002457E+01  0.25365502304E+02  0.10500000000E+00 0. -1.
         13    1    4    4    0    0  0.14622234957E+02 -0.30637848069E+02  0.37776914519E+01  0.34158007365E+02  0.10500000000E+00 0.  1.
    3000001    1    5    5    0    0  0.29321241520E+00  0.74588855343E+00 -0.53157140292E+00  0.13874045592E+01  0.10000000000E+01 0. -1.
        -13    1    6    6    0    0 -0.13714477492E+02  0.26264035189E+02 -0.32048400999E+01  0.29802155331E+02  0.10500000000E+00 0.  1.
         13    1    6    6    0    0 -0.14528234784E+02  0.27535361404E+02 -0.33266869180E+01  0.31310439225E+02  0.10500000000E+00 0. -1.
</event>
<event>
11    0  0.3396091E-009  0.9118800E+02  0.7816531E-02  0.1126479E+00
         25   -1    0    0    0    0  0.00000000000E+00  0.00000000000E+00  0.99999998245E-14  0.12500000000E+03  0.12500000000E+03 0.  0.
    3000001    1    3    3    0    0  0.93020957258E+01 -0.68681129013E+01 -0.35847193162E+02  0.37679188119E+02  0.10000000000E+01 0.  1.
    1000022    2    1    0    0    0  0.74382960765E+01 -0.12083869451E+02 -0.60040835434E+02  0.62499999750E+02  0.99999949813E+01 0.  0.
    3000022    2    3    3    0    0 -0.18637996493E+01 -0.52157565493E+01 -0.24193642272E+02  0.24820811630E+02  0.24999616884E+00 0.  0.
    1000022    2    1    0    0    0 -0.74382960765E+01  0.12083869451E+02  0.60040835434E+02  0.62500000250E+02  0.99999981105E+01 0.  0.
    3000022    2    5    5    0    0 -0.19979434815E+01  0.11591495754E+02  0.42740165992E+02  0.44329886564E+02  0.25000359437E+00 0.  0.
        -13    1    4    4    0    0 -0.11781209989E+01 -0.32612878371E+01 -0.14876707462E+02  0.15275844243E+02  0.10500000000E+00 0.  1.
         13    1    4    4    0    0 -0.68567865037E+00 -0.19544687123E+01 -0.93169348102E+01  0.95449673869E+01  0.10500000000E+00 0. -1.
    3000001    1    5    5    0    0 -0.54403525950E+01  0.49237369688E+00  0.17300669443E+02  0.18170113686E+02  0.10000000000E+01 0. -1.
        -13    1    6    6    0    0 -0.11054192732E+01  0.60671483904E+01  0.22532461596E+02  0.23361401754E+02  0.10500000000E+00 0. -1.
         13    1    6    6    0    0 -0.89252420831E+00  0.55243473634E+01  0.20207704396E+02  0.20968484810E+02  0.10500000000E+00 0.  1.
</event>
<event>
11    0  0.3396091E-009  0.9118800E+02  0.7816531E-02  0.1126479E+00
         25   -1    0    0    0    0  0.00000000000E+00  0.00000000000E+00  0.99999998245E-14  0.12500000000E+03  0.12500000000E+03 0.  0.
    3000001    1    3    3    0    0  0.38711265321E+02  0.18555123365E+01  0.10952791018E+01  0.38784076952E+02  0.10000000000E+01 0. -1.
    1000022    2    1    0    0    0  0.60946306915E+02  0.92153593348E+01 -0.26219899067E+01  0.62499999983E+02  0.99999996277E+01 0.  0.
    3000022    2    3    3    0    0  0.22235041594E+02  0.73598469983E+01 -0.37172690084E+01  0.23715923030E+02  0.24998751795E+00 0.  0.
    1000022    2    1    0    0    0 -0.60946306915E+02 -0.92153593348E+01  0.26219899067E+01  0.62500000017E+02  0.99999998439E+01 0.  0.
    3000022    2    5    5    0    0 -0.73758600423E+01 -0.43897185234E+01  0.13184200922E+01  0.86875583183E+01  0.24999583100E+00 0.  0.
        -13    1    4    4    0    0  0.12896085520E+02  0.43008248718E+01 -0.22153610307E+01  0.13774068601E+02  0.10500000000E+00 0.  1.
         13    1    4    4    0    0  0.93389560742E+01  0.30590221265E+01 -0.15019079777E+01  0.99418544296E+01  0.10500000000E+00 0. -1.
    3000001    1    5    5    0    0 -0.53570446872E+02 -0.48256408114E+01  0.13035698144E+01  0.53812441699E+02  0.10000000000E+01 0.  1.
        -13    1    6    6    0    0 -0.33905383624E+01 -0.19703788969E+01  0.54866366191E+00  0.39610857348E+01  0.10500000000E+00 0.  1.
         13    1    6    6    0    0 -0.39853216799E+01 -0.24193396265E+01  0.76975643031E+00  0.47264725835E+01  0.10500000000E+00 0. -1.
</event>
<event>
11    0  0.3396091E-009  0.9118800E+02  0.7816531E-02  0.1126479E+00
         25   -1    0    0    0    0  0.00000000000E+00  0.00000000000E+00  0.99999998245E-14  0.12500000000E+03  0.12500000000E+03 0.  0.
    3000001    1    3    3    0    0 -0.10689528895E+02 -0.13335053017E+02 -0.48273230911E+02  0.51219083255E+02  0.10000000000E+01 0. -1.
    1000022    2    1    0    0    0 -0.17023950498E+02 -0.17301804095E+02 -0.56719330417E+02  0.62500001197E+02  0.10000019558E+02 0.  0.
    3000022    2    3    3    0    0 -0.63344216030E+01 -0.39667510780E+01 -0.84460995058E+01  0.11280917941E+02  0.25000314276E+00 0.  0.
    1000022    2    1    0    0    0  0.17023950498E+02  0.17301804095E+02  0.56719330417E+02  0.62499998803E+02  0.10000004601E+02 0.  0.
    3000022    2    5    5    0    0  0.10150030252E+02  0.15764601761E+02  0.45534460996E+02  0.49244242525E+02  0.25000167866E+00 0.  0.
        -13    1    4    4    0    0 -0.43384495236E+01 -0.26583759753E+01 -0.57324196696E+01  0.76655572115E+01  0.10500000000E+00 0.  1.
         13    1    4    4    0    0 -0.19959720794E+01 -0.13083751027E+01 -0.27136798361E+01  0.36153607295E+01  0.10500000000E+00 0. -1.
    3000001    1    5    5    0    0  0.68739202460E+01  0.15372023338E+01  0.11184869421E+02  0.13255756279E+02  0.10000000000E+01 0. -1.
        -13    1    6    6    0    0  0.68497365047E+01  0.10702037209E+02  0.30756635880E+02  0.33278133455E+02  0.10500000000E+00 0.  1.
         13    1    6    6    0    0  0.33002937470E+01  0.50625645529E+01  0.14777825116E+02  0.15966109069E+02  0.10500000000E+00 0. -1.
</event>
<event>
11    0  0.3396091E-009  0.9118800E+02  0.7816531E-02  0.1126479E+00
         25   -1    0    0    0    0  0.00000000000E+00  0.00000000000E+00  0.99999998245E-14  0.12500000000E+03  0.12500000000E+03 0.  0.
    3000001    1    3    3    0    0  0.30620682254E+02 -0.38796655513E+02 -0.11395172183E+02  0.50731219281E+02  0.10000000000E+01 0.  1.
    1000022    2    1    0    0    0  0.40731852779E+02 -0.44089835943E+02 -0.14256667114E+02  0.62499999526E+02  0.99999959667E+01 0.  0.
    3000022    2    3    3    0    0  0.10111170525E+02 -0.52931804298E+01 -0.28614949307E+01  0.11768780245E+02  0.25001354062E+00 0.  0.
    1000022    2    1    0    0    0 -0.40731852779E+02  0.44089835943E+02  0.14256667114E+02  0.62500000474E+02  0.10000001886E+02 0.  0.
    3000022    2    5    5    0    0 -0.12131220841E+02  0.16388682942E+02  0.91306422174E+01  0.22342483667E+02  0.25000288369E+00 0.  0.
        -13    1    4    4    0    0  0.58819544910E+01 -0.30187586868E+01 -0.16197042708E+01  0.68076985515E+01  0.10500000000E+00 0.  1.
         13    1    4    4    0    0  0.42292160339E+01 -0.22744217430E+01 -0.12417906599E+01  0.49610816935E+01  0.10500000000E+00 0. -1.
    3000001    1    5    5    0    0 -0.28600631938E+02  0.27701153000E+02  0.51260248962E+01  0.40157516806E+02  0.10000000000E+01 0.  1.
        -13    1    6    6    0    0 -0.63963709208E+01  0.86706097878E+01  0.48961955682E+01  0.11835404137E+02  0.10500000000E+00 0. -1.
         13    1    6    6    0    0 -0.57348499203E+01  0.77180731547E+01  0.42344466491E+01  0.10507079530E+02  0.10500000000E+00 0.  1.
</event>
<event>
11    0  0.3396091E-009  0.9118800E+02  0.7816531E-02  0.1126479E+00
         25   -1    0    0    0    0  0.00000000000E+00  0.00000000000E+00  0.99999998245E-14  0.12500000000E+03  0.12500000000E+03 0.  0.
    3000001    1    3    3    0    0 -0.13716424812E+02 -0.20771683521E+02 -0.34426945854E+02  0.42494914363E+02  0.10000000000E+01 0. -1.
    1000022    2    1    0    0    0 -0.24043415734E+02 -0.33508819921E+02 -0.45883800912E+02  0.62499999058E+02  0.99999921756E+01 0.  0.
    3000022    2    3    3    0    0 -0.10326990922E+02 -0.12737136400E+02 -0.11456855058E+02  0.20005084695E+02  0.25000129982E+00 0.  0.
    1000022    2    1    0    0    0  0.24043415734E+02  0.33508819921E+02  0.45883800912E+02  0.62500000942E+02  0.10000003946E+02 0.  0.
    3000022    2    5    5    0    0  0.83048051024E+01  0.76737153937E+01  0.73032453927E+01  0.13463119365E+02  0.24998809865E+00 0.  0.
        -13    1    4    4    0    0 -0.44829610587E+01 -0.56331172818E+01 -0.50187197885E+01  0.87765325431E+01  0.10500000000E+00 0.  1.
         13    1    4    4    0    0 -0.58440298638E+01 -0.71040191185E+01 -0.64381352692E+01  0.11228552152E+02  0.10500000000E+00 0. -1.
    3000001    1    5    5    0    0  0.15738610632E+02  0.25835104527E+02  0.38580555519E+02  0.49036881576E+02  0.10000000000E+01 0. -1.
        -13    1    6    6    0    0  0.57218509362E+01  0.52264189797E+01  0.49787476304E+01  0.92116223573E+01  0.10500000000E+00 0. -1.
         13    1    6    6    0    0  0.25829541662E+01  0.24472964140E+01  0.23244977623E+01  0.42514970081E+01  0.10500000000E+00 0.  1.
</event>
<event>
11    0  0.3396091E-009  0.9118800E+02  0.7816531E-02  0.1126479E+00
         25   -1    0    0    0    0  0.00000000000E+00  0.00000000000E+00  0.99999998245E-14  0.12500000000E+03  0.12500000000E+03 0.  0.
    3000001    1    3    3    0    0  0.26427060308E+02  0.11085331285E+02  0.46952474672E+02  0.55016442670E+02  0.10000000000E+01 0. -1.
    1000022    2    1    0    0    0  0.31143664790E+02  0.15206952187E+02  0.51039893778E+02  0.62499999952E+02  0.99999992883E+01 0.  0.
    3000022    2    3    3    0    0  0.47166044824E+01  0.41216209022E+01  0.40874191055E+01  0.74835572820E+01  0.25003588576E+00 0.  0.
    1000022    2    1    0    0    0 -0.31143664790E+02 -0.15206952187E+02 -0.51039893778E+02  0.62500000048E+02  0.99999998887E+01 0.  0.
    3000022    2    5    5    0    0 -0.21215854057E+02 -0.15161326962E+02 -0.36068896321E+02  0.44508494484E+02  0.25000158646E+00 0.  0.
        -13    1    4    4    0    0  0.27986407314E+01  0.24894410775E+01  0.25079568195E+01  0.45089443588E+01  0.10500000000E+00 0. -1.
         13    1    4    4    0    0  0.19179637510E+01  0.16321798247E+01  0.15794622860E+01  0.29746129232E+01  0.10500000000E+00 0.  1.
    3000001    1    5    5    0    0 -0.99278107332E+01 -0.45625225225E-01 -0.14970997457E+02  0.17991505564E+02  0.10000000000E+01 0.  1.
        -13    1    6    6    0    0 -0.13022746923E+02 -0.93162795233E+01 -0.22251600877E+02  0.27414043266E+02  0.10500000000E+00 0.  1.
         13    1    6    6    0    0 -0.81931071342E+01 -0.58450474385E+01 -0.13817295443E+02  0.17094451218E+02  0.10500000000E+00 0. -1.
</event>
<event>
11    0  0.3396091E-009  0.9118800E+02  0.7816531E-02  0.1126479E+00
         25   -1    0    0    0    0  0.00000000000E+00  0.00000000000E+00  0.99999998245E-14  0.12500000000E+03  0.12500000000E+03 0.  0.
    3000001    1    3    3    0    0 -0.89335024534E+01 -0.57045880117E+00  0.47260203769E+02  0.48110910921E+02  0.10000000000E+01 0.  1.
    1000022    2    1    0    0    0 -0.14083265030E+02 -0.53075286014E+01  0.59830943752E+02  0.62500000142E+02  0.99999986877E+01 0.  0.
    3000022    2    3    3    0    0 -0.51497625765E+01 -0.47370698003E+01  0.12570739983E+02  0.14389089222E+02  0.25000003439E+00 0.  0.
    1000022    2    1    0    0    0  0.14083265030E+02  0.53075286014E+01 -0.59830943752E+02  0.62499999858E+02  0.99999969082E+01 0.  0.
    3000022    2    5    5    0    0  0.14947526217E+02  0.32100403486E+01 -0.46774291575E+02  0.49210057403E+02  0.24999640409E+00 0.  0.
        -13    1    4    4    0    0 -0.36336828623E+01 -0.33801168171E+01  0.89805167302E+01  0.10261069466E+02  0.10500000000E+00 0. -1.
         13    1    4    4    0    0 -0.15160797143E+01 -0.13569529832E+01  0.35902232531E+01  0.41280197560E+01  0.10500000000E+00 0.  1.
    3000001    1    5    5    0    0 -0.86426118750E+00  0.20974882529E+01 -0.13056652177E+02  0.13289942454E+02  0.10000000000E+01 0. -1.
        -13    1    6    6    0    0  0.47634042843E+01  0.10420967292E+01 -0.14769365662E+02  0.15553815385E+02  0.10500000000E+00 0.  1.
         13    1    6    6    0    0  0.10184121933E+02  0.21679436194E+01 -0.32004925913E+02  0.33656242018E+02  0.10500000000E+00 0. -1.
</event>
<event>
11    0  0.3396091E-009  0.9118800E+02  0.7816531E-02  0.1126479E+00
         25   -1    0    0    0    0  0.00000000000E+00  0.00000000000E+00  0.99999998245E-14  0.12500000000E+03  0.12500000000E+03 0.  0.
    3000001    1    3    3    0    0 -0.14780525876E+01  0.10198656525E+02 -0.13773829263E+01  0.10444827337E+02  0.10000000000E+01 0.  1.
    1000022    2    1    0    0    0 -0.10177883636E+02  0.53726821999E+02 -0.28567276468E+02  0.62500000596E+02  0.10000003609E+02 0.  0.
    3000022    2    3    3    0    0 -0.86998310488E+01  0.43528165474E+02 -0.27189893542E+02  0.52055173259E+02  0.25000473214E+00 0.  0.
    1000022    2    1    0    0    0  0.10177883636E+02 -0.53726821999E+02  0.28567276468E+02  0.62499999404E+02  0.99999961624E+01 0.  0.
    3000022    2    5    5    0    0 -0.12546355872E+01 -0.32569284312E+01  0.36496779590E+01  0.50561192424E+01  0.24999865212E+00 0.  0.
        -13    1    4    4    0    0 -0.41660102388E+01  0.20873007473E+02 -0.12958625084E+02  0.24919371407E+02  0.10500000000E+00 0. -1.
         13    1    4    4    0    0 -0.45338208100E+01  0.22655158002E+02 -0.14231268458E+02  0.27135801852E+02  0.10500000000E+00 0.  1.
    3000001    1    5    5    0    0  0.11432519224E+02 -0.50469893568E+02  0.24917598509E+02  0.57443880162E+02  0.10000000000E+01 0. -1.
        -13    1    6    6    0    0 -0.52048863356E+00 -0.13527410199E+01  0.14240936616E+01  0.20346705978E+01  0.10500000000E+00 0.  1.
         13    1    6    6    0    0 -0.73414695369E+00 -0.19041874113E+01  0.22255842974E+01  0.30214486446E+01  0.10500000000E+00 0. -1.
</event>
<event>
11    0  0.3396091E-009  0.9118800E+02  0.7816531E-02  0.1126479E+00
         25   -1    0    0    0    0  0.00000000000E+00  0.00000000000E+00  0.99999998245E-14  0.12500000000E+03  0.12500000000E+03 0.  0.
    3000001    1    3    3    0    0 -0.20112904183E+01  0.68277625692E+00  0.16765022553E+01  0.28848106308E+01  0.10000000000E+01 0.  1.
    1000022    2    1    0    0    0 -0.10037583511E+02  0.28465590638E+02  0.53807127757E+02  0.62499999728E+02  0.10000001769E+02 0.  0.
    3000022    2    3    3    0    0 -0.80262930931E+01  0.27782814381E+02  0.52130625502E+02  0.59615189097E+02  0.25000018407E+00 0.  0.
    1000022    2    1    0    0    0  0.10037583511E+02 -0.28465590638E+02 -0.53807127757E+02  0.62500000272E+02  0.10000005172E+02 0.  0.
    3000022    2    5    5    0    0  0.19310139577E+01  0.21765961672E+00 -0.28898385337E+01  0.34913936375E+01  0.24994432916E+00 0.  0.
        -13    1    4    4    0    0 -0.43599044747E+01  0.14933795565E+02  0.27938993147E+02  0.31978514351E+02  0.10500000000E+00 0. -1.
         13    1    4    4    0    0 -0.36663886183E+01  0.12849018816E+02  0.24191632355E+02  0.27636674746E+02  0.10500000000E+00 0.  1.
    3000001    1    5    5    0    0  0.81065695537E+01 -0.28683250255E+02 -0.50917289224E+02  0.59008606635E+02  0.10000000000E+01 0. -1.
        -13    1    6    6    0    0  0.12422750646E+01  0.83461046267E-01 -0.18700026955E+01  0.22490327173E+01  0.10500000000E+00 0.  1.
         13    1    6    6    0    0  0.68873889307E+00  0.13419857045E+00 -0.10198358382E+01  0.12423609202E+01  0.10500000000E+00 0. -1.
</event>
<event>
11    0  0.3396091E-009  0.9118800E+02  0.7816531E-02  0.1126479E+00
         25   -1    0    0    0    0  0.00000000000E+00  0.00000000000E+00  0.99999998245E-14  0.12500000000E+03  0.12500000000E+03 0.  0.
    3000001    1    3    3    0    0  0.75228193304E+01  0.39953674870E+01 -0.11369324524E+02  0.14241394319E+02  0.10000000000E+01 0. -1.
    1000022    2    1    0    0    0  0.19471373049E+02  0.87842158022E+01 -0.57878780409E+02  0.62499999658E+02  0.99999959976E+01 0.  0.
    3000022    2    3    3    0    0  0.11948553718E+02  0.47888483152E+01 -0.46509455885E+02  0.48258605338E+02  0.24999667736E+00 0.  0.
    1000022    2    1    0    0    0 -0.19471373049E+02 -0.87842158022E+01  0.57878780409E+02  0.62500000342E+02  0.10000000279E+02 0.  0.
    3000022    2    5    5    0    0 -0.43173930434E+01 -0.62771285500E+01  0.13184656119E+02  0.15229572562E+02  0.24999587418E+00 0.  0.
        -13    1    4    4    0    0  0.82309154062E+01  0.33198909511E+01 -0.31896978821E+02  0.33108879885E+02  0.10500000000E+00 0.  1.
         13    1    4    4    0    0  0.37176383120E+01  0.14689573640E+01 -0.14612477064E+02  0.15149725453E+02  0.10500000000E+00 0. -1.
    3000001    1    5    5    0    0 -0.15153980005E+02 -0.25070872522E+01  0.44694124290E+02  0.47270427780E+02  0.10000000000E+01 0.  1.
        -13    1    6    6    0    0 -0.31553861471E+01 -0.45596152402E+01  0.96592934405E+01  0.11138201275E+02  0.10500000000E+00 0. -1.
         13    1    6    6    0    0 -0.11620068963E+01 -0.17175133098E+01  0.35253626784E+01  0.40913712873E+01  0.10500000000E+00 0.  1.
</event>
<event>
11    0  0.3396091E-009  0.9118800E+02  0.7816531E-02  0.1126479E+00
         25   -1    0    0    0    0  0.00000000000E+00  0.00000000000E+00  0.99999998245E-14  0.12500000000E+03  0.12500000000E+03 0.  0.
    3000001    1    3    3    0    0  0.23897191788E+02  0.44773803011E+01 -0.98774708234E+01  0.26261895201E+02  0.10000000000E+01 0. -1.
    1000022    2    1    0    0    0  0.58979768798E+02  0.13198096525E+02 -0.12387370539E+02  0.62499999430E+02  0.10000005033E+02 0.  0.
    3000022    2    3    3    0    0  0.35082577010E+02  0.87207162238E+01 -0.25098997152E+01  0.36238104229E+02  0.25000087088E+00 0.  0.
    1000022    2    1    0    0    0 -0.58979768798E+02 -0.13198096525E+02  0.12387370539E+02  0.62500000570E+02  0.10000012152E+02 0.  0.
    3000022    2    5    5    0    0 -0.47430467400E+02 -0.81560506732E+01  0.12972427454E+02  0.49844927250E+02  0.24999618312E+00 0.  0.
        -13    1    4    4    0    0  0.91467144171E+01  0.22833310413E+01 -0.68523314531E+00  0.94528596063E+01  0.10500000000E+00 0.  1.
         13    1    4    4    0    0  0.25935862593E+02  0.64373851824E+01 -0.18246665699E+01  0.26785244623E+02  0.10500000000E+00 0. -1.
    3000001    1    5    5    0    0 -0.11549301397E+02 -0.50420458517E+01 -0.58505691552E+00  0.12655073320E+02  0.10000000000E+01 0. -1.
        -13    1    6    6    0    0 -0.36212751838E+02 -0.62431292785E+01  0.99019906292E+01  0.38057857300E+02  0.10500000000E+00 0. -1.
         13    1    6    6    0    0 -0.11217715563E+02 -0.19129213947E+01  0.30704368249E+01  0.11787069950E+02  0.10500000000E+00 0.  1.
</event>
<event>
11    0  0.3396091E-009  0.9118800E+02  0.7816531E-02  0.1126479E+00
         25   -1    0    0    0    0  0.00000000000E+00  0.00000000000E+00  0.99999998245E-14  0.12500000000E+03  0.12500000000E+03 0.  0.
    3000001    1    3    3    0    0 -0.35949904351E+02 -0.25414590073E+02  0.14666527056E+02  0.46415558030E+02  0.10000000000E+01 0.  1.
    1000022    2    1    0    0    0 -0.50739290681E+02 -0.28871457241E+02  0.19955280069E+02  0.62500000589E+02  0.10000010448E+02 0.  0.
    3000022    2    3    3    0    0 -0.14789386330E+02 -0.34568671685E+01  0.52887530132E+01  0.16084442559E+02  0.25001068441E+00 0.  0.
    1000022    2    1    0    0    0  0.50739290681E+02  0.28871457241E+02 -0.19955280069E+02  0.62499999411E+02  0.10000003087E+02 0.  0.
    3000022    2    5    5    0    0  0.55066990857E+01  0.67987625601E+01 -0.14848910941E+01  0.88777422619E+01  0.24999787729E+00 0.  0.
        -13    1    4    4    0    0 -0.61940351692E+01 -0.14345723849E+01  0.22812358121E+01  0.67556740179E+01  0.10500000000E+00 0.  1.
         13    1    4    4    0    0 -0.85953511608E+01 -0.20222947836E+01  0.30075172012E+01  0.93287685406E+01  0.10500000000E+00 0. -1.
    3000001    1    5    5    0    0  0.45232591595E+02  0.22072694681E+02 -0.18470388975E+02  0.53622257149E+02  0.10000000000E+01 0.  1.
        -13    1    6    6    0    0  0.42118510947E+01  0.51726079608E+01 -0.11318349208E+01  0.67666563418E+01  0.10500000000E+00 0. -1.
         13    1    6    6    0    0  0.12948479909E+01  0.16261545993E+01 -0.35305617339E+00  0.21110859201E+01  0.10500000000E+00 0.  1.
</event>
<event>
11    0  0.3396091E-009  0.9118800E+02  0.7816531E-02  0.1126479E+00
         25   -1    0    0    0    0  0.00000000000E+00  0.00000000000E+00  0.99999998245E-14  0.12500000000E+03  0.12500000000E+03 0.  0.
    3000001    1    3    3    0    0 -0.92127347946E+01  0.26311472790E+01 -0.57589680783E+01  0.11223329797E+02  0.10000000000E+01 0.  1.
    1000022    2    1    0    0    0 -0.44461255106E+02 -0.17962247472E+01 -0.42734296232E+02  0.62500002836E+02  0.10000032556E+02 0.  0.
    3000022    2    3    3    0    0 -0.35248520311E+02 -0.44273720261E+01 -0.36975328153E+02  0.51276673039E+02  0.24999740458E+00 0.  0.
    1000022    2    1    0    0    0  0.44461255106E+02  0.17962247472E+01  0.42734296232E+02  0.62499997164E+02  0.99999971085E+01 0.  0.
    3000022    2    5    5    0    0  0.22851422171E+02  0.48287593811E+01  0.26225223005E+02  0.35118787466E+02  0.24999791623E+00 0.  0.
        -13    1    4    4    0    0 -0.15443356426E+02 -0.19273323960E+01 -0.16292051216E+02  0.22531174530E+02  0.10500000000E+00 0. -1.
         13    1    4    4    0    0 -0.19805163886E+02 -0.25000396302E+01 -0.20683276937E+02  0.28745498509E+02  0.10500000000E+00 0.  1.
    3000001    1    5    5    0    0  0.21609832935E+02 -0.30325346340E+01  0.16509073226E+02  0.27381209699E+02  0.10000000000E+01 0. -1.
        -13    1    6    6    0    0  0.66427472703E+01  0.14292588545E+01  0.75770657923E+01  0.10178006838E+02  0.10500000000E+00 0. -1.
         13    1    6    6    0    0  0.16208674901E+02  0.33995005266E+01  0.18648157213E+02  0.24940780628E+02  0.10500000000E+00 0. -1.
</event>
<event>
11    0  0.3396091E-009  0.9118800E+02  0.7816531E-02  0.1126479E+00
         25   -1    0    0    0    0  0.00000000000E+00  0.00000000000E+00  0.99999998245E-14  0.12500000000E+03  0.12500000000E+03 0.  0.
    3000001    1    3    3    0    0 -0.49399674033E+00  0.84044444737E-01  0.33150757395E+00  0.11666162693E+01  0.10000000000E+01 0. -1.
    1000022    2    1    0    0    0 -0.35474042122E+02 -0.43362417746E+02  0.25836853512E+02  0.62499998853E+02  0.99999959966E+01 0.  0.
    3000022    2    3    3    0    0 -0.34980045382E+02 -0.43446462191E+02  0.25505345938E+02  0.61333382584E+02  0.24999181521E+00 0.  0.
    1000022    2    1    0    0    0  0.35474042122E+02  0.43362417746E+02 -0.25836853512E+02  0.62500001147E+02  0.10000010337E+02 0.  0.
    3000022    2    5    5    0    0  0.10107091128E+02  0.64868721303E+01 -0.72127544681E+01  0.14011392872E+02  0.25000423026E+00 0.  0.
        -13    1    4    4    0    0 -0.12766180780E+02 -0.15808476578E+02  0.92358442999E+01  0.22320285579E+02  0.10500000000E+00 0. -1.
         13    1    4    4    0    0 -0.22213864603E+02 -0.27637985613E+02  0.16269501638E+02  0.39013097004E+02  0.10500000000E+00 0.  1.
    3000001    1    5    5    0    0  0.25366950995E+02  0.36875545616E+02 -0.18624099044E+02  0.48488608275E+02  0.10000000000E+01 0. -1.
        -13    1    6    6    0    0  0.67800302823E+01  0.43592815106E+01 -0.47795215964E+01  0.93716059248E+01  0.10500000000E+00 0.  1.
         13    1    6    6    0    0  0.33270608452E+01  0.21275906196E+01 -0.24332328717E+01  0.46397869477E+01  0.10500000000E+00 0. -1.
</event>
<event>
11    0  0.3396091E-009  0.9118800E+02  0.7816531E-02  0.1126479E+00
         25   -1    0    0    0    0  0.00000000000E+00  0.00000000000E+00  0.99999998245E-14  0.12500000000E+03  0.12500000000E+03 0.  0.
    3000001    1    3    3    0    0 -0.31776105745E+02  0.37071583817E+02  0.35073333520E+02  0.60126216805E+02  0.10000000000E+01 0. -1.
    1000022    2    1    0    0    0 -0.32044536786E+02  0.39416027151E+02  0.35011061098E+02  0.62500000246E+02  0.10000004865E+02 0.  0.
    3000022    2    3    3    0    0 -0.26843104103E+00  0.23444433337E+01 -0.62272422409E-01  0.23737834407E+01  0.25000040025E+00 0.  0.
    1000022    2    1    0    0    0  0.32044536786E+02 -0.39416027151E+02 -0.35011061098E+02  0.62499999754E+02  0.10000001796E+02 0.  0.
    3000022    2    5    5    0    0  0.21922113878E+02 -0.31758035333E+02 -0.22607671370E+02  0.44724950923E+02  0.25009041532E+00 0.  0.
        -13    1    4    4    0    0 -0.10203664877E+00  0.76561741021E+00  0.30034091901E-01  0.78006957586E+00  0.10500000000E+00 0. -1.
         13    1    4    4    0    0 -0.16639439226E+00  0.15788259235E+01 -0.92306514310E-01  0.15937138648E+01  0.10500000000E+00 0.  1.
    3000001    1    5    5    0    0  0.10122422909E+02 -0.76579918178E+01 -0.12403389727E+02  0.17775048831E+02  0.10000000000E+01 0. -1.
        -13    1    6    6    0    0  0.10469350623E+02 -0.15049718780E+02 -0.10754879262E+02  0.21255112109E+02  0.10500000000E+00 0. -1.
         13    1    6    6    0    0  0.11452763254E+02 -0.16708316553E+02 -0.11852792108E+02  0.23469838814E+02  0.10500000000E+00 0.  1.
</event>
<event>
11    0  0.3396091E-009  0.9118800E+02  0.7816531E-02  0.1126479E+00
         25   -1    0    0    0    0  0.00000000000E+00  0.00000000000E+00  0.99999998245E-14  0.12500000000E+03  0.12500000000E+03 0.  0.
    3000001    1    3    3    0    0  0.73439979112E+00 -0.33453213539E+00 -0.12236958680E+01  0.17744538259E+01  0.10000000000E+01 0. -1.
    1000022    2    1    0    0    0  0.39116731296E+02  0.32608032468E+02 -0.34825972108E+02  0.62499995427E+02  0.99999323205E+01 0.  0.
    3000022    2    3    3    0    0  0.38382331505E+02  0.32942564603E+02 -0.33602276240E+02  0.60725541601E+02  0.24999973086E+00 0.  0.
    1000022    2    1    0    0    0 -0.39116731296E+02 -0.32608032468E+02  0.34825972108E+02  0.62500004573E+02  0.99999894800E+01 0.  0.
    3000022    2    5    5    0    0 -0.25334343696E+02 -0.26306027072E+02  0.26965519211E+02  0.45398653757E+02  0.25001167254E+00 0.  0.
        -13    1    4    4    0    0  0.27903009202E+02  0.23980157318E+02 -0.24407842927E+02  0.44151780132E+02  0.10500000000E+00 0.  1.
         13    1    4    4    0    0  0.10479322303E+02  0.89624072855E+01 -0.91944333138E+01  0.16573761469E+02  0.10500000000E+00 0. -1.
    3000001    1    5    5    0    0 -0.13782387600E+02 -0.63020053961E+01  0.78604528972E+01  0.17101350815E+02  0.10000000000E+01 0.  1.
        -13    1    6    6    0    0 -0.16181434299E+02 -0.16866345716E+02  0.17210985243E+02  0.29026564933E+02  0.10500000000E+00 0. -1.
         13    1    6    6    0    0 -0.91529093972E+01 -0.94396813561E+01  0.97545339676E+01  0.16372088824E+02  0.10500000000E+00 0.  1.
</event>
<event>
11    0  0.3396091E-009  0.9118800E+02  0.7816531E-02  0.1126479E+00
         25   -1    0    0    0    0  0.00000000000E+00  0.00000000000E+00  0.99999998245E-14  0.12500000000E+03  0.12500000000E+03 0.  0.
    3000001    1    3    3    0    0 -0.22721232577E+02 -0.56593392129E+02  0.10678311635E+02  0.61920051533E+02  0.10000000000E+01 0. -1.
    1000022    2    1    0    0    0 -0.22199195527E+02 -0.56560538752E+02  0.10693520432E+02  0.62499997325E+02  0.99999730216E+01 0.  0.
    3000022    2    3    3    0    0  0.52203704973E+00  0.32853376711E-01  0.15208796745E-01  0.57994579224E+00  0.25000757746E+00 0.  0.
    1000022    2    1    0    0    0  0.22199195527E+02  0.56560538752E+02 -0.10693520432E+02  0.62500002675E+02  0.10000006458E+02 0.  0.
    3000022    2    5    5    0    0  0.18171048555E+02  0.53233875451E+02 -0.94677086571E+01  0.57041498186E+02  0.25001392708E+00 0.  0.
        -13    1    4    4    0    0  0.34162727463E+00  0.88162313373E-02 -0.47543290767E-01  0.36065535515E+00  0.10500000000E+00 0. -1.
         13    1    4    4    0    0  0.18040977510E+00  0.24037145374E-01  0.62752087513E-01  0.21929043709E+00  0.10500000000E+00 0.  1.
    3000001    1    5    5    0    0  0.40281469724E+01  0.33266633013E+01 -0.12258117744E+01  0.54585044891E+01  0.10000000000E+01 0.  1.
        -13    1    6    6    0    0  0.62289383451E+01  0.18284488582E+02 -0.33061870544E+01  0.19597553251E+02  0.10500000000E+00 0. -1.
         13    1    6    6    0    0  0.11942110210E+02  0.34949386869E+02 -0.61615216028E+01  0.37443944934E+02  0.10500000000E+00 0.  1.
</event>
<event>
11    0  0.3396091E-009  0.9118800E+02  0.7816531E-02  0.1126479E+00
         25   -1    0    0    0    0  0.00000000000E+00  0.00000000000E+00  0.99999998245E-14  0.12500000000E+03  0.12500000000E+03 0.  0.
    3000001    1    3    3    0    0 -0.73248716493E+01  0.22486939425E+02  0.37553651187E+01  0.23967038961E+02  0.10000000000E+01 0. -1.
    1000022    2    1    0    0    0 -0.24419895574E+02  0.56640096477E+02 -0.13484143524E+01  0.62499999399E+02  0.99999937453E+01 0.  0.
    3000022    2    3    3    0    0 -0.17095023925E+02  0.34153157052E+02 -0.51037794711E+01  0.38532960439E+02  0.24999133103E+00 0.  0.
    1000022    2    1    0    0    0  0.24419895574E+02 -0.56640096477E+02  0.13484143524E+01  0.62500000601E+02  0.10000001255E+02 0.  0.
    3000022    2    5    5    0    0  0.19104613605E+02 -0.50426353021E+02 -0.10000311918E+01  0.53933903087E+02  0.24999963710E+00 0.  0.
        -13    1    4    4    0    0 -0.91944180550E+01  0.18223478998E+02 -0.27445874424E+01  0.20595540668E+02  0.10500000000E+00 0. -1.
         13    1    4    4    0    0 -0.79006058696E+01  0.15929678054E+02 -0.23591920287E+01  0.17937419771E+02  0.10500000000E+00 0.  1.
    3000001    1    5    5    0    0  0.53152819690E+01 -0.62137434559E+01  0.23484455442E+01  0.85660975140E+01  0.10000000000E+01 0. -1.
        -13    1    6    6    0    0  0.13087897021E+02 -0.34405600784E+02 -0.69071913896E+00  0.36817475900E+02  0.10500000000E+00 0. -1.
         13    1    6    6    0    0  0.60167165835E+01 -0.16020752237E+02 -0.30931205284E+00  0.17116427186E+02  0.10500000000E+00 0.  1.
</event>
<event>
11    0  0.3396091E-009  0.9118800E+02  0.7816531E-02  0.1126479E+00
         25   -1    0    0    0    0  0.00000000000E+00  0.00000000000E+00  0.99999998245E-14  0.12500000000E+03  0.12500000000E+03 0.  0.
    3000001    1    3    3    0    0  0.86717551982E+01 -0.48953935638E+00  0.38655320258E+01  0.95593579723E+01  0.10000000000E+01 0.  1.
    1000022    2    1    0    0    0  0.54040072359E+02 -0.24293674263E+02  0.17197021736E+02  0.62500005490E+02  0.10000054994E+02 0.  0.
    3000022    2    3    3    0    0  0.45368317161E+02 -0.23804134907E+02  0.13331489711E+02  0.52940647518E+02  0.25000207018E+00 0.  0.
    1000022    2    1    0    0    0 -0.54040072359E+02  0.24293674263E+02 -0.17197021736E+02  0.62499994510E+02  0.99999863668E+01 0.  0.
    3000022    2    5    5    0    0 -0.17683204539E+02  0.10890173227E+02 -0.19983982162E+01  0.20864987188E+02  0.24999854066E+00 0.  0.
        -13    1    4    4    0    0  0.34498815571E+02 -0.18079528844E+02  0.10137040928E+02  0.40246841650E+02  0.10500000000E+00 0.  1.
         13    1    4    4    0    0  0.10869501589E+02 -0.57246060631E+01  0.31944487831E+01  0.12693805868E+02  0.10500000000E+00 0. -1.
    3000001    1    5    5    0    0 -0.36356867820E+02  0.13403501036E+02 -0.15198623520E+02  0.41635007321E+02  0.10000000000E+01 0. -1.
        -13    1    6    6    0    0 -0.83516310893E+01  0.51024718797E+01 -0.99980971179E+00  0.98384757760E+01  0.10500000000E+00 0.  1.
         13    1    6    6    0    0 -0.93315734493E+01  0.57877013475E+01 -0.99858850438E+00  0.11026511412E+02  0.10500000000E+00 0. -1.
</event>
<event>
11    0  0.3396091E-009  0.9118800E+02  0.7816531E-02  0.1126479E+00
         25   -1    0    0    0    0  0.00000000000E+00  0.00000000000E+00  0.99999998245E-14  0.12500000000E+03  0.12500000000E+03 0.  0.
    3000001    1    3    3    0    0 -0.62763929556E+00 -0.18717535169E+01  0.10112077403E+02  0.10351400954E+02  0.10000000000E+01 0. -1.
    1000022    2    1    0    0    0  0.16096128757E+02 -0.26336974991E+01  0.59499818090E+02  0.62500000272E+02  0.99999978889E+01 0.  0.
    3000022    2    3    3    0    0  0.16723768053E+02 -0.76194398225E+00  0.49387740688E+02  0.52148599318E+02  0.25000823761E+00 0.  0.
    1000022    2    1    0    0    0 -0.16096128757E+02  0.26336974991E+01 -0.59499818090E+02  0.62499999728E+02  0.99999944837E+01 0.  0.
    3000022    2    5    5    0    0 -0.12915725805E+02  0.47170377423E+01 -0.54100526937E+02  0.55821106521E+02  0.25000041853E+00 0.  0.
        -13    1    4    4    0    0  0.80417999813E+01 -0.42319932207E+00  0.23641684188E+02  0.24975786291E+02  0.10500000000E+00 0.  1.
         13    1    4    4    0    0  0.86819680714E+01 -0.33874466017E+00  0.25746056499E+02  0.27172813027E+02  0.10500000000E+00 0. -1.
    3000001    1    5    5    0    0 -0.31804029524E+01 -0.20833402432E+01 -0.53992911529E+01  0.66788932064E+01  0.10000000000E+01 0. -1.
        -13    1    6    6    0    0 -0.48660458556E+01  0.18334365308E+01 -0.20580994202E+02  0.21228006010E+02  0.10500000000E+00 0. -1.
         13    1    6    6    0    0 -0.80496799491E+01  0.28836012115E+01 -0.33519532735E+02  0.34593100512E+02  0.10500000000E+00 0.  1.
</event>
<event>
11    0  0.3396091E-009  0.9118800E+02  0.7816531E-02  0.1126479E+00
         25   -1    0    0    0    0  0.00000000000E+00  0.00000000000E+00  0.99999998245E-14  0.12500000000E+03  0.12500000000E+03 0.  0.
    3000001    1    3    3    0    0  0.23216625646E+02 -0.42235808978E+01 -0.52054994976E+02  0.57162687515E+02  0.10000000000E+01 0.  1.
    1000022    2    1    0    0    0  0.22444379223E+02 -0.52715120931E+01 -0.57225090041E+02  0.62500000202E+02  0.10000004829E+02 0.  0.
    3000022    2    3    3    0    0 -0.77224642371E+00 -0.10479311952E+01 -0.51700950657E+01  0.53373126872E+01  0.24999880779E+00 0.  0.
    1000022    2    1    0    0    0 -0.22444379223E+02  0.52715120931E+01  0.57225090041E+02  0.62499999798E+02  0.10000002304E+02 0.  0.
    3000022    2    5    5    0    0 -0.21536638653E+02  0.63358477116E+01  0.46478333335E+02  0.51616545247E+02  0.25000595790E+00 0.  0.
        -13    1    4    4    0    0 -0.43889535159E+00 -0.63055580791E+00 -0.32779512523E+01  0.33684149342E+01  0.10500000000E+00 0.  1.
         13    1    4    4    0    0 -0.33335107212E+00 -0.41737538732E+00 -0.18921438134E+01  0.19688977530E+01  0.10500000000E+00 0. -1.
    3000001    1    5    5    0    0 -0.90774056944E+00 -0.10643356186E+01  0.10746756706E+02  0.10883454551E+02  0.10000000000E+01 0.  1.
        -13    1    6    6    0    0 -0.12684923560E+02  0.36651121003E+01  0.27324233553E+02  0.30347406754E+02  0.10500000000E+00 0.  1.
         13    1    6    6    0    0 -0.88517150937E+01  0.26707356113E+01  0.19154099782E+02  0.21269138494E+02  0.10500000000E+00 0. -1.
</event>
<event>
11    0  0.3396091E-009  0.9118800E+02  0.7816531E-02  0.1126479E+00
         25   -1    0    0    0    0  0.00000000000E+00  0.00000000000E+00  0.99999998245E-14  0.12500000000E+03  0.12500000000E+03 0.  0.
    3000001    1    3    3    0    0  0.30966845130E+02 -0.87021581984E+00  0.16935387547E+02  0.35320109346E+02  0.10000000000E+01 0. -1.
    1000022    2    1    0    0    0  0.54695030648E+02 -0.96528607927E+01  0.26861231745E+02  0.62500001012E+02  0.10000012828E+02 0.  0.
    3000022    2    3    3    0    0  0.23728185519E+02 -0.87826449729E+01  0.99258441982E+01  0.27179891666E+02  0.24997441269E+00 0.  0.
    1000022    2    1    0    0    0 -0.54695030648E+02  0.96528607927E+01 -0.26861231745E+02  0.62499998988E+02  0.10000000174E+02 0.  0.
    3000022    2    5    5    0    0 -0.39736239469E+02  0.70875077272E+01 -0.14463253094E+02  0.42877146378E+02  0.24999713177E+00 0.  0.
        -13    1    4    4    0    0  0.56411058792E+01 -0.21058281402E+01  0.23680174668E+01  0.64710987800E+01  0.10500000000E+00 0.  1.
         13    1    4    4    0    0  0.18087079640E+02 -0.66768168327E+01  0.75578267313E+01  0.20708792886E+02  0.10500000000E+00 0. -1.
    3000001    1    5    5    0    0 -0.14958791180E+02  0.25653530655E+01 -0.12397978651E+02  0.19622852609E+02  0.10000000000E+01 0. -1.
        -13    1    6    6    0    0 -0.16089917471E+02  0.28463933865E+01 -0.57921655877E+01  0.17336308913E+02  0.10500000000E+00 0. -1.
         13    1    6    6    0    0 -0.23646321998E+02  0.42411143406E+01 -0.86710875066E+01  0.25540837465E+02  0.10500000000E+00 0.  1.
</event>
<event>
11    0  0.3396091E-009  0.9118800E+02  0.7816531E-02  0.1126479E+00
         25   -1    0    0    0    0  0.00000000000E+00  0.00000000000E+00  0.99999998245E-14  0.12500000000E+03  0.12500000000E+03 0.  0.
    3000001    1    3    3    0    0 -0.23889121976E+01  0.33148091501E+01  0.14747809550E+02  0.15335995165E+02  0.10000000000E+01 0. -1.
    1000022    2    1    0    0    0 -0.37870590546E+01  0.28617045283E+02  0.54524974018E+02  0.62499999226E+02  0.10000000727E+02 0.  0.
    3000022    2    3    3    0    0 -0.13981468570E+01  0.25302236133E+02  0.39777164468E+02  0.47164004060E+02  0.24999586234E+00 0.  0.
    1000022    2    1    0    0    0  0.37870590546E+01 -0.28617045283E+02 -0.54524974018E+02  0.62500000774E+02  0.10000010404E+02 0.  0.
    3000022    2    5    5    0    0  0.70941932354E+01 -0.16822029802E+02 -0.32766274725E+02  0.37509992338E+02  0.25000312187E+00 0.  0.
        -13    1    4    4    0    0 -0.60022932176E+00  0.11904991702E+02  0.18776148194E+02  0.22240590565E+02  0.10500000000E+00 0.  1.
         13    1    4    4    0    0 -0.79791753524E+00  0.13397244431E+02  0.21001016274E+02  0.24923413496E+02  0.10500000000E+00 0. -1.
    3000001    1    5    5    0    0 -0.33071341808E+01 -0.11795015481E+02 -0.21758699293E+02  0.24990008436E+02  0.10000000000E+01 0. -1.
        -13    1    6    6    0    0  0.53876269670E+01 -0.12802768323E+02 -0.24959355669E+02  0.28564275966E+02  0.10500000000E+00 0. -1.
         13    1    6    6    0    0  0.17065662684E+01 -0.40192614794E+01 -0.78069190555E+01  0.89457163719E+01  0.10500000000E+00 0.  1.
</event>
<event>
11    0  0.3396091E-009  0.9118800E+02  0.7816531E-02  0.1126479E+00
         25   -1    0    0    0    0  0.00000000000E+00  0.00000000000E+00  0.99999998245E-14  0.12500000000E+03  0.12500000000E+03 0.  0.
    3000001    1    3    3    0    0  0.14756187106E+02 -0.28679708458E+02 -0.91648368436E+01  0.33544969362E+02  0.10000000000E+01 0.  1.
    1000022    2    1    0    0    0  0.24647959689E+02 -0.50564315538E+02 -0.25337287719E+02  0.62500001029E+02  0.10000002851E+02 0.  0.
    3000022    2    3    3    0    0  0.98917725825E+01 -0.21884607081E+02 -0.16172450875E+02  0.28955031667E+02  0.24999926353E+00 0.  0.
    1000022    2    1    0    0    0 -0.24647959689E+02  0.50564315538E+02  0.25337287719E+02  0.62499998971E+02  0.99999899871E+01 0.  0.
    3000022    2    5    5    0    0 -0.21147348803E+02  0.39064576488E+02  0.23634841035E+02  0.50318184676E+02  0.25000158636E+00 0.  0.
        -13    1    4    4    0    0  0.54897713777E+01 -0.12010181766E+02 -0.88482335972E+01  0.15896047264E+02  0.10500000000E+00 0. -1.
         13    1    4    4    0    0  0.44020012048E+01 -0.98744253144E+01 -0.73242172782E+01  0.13058984403E+02  0.10500000000E+00 0.  1.
    3000001    1    5    5    0    0 -0.35006108854E+01  0.11499739050E+02  0.17024466843E+01  0.12181814294E+02  0.10000000000E+01 0. -1.
        -13    1    6    6    0    0 -0.11190200936E+02  0.20774053911E+02  0.12502176644E+02  0.26703882840E+02  0.10500000000E+00 0. -1.
         13    1    6    6    0    0 -0.99571478670E+01  0.18290522577E+02  0.11132664390E+02  0.23614301836E+02  0.10500000000E+00 0.  1.
</event>
<event>
11    0  0.3396091E-009  0.9118800E+02  0.7816531E-02  0.1126479E+00
         25   -1    0    0    0    0  0.00000000000E+00  0.00000000000E+00  0.99999998245E-14  0.12500000000E+03  0.12500000000E+03 0.  0.
    3000001    1    3    3    0    0  0.37140417835E+02  0.35069174290E+02  0.25571635609E+02  0.57132881689E+02  0.10000000000E+01 0. -1.
    1000022    2    1    0    0    0  0.40013145970E+02  0.36155753885E+02  0.29965974920E+02  0.62499999509E+02  0.99999948147E+01 0.  0.
    3000022    2    3    3    0    0  0.28727281352E+01  0.10865795955E+01  0.43943393108E+01  0.53671178205E+01  0.25002712745E+00 0.  0.
    1000022    2    1    0    0    0 -0.40013145970E+02 -0.36155753885E+02 -0.29965974920E+02  0.62500000491E+02  0.10000000952E+02 0.  0.
    3000022    2    5    5    0    0 -0.38259976409E+02 -0.34884099046E+02 -0.26163948079E+02  0.58011557817E+02  0.25000029795E+00 0.  0.
        -13    1    4    4    0    0  0.14891877674E+01  0.51320721269E+00  0.23376099825E+01  0.28207281471E+01  0.10500000000E+00 0.  1.
         13    1    4    4    0    0  0.13835403678E+01  0.57337238284E+00  0.20567293283E+01  0.25463896734E+01  0.10500000000E+00 0. -1.
    3000001    1    5    5    0    0 -0.17531695608E+01 -0.12716548388E+01 -0.38020268412E+01  0.44884426742E+01  0.10000000000E+01 0.  1.
        -13    1    6    6    0    0 -0.20614259164E+02 -0.18748185455E+02 -0.14145208704E+02  0.31249641486E+02  0.10500000000E+00 0.  1.
         13    1    6    6    0    0 -0.17645717245E+02 -0.16135913591E+02 -0.12018739375E+02  0.26761916331E+02  0.10500000000E+00 0. -1.
</event>
<event>
11    0  0.3396091E-009  0.9118800E+02  0.7816531E-02  0.1126479E+00
         25   -1    0    0    0    0  0.00000000000E+00  0.00000000000E+00  0.99999998245E-14  0.12500000000E+03  0.12500000000E+03 0.  0.
    3000001    1    3    3    0    0 -0.27654389803E+02 -0.26725849180E+01 -0.35328657573E+01  0.28024794843E+02  0.10000000000E+01 0. -1.
    1000022    2    1    0    0    0 -0.59001590643E+02 -0.23477156371E+01 -0.17875973956E+02  0.62500000358E+02  0.10000006638E+02 0.  0.
    3000022    2    3    3    0    0 -0.31347200840E+02  0.32486928090E+00 -0.14343108199E+02  0.34475205515E+02  0.25000391281E+00 0.  0.
    1000022    2    1    0    0    0  0.59001590643E+02  0.23477156371E+01  0.17875973956E+02  0.62499999642E+02  0.10000002162E+02 0.  0.
    3000022    2    5    5    0    0  0.47555870790E+02 -0.21376522353E+00  0.10808040644E+02  0.48769691253E+02  0.25000034152E+00 0.  0.
        -13    1    4    4    0    0 -0.17597064324E+02  0.14995582140E+00 -0.81147512791E+01  0.19378838275E+02  0.10500000000E+00 0. -1.
         13    1    4    4    0    0 -0.13750136515E+02  0.17491345950E+00 -0.62283569200E+01  0.15096367240E+02  0.10500000000E+00 0.  1.
    3000001    1    5    5    0    0  0.11445719853E+02  0.25614808606E+01  0.70679333120E+01  0.13730308389E+02  0.10000000000E+01 0. -1.
        -13    1    6    6    0    0  0.34315420948E+02 -0.16763665194E+00  0.78365363360E+01  0.35199411126E+02  0.10500000000E+00 0. -1.
         13    1    6    6    0    0  0.13240449842E+02 -0.46128571583E-01  0.29715043084E+01  0.13570280127E+02  0.10500000000E+00 0.  1.
</event>
<event>
11    0  0.3396091E-009  0.9118800E+02  0.7816531E-02  0.1126479E+00
         25   -1    0    0    0    0  0.00000000000E+00  0.00000000000E+00  0.99999998245E-14  0.12500000000E+03  0.12500000000E+03 0.  0.
    3000001    1    3    3    0    0  0.99690529385E+01  0.77503796663E+01 -0.22865670274E+00  0.12668965441E+02  0.10000000000E+01 0. -1.
    1000022    2    1    0    0    0  0.51123095673E+02  0.29357849506E+02 -0.18187810386E+02  0.62499996792E+02  0.99999456811E+01 0.  0.
    3000022    2    3    3    0    0  0.41154042734E+02  0.21607469839E+02 -0.17959153683E+02  0.49831031351E+02  0.24999651190E+00 0.  0.
    1000022    2    1    0    0    0 -0.51123095673E+02 -0.29357849506E+02  0.18187810386E+02  0.62500003208E+02  0.99999857817E+01 0.  0.
    3000022    2    5    5    0    0 -0.85100912764E+01 -0.24696031378E+01  0.58303577917E+01  0.10610191385E+02  0.24999211723E+00 0.  0.
        -13    1    4    4    0    0  0.29844634027E+02  0.15707190594E+02 -0.13011573975E+02  0.36148721953E+02  0.10500000000E+00 0. -1.
         13    1    4    4    0    0  0.11309408707E+02  0.59002792450E+01 -0.49475797085E+01  0.13682309397E+02  0.10500000000E+00 0.  1.
    3000001    1    5    5    0    0 -0.42613004396E+02 -0.26888246368E+02  0.12357452594E+02  0.51889811823E+02  0.10000000000E+01 0.  1.
        -13    1    6    6    0    0 -0.28117992572E+01 -0.76189619186E+00  0.19272371381E+01  0.34945627561E+01  0.10500000000E+00 0. -1.
         13    1    6    6    0    0 -0.56982920192E+01 -0.17077069460E+01  0.39031206536E+01  0.71156286290E+01  0.10500000000E+00 0.  1.
</event>
<event>
11    0  0.3396091E-009  0.9118800E+02  0.7816531E-02  0.1126479E+00
         25   -1    0    0    0    0  0.00000000000E+00  0.00000000000E+00  0.99999998245E-14  0.12500000000E+03  0.12500000000E+03 0.  0.
    3000001    1    3    3    0    0  0.16450198016E+02 -0.66013514292E+01 -0.40219213184E+02  0.43963302476E+02  0.10000000000E+01 0. -1.
    1000022    2    1    0    0    0  0.20653517791E+02 -0.15122255477E+02 -0.56133765625E+02  0.62500000645E+02  0.10000001476E+02 0.  0.
    3000022    2    3    3    0    0  0.42033197754E+01 -0.85209040478E+01 -0.15914552440E+02  0.18536698169E+02  0.24999337780E+00 0.  0.
    1000022    2    1    0    0    0 -0.20653517791E+02  0.15122255477E+02  0.56133765625E+02  0.62499999355E+02  0.99999934163E+01 0.  0.
    3000022    2    5    5    0    0 -0.49911105104E+01  0.20019404006E+01  0.46956180077E+01  0.71435480617E+01  0.25000188328E+00 0.  0.
        -13    1    4    4    0    0  0.30727463012E+01 -0.62758398601E+01 -0.11649828169E+02  0.13585192570E+02  0.10500000000E+00 0.  1.
         13    1    4    4    0    0  0.11305734742E+01 -0.22450641877E+01 -0.42647242711E+01  0.49515055989E+01  0.10500000000E+00 0. -1.
    3000001    1    5    5    0    0 -0.15662407281E+02  0.13120315076E+02  0.51438147617E+02  0.55356451293E+02  0.10000000000E+01 0. -1.
        -13    1    6    6    0    0 -0.36320622937E+01  0.14764160704E+01  0.34629838492E+01  0.52321088538E+01  0.10500000000E+00 0. -1.
         13    1    6    6    0    0 -0.13590482167E+01  0.52552433014E+00  0.12326341585E+01  0.19114392079E+01  0.10500000000E+00 0.  1.
</event>
<event>
11    0  0.3396091E-009  0.9118800E+02  0.7816531E-02  0.1126479E+00
         25   -1    0    0    0    0  0.00000000000E+00  0.00000000000E+00  0.99999998245E-14  0.12500000000E+03  0.12500000000E+03 0.  0.
    3000001    1    3    3    0    0  0.49353290740E+01 -0.11343827034E+01 -0.87815873512E+01  0.10186293418E+02  0.10000000000E+01 0. -1.
    1000022    2    1    0    0    0  0.40422424073E+02 -0.21746209803E+02 -0.41223537130E+02  0.62500000360E+02  0.10000001134E+02 0.  0.
    3000022    2    3    3    0    0  0.35487094999E+02 -0.20611827100E+02 -0.32441949779E+02  0.52313706942E+02  0.25000135908E+00 0.  0.
    1000022    2    1    0    0    0 -0.40422424073E+02  0.21746209803E+02  0.41223537130E+02  0.62499999640E+02  0.99999966396E+01 0.  0.
    3000022    2    5    5    0    0 -0.53049554981E+01  0.61019544406E+01  0.41894855872E+01  0.91099228598E+01  0.25000838712E+00 0.  0.
        -13    1    4    4    0    0  0.25014178560E+02 -0.14543813622E+02 -0.22927556598E+02  0.36917685738E+02  0.10500000000E+00 0.  1.
         13    1    4    4    0    0  0.10472916438E+02 -0.60680134781E+01 -0.95143931812E+01  0.15396021204E+02  0.10500000000E+00 0. -1.
    3000001    1    5    5    0    0 -0.35117468575E+02  0.15644255363E+02  0.37034051543E+02  0.53390076781E+02  0.10000000000E+01 0.  1.
        -13    1    6    6    0    0 -0.32753605579E+01  0.38491691084E+01  0.26489366094E+01  0.57071866773E+01  0.10500000000E+00 0. -1.
         13    1    6    6    0    0 -0.20295949402E+01  0.22527853322E+01  0.15405489778E+01  0.34027361825E+01  0.10500000000E+00 0.  1.
</event>
<event>
11    0  0.3396091E-009  0.9118800E+02  0.7816531E-02  0.1126479E+00
         25   -1    0    0    0    0  0.00000000000E+00  0.00000000000E+00  0.99999998245E-14  0.12500000000E+03  0.12500000000E+03 0.  0.
    3000001    1    3    3    0    0 -0.35947577597E+02  0.31019153437E+02  0.28041878238E+02  0.55152181735E+02  0.10000000000E+01 0.  1.
    1000022    2    1    0    0    0 -0.42542803338E+02  0.34157965367E+02  0.28802660509E+02  0.62500000162E+02  0.10000002699E+02 0.  0.
    3000022    2    3    3    0    0 -0.65952257412E+01  0.31388119305E+01  0.76078227069E+00  0.73478184270E+01  0.25000612049E+00 0.  0.
    1000022    2    1    0    0    0  0.42542803338E+02 -0.34157965367E+02 -0.28802660509E+02  0.62499999838E+02  0.10000000677E+02 0.  0.
    3000022    2    5    5    0    0  0.25868224997E+02 -0.14619677841E+02 -0.14156163290E+02  0.32914426950E+02  0.24999546449E+00 0.  0.
        -13    1    4    4    0    0 -0.44114610239E+01  0.21230604491E+01  0.55840003412E+00  0.49286113291E+01  0.10500000000E+00 0.  1.
         13    1    4    4    0    0 -0.21837647174E+01  0.10157514814E+01  0.20238223657E+00  0.24192070979E+01  0.10500000000E+00 0. -1.
    3000001    1    5    5    0    0  0.16674578341E+02 -0.19538287526E+02 -0.14646497219E+02  0.29585572888E+02  0.10000000000E+01 0.  1.
        -13    1    6    6    0    0  0.74151290037E+01 -0.42006949497E+01 -0.41058701855E+01  0.94604001597E+01  0.10500000000E+00 0.  1.
         13    1    6    6    0    0  0.18453095993E+02 -0.10418982891E+02 -0.10050293104E+02  0.23454026791E+02  0.10500000000E+00 0. -1.
</event>
<event>
11    0  0.3396091E-009  0.9118800E+02  0.7816531E-02  0.1126479E+00
         25   -1    0    0    0    0  0.00000000000E+00  0.00000000000E+00  0.99999998245E-14  0.12500000000E+03  0.12500000000E+03 0.  0.
    3000001    1    3    3    0    0 -0.12465554210E+02  0.39518280264E+02  0.72631361695E+01  0.42081322030E+02  0.10000000000E+01 0. -1.
    1000022    2    1    0    0    0 -0.21940076828E+02  0.55446326649E+02  0.15829974892E+02  0.62500001171E+02  0.99999965624E+01 0.  0.
    3000022    2    3    3    0    0 -0.94745226175E+01  0.15928046386E+02  0.85668387222E+01  0.20418679142E+02  0.24998340120E+00 0.  0.
    1000022    2    1    0    0    0  0.21940076828E+02 -0.55446326649E+02 -0.15829974892E+02  0.62499998829E+02  0.99999819188E+01 0.  0.
    3000022    2    5    5    0    0  0.17595375227E+02 -0.49832818819E+02 -0.11371615582E+02  0.54058146550E+02  0.25001324677E+00 0.  0.
        -13    1    4    4    0    0 -0.29951332082E+01  0.51157658360E+01  0.27730683629E+01  0.65454423967E+01  0.10500000000E+00 0. -1.
         13    1    4    4    0    0 -0.64793894093E+01  0.10812280550E+02  0.57937703593E+01  0.13873236745E+02  0.10500000000E+00 0.  1.
    3000001    1    5    5    0    0  0.43447016009E+01 -0.56135078303E+01 -0.44583593097E+01  0.84418522787E+01  0.10000000000E+01 0. -1.
        -13    1    6    6    0    0  0.10591273491E+02 -0.29817548297E+02 -0.67868431867E+01  0.32362532751E+02  0.10500000000E+00 0. -1.
         13    1    6    6    0    0  0.70041017362E+01 -0.20015270522E+02 -0.45847723953E+01  0.21695613799E+02  0.10500000000E+00 0.  1.
</event>
<event>
11    0  0.3396091E-009  0.9118800E+02  0.7816531E-02  0.1126479E+00
         25   -1    0    0    0    0  0.00000000000E+00  0.00000000000E+00  0.99999998245E-14  0.12500000000E+03  0.12500000000E+03 0.  0.
    3000001    1    3    3    0    0 -0.10788288771E+02  0.32789259667E+02  0.20796432577E+02  0.40311466509E+02  0.10000000000E+01 0. -1.
    1000022    2    1    0    0    0 -0.12174296675E+02  0.47747522171E+02  0.37124257752E+02  0.62499999655E+02  0.10000003513E+02 0.  0.
    3000022    2    3    3    0    0 -0.13860079041E+01  0.14958262504E+02  0.16327825175E+02  0.22188533147E+02  0.24998642374E+00 0.  0.
    1000022    2    1    0    0    0  0.12174296675E+02 -0.47747522171E+02 -0.37124257752E+02  0.62500000345E+02  0.10000007820E+02 0.  0.
    3000022    2    5    5    0    0  0.12114046779E+02 -0.28186011475E+02 -0.23334413093E+02  0.38545540499E+02  0.24997147126E+00 0.  0.
        -13    1    4    4    0    0 -0.42718228113E+00  0.50366281774E+01  0.55494226124E+01  0.75071448921E+01  0.10500000000E+00 0. -1.
         13    1    4    4    0    0 -0.95882562298E+00  0.99216343261E+01  0.10778402563E+02  0.14681388255E+02  0.10500000000E+00 0.  1.
    3000001    1    5    5    0    0  0.60249896352E-01 -0.19561510696E+02 -0.13789844659E+02  0.23954459845E+02  0.10000000000E+01 0. -1.
        -13    1    6    6    0    0  0.80846946482E+01 -0.18697839260E+02 -0.15531968513E+02  0.25616880205E+02  0.10500000000E+00 0. -1.
         13    1    6    6    0    0  0.40293521307E+01 -0.94881722150E+01 -0.78024445799E+01  0.12928660294E+02  0.10500000000E+00 0.  1.
</event>
<event>
11    0  0.3396091E-009  0.9118800E+02  0.7816531E-02  0.1126479E+00
         25   -1    0    0    0    0  0.00000000000E+00  0.00000000000E+00  0.99999998245E-14  0.12500000000E+03  0.12500000000E+03 0.  0.
    3000001    1    3    3    0    0  0.44325245429E+02 -0.27200946197E+01  0.32495920646E+02  0.55037361453E+02  0.10000000000E+01 0. -1.
    1000022    2    1    0    0    0  0.47731275752E+02 -0.16999079957E+01  0.39052343806E+02  0.62499999063E+02  0.99999976998E+01 0.  0.
    3000022    2    3    3    0    0  0.34060303229E+01  0.10201866240E+01  0.65564231593E+01  0.74626376092E+01  0.24990424967E+00 0.  0.
    1000022    2    1    0    0    0 -0.47731275752E+02  0.16999079957E+01 -0.39052343806E+02  0.62500000937E+02  0.10000009417E+02 0.  0.
    3000022    2    5    5    0    0 -0.28090574766E+02 -0.32158267911E+01 -0.25834028528E+02  0.38299888489E+02  0.24999133889E+00 0.  0.
        -13    1    4    4    0    0  0.80092277907E+00  0.25717991384E+00  0.15580213619E+01  0.17737176693E+01  0.10500000000E+00 0.  1.
         13    1    4    4    0    0  0.26051075438E+01  0.76300671015E+00  0.49984017974E+01  0.56889199399E+01  0.10500000000E+00 0. -1.
    3000001    1    5    5    0    0 -0.19640700987E+02  0.49157347868E+01 -0.13218315278E+02  0.24200112448E+02  0.10000000000E+01 0.  1.
        -13    1    6    6    0    0 -0.13397503387E+02 -0.15677223920E+01 -0.12245545775E+02  0.18218541842E+02  0.10500000000E+00 0. -1.
         13    1    6    6    0    0 -0.14693071379E+02 -0.16481043991E+01 -0.13588482753E+02  0.20081346647E+02  0.10500000000E+00 0.  1.
</event>
<event>
11    0  0.3396091E-009  0.9118800E+02  0.7816531E-02  0.1126479E+00
         25   -1    0    0    0    0  0.00000000000E+00  0.00000000000E+00  0.99999998245E-14  0.12500000000E+03  0.12500000000E+03 0.  0.
    3000001    1    3    3    0    0  0.23543378403E+02 -0.38234973715E+01  0.57345431173E+00  0.23879670195E+02  0.10000000000E+01 0. -1.
    1000022    2    1    0    0    0  0.58283147322E+02 -0.16508878173E+02  0.11695368283E+02  0.62500000258E+02  0.10000003637E+02 0.  0.
    3000022    2    3    3    0    0  0.34739768919E+02 -0.12685380802E+02  0.11121913971E+02  0.38620330063E+02  0.24998638850E+00 0.  0.
    1000022    2    1    0    0    0 -0.58283147322E+02  0.16508878173E+02 -0.11695368283E+02  0.62499999742E+02  0.10000000410E+02 0.  0.
    3000022    2    5    5    0    0 -0.46375424128E+01  0.40340751140E+01 -0.25532805862E+01  0.66605029241E+01  0.24999159048E+00 0.  0.
        -13    1    4    4    0    0  0.13005073129E+02 -0.47736412422E+01  0.42240777438E+01  0.14483557422E+02  0.10500000000E+00 0.  1.
         13    1    4    4    0    0  0.21734695790E+02 -0.79117395598E+01  0.68978362270E+01  0.24136772642E+02  0.10500000000E+00 0. -1.
    3000001    1    5    5    0    0 -0.53645604909E+02  0.12474803059E+02 -0.91420876964E+01  0.55839496818E+02  0.10000000000E+01 0. -1.
        -13    1    6    6    0    0 -0.16127526436E+01  0.14628163337E+01 -0.86694602443E+00  0.23459375791E+01  0.10500000000E+00 0.  1.
         13    1    6    6    0    0 -0.30247897691E+01  0.25712587802E+01 -0.16863345617E+01  0.43145653450E+01  0.10500000000E+00 0. -1.
</event>
<event>
11    0  0.3396091E-009  0.9118800E+02  0.7816531E-02  0.1126479E+00
         25   -1    0    0    0    0  0.00000000000E+00  0.00000000000E+00  0.99999998245E-14  0.12500000000E+03  0.12500000000E+03 0.  0.
    3000001    1    3    3    0    0  0.19654918845E+02  0.68971400424E+01  0.18312172452E+02  0.27752874364E+02  0.10000000000E+01 0. -1.
    1000022    2    1    0    0    0  0.36556340896E+02  0.11856291147E+02  0.48262949087E+02  0.62500000361E+02  0.10000004553E+02 0.  0.
    3000022    2    3    3    0    0  0.16901422052E+02  0.49591511042E+01  0.29950776634E+02  0.34747125997E+02  0.24999393615E+00 0.  0.
    1000022    2    1    0    0    0 -0.36556340896E+02 -0.11856291147E+02 -0.48262949087E+02  0.62499999639E+02  0.10000000046E+02 0.  0.
    3000022    2    5    5    0    0 -0.11830245406E+02 -0.52776736402E+01 -0.23739171400E+02  0.27044764786E+02  0.24999631240E+00 0.  0.
        -13    1    4    4    0    0  0.61699053435E+01  0.17815121357E+01  0.11022878404E+02  0.12757601293E+02  0.10500000000E+00 0.  1.
         13    1    4    4    0    0  0.10731516708E+02  0.31776389686E+01  0.18927898231E+02  0.21989524704E+02  0.10500000000E+00 0. -1.
    3000001    1    5    5    0    0 -0.24726095490E+02 -0.65786175064E+01 -0.24523777686E+02  0.35455234853E+02  0.10000000000E+01 0.  1.
        -13    1    6    6    0    0 -0.34641331229E+01 -0.15044373052E+01 -0.69684996167E+01  0.79268254558E+01  0.10500000000E+00 0.  1.
         13    1    6    6    0    0 -0.83661122834E+01 -0.37732363350E+01 -0.16770671784E+02  0.19117939331E+02  0.10500000000E+00 0. -1.
</event>
<event>
11    0  0.3396091E-009  0.9118800E+02  0.7816531E-02  0.1126479E+00
         25   -1    0    0    0    0  0.00000000000E+00  0.00000000000E+00  0.99999998245E-14  0.12500000000E+03  0.12500000000E+03 0.  0.
    3000001    1    3    3    0    0 -0.10569319994E+02 -0.13621692078E+02 -0.15534183866E+02  0.23228686760E+02  0.10000000000E+01 0. -1.
    1000022    2    1    0    0    0 -0.28923405748E+02 -0.44400311046E+02 -0.31595878171E+02  0.62500004262E+02  0.99999997155E+01 0.  0.
    3000022    2    3    3    0    0 -0.18354085754E+02 -0.30778618968E+02 -0.16061694305E+02  0.39271317502E+02  0.25000994786E+00 0.  0.
    1000022    2    1    0    0    0  0.28923405748E+02  0.44400311046E+02  0.31595878171E+02  0.62499995738E+02  0.99999464354E+01 0.  0.
    3000022    2    5    5    0    0  0.24456713558E+02  0.41109725019E+02  0.30572848934E+02  0.56770607956E+02  0.25001324377E+00 0.  0.
        -13    1    4    4    0    0 -0.12376803049E+02 -0.20738573761E+02 -0.10880755670E+02  0.26489159373E+02  0.10500000000E+00 0.  1.
         13    1    4    4    0    0 -0.59772827046E+01 -0.10040045207E+02 -0.51809386352E+01  0.12782158129E+02  0.10500000000E+00 0. -1.
    3000001    1    5    5    0    0  0.44666921905E+01  0.32905860274E+01  0.10230292374E+01  0.57293877813E+01  0.10000000000E+01 0.  1.
        -13    1    6    6    0    0  0.11399702727E+02  0.19282554885E+02  0.14349032575E+02  0.26602178595E+02  0.10500000000E+00 0. -1.
         13    1    6    6    0    0  0.13057010830E+02  0.21827170134E+02  0.16223816359E+02  0.30168429361E+02  0.10500000000E+00 0.  1.
</event>
<event>
11    0  0.3396091E-009  0.9118800E+02  0.7816531E-02  0.1126479E+00
         25   -1    0    0    0    0  0.00000000000E+00  0.00000000000E+00  0.99999998245E-14  0.12500000000E+03  0.12500000000E+03 0.  0.
    3000001    1    3    3    0    0  0.42983848796E+02 -0.30148582063E+02 -0.32097882573E+02  0.61545286768E+02  0.10000000000E+01 0. -1.
    1000022    2    1    0    0    0  0.43307701383E+02 -0.29452522902E+02 -0.32607389931E+02  0.62500000486E+02  0.10000003915E+02 0.  0.
    3000022    2    3    3    0    0  0.32385258692E+00  0.69605916143E+00 -0.50950735868E+00  0.95471371808E+00  0.25000336133E+00 0.  0.
    1000022    2    1    0    0    0 -0.43307701383E+02  0.29452522902E+02  0.32607389931E+02  0.62499999514E+02  0.99999978353E+01 0.  0.
    3000022    2    5    5    0    0 -0.33025616087E+02  0.22241114018E+02  0.29412178246E+02  0.49502496913E+02  0.25000165700E+00 0.  0.
        -13    1    4    4    0    0  0.89075102391E-01  0.31598839381E+00 -0.17311923008E+00  0.38571791080E+00  0.10500000000E+00 0.  1.
         13    1    4    4    0    0  0.23477748453E+00  0.38007076762E+00 -0.33638812859E+00  0.56899580728E+00  0.10500000000E+00 0. -1.
    3000001    1    5    5    0    0 -0.10282085296E+02  0.72114088838E+01  0.31952116858E+01  0.12997502600E+02  0.10000000000E+01 0. -1.
        -13    1    6    6    0    0 -0.16996527917E+02  0.11368715825E+02  0.15078602942E+02  0.25406789495E+02  0.10500000000E+00 0.  1.
         13    1    6    6    0    0 -0.16029088169E+02  0.10872398193E+02  0.14333575304E+02  0.24095707418E+02  0.10500000000E+00 0. -1.
</event>
<event>
11    0  0.3396091E-009  0.9118800E+02  0.7816531E-02  0.1126479E+00
         25   -1    0    0    0    0  0.00000000000E+00  0.00000000000E+00  0.99999998245E-14  0.12500000000E+03  0.12500000000E+03 0.  0.
    3000001    1    3    3    0    0  0.22183161773E+02  0.20627841241E+02  0.52956424258E+02  0.61016254971E+02  0.10000000000E+01 0.  1.
    1000022    2    1    0    0    0  0.21531092350E+02  0.21794349403E+02  0.53550614772E+02  0.62499999839E+02  0.10000001682E+02 0.  0.
    3000022    2    3    3    0    0 -0.65206942225E+00  0.11665081624E+01  0.59419051423E+00  0.14837448677E+01  0.25000128172E+00 0.  0.
    1000022    2    1    0    0    0 -0.21531092350E+02 -0.21794349403E+02 -0.53550614772E+02  0.62500000161E+02  0.10000003700E+02 0.  0.
    3000022    2    5    5    0    0 -0.18606765291E+02 -0.12544031218E+02 -0.36018161304E+02  0.42437423062E+02  0.24999717902E+00 0.  0.
        -13    1    4    4    0    0 -0.37134681402E+00  0.75821423539E+00  0.41400635502E+00  0.94615725174E+00  0.10500000000E+00 0.  1.
         13    1    4    4    0    0 -0.28072260823E+00  0.40829392701E+00  0.18018415921E+00  0.53758761596E+00  0.10500000000E+00 0. -1.
    3000001    1    5    5    0    0 -0.29243270593E+01 -0.92503181853E+01 -0.17532453468E+02  0.20062577100E+02  0.10000000000E+01 0.  1.
        -13    1    6    6    0    0 -0.67690442663E+01 -0.44930375577E+01 -0.13042804558E+02  0.15366623654E+02  0.10500000000E+00 0.  1.
         13    1    6    6    0    0 -0.11837721025E+02 -0.80509936599E+01 -0.22975356746E+02  0.27070799408E+02  0.10500000000E+00 0. -1.
</event>
<event>
11    0  0.3396091E-009  0.9118800E+02  0.7816531E-02  0.1126479E+00
         25   -1    0    0    0    0  0.00000000000E+00  0.00000000000E+00  0.99999998245E-14  0.12500000000E+03  0.12500000000E+03 0.  0.
    3000001    1    3    3    0    0  0.29188681825E+01  0.11069670967E+02  0.42798026882E+01  0.12262712499E+02  0.10000000000E+01 0.  1.
    1000022    2    1    0    0    0 -0.32469676428E+01  0.59795116392E+02  0.14840862250E+02  0.62499999874E+02  0.10000002433E+02 0.  0.
    3000022    2    3    3    0    0 -0.61658358253E+01  0.48725445426E+02  0.10561059562E+02  0.50237287375E+02  0.25000077867E+00 0.  0.
    1000022    2    1    0    0    0  0.32469676428E+01 -0.59795116392E+02 -0.14840862250E+02  0.62500000126E+02  0.10000004008E+02 0.  0.
    3000022    2    5    5    0    0  0.63567953872E+01 -0.34634014045E+02 -0.66294329227E+01  0.35832047983E+02  0.25001053774E+00 0.  0.
        -13    1    4    4    0    0 -0.30953177662E+01  0.24086556448E+02  0.51719274773E+01  0.24829479503E+02  0.10500000000E+00 0.  1.
         13    1    4    4    0    0 -0.30705180591E+01  0.24638888978E+02  0.53891320843E+01  0.25407807872E+02  0.10500000000E+00 0. -1.
    3000001    1    5    5    0    0 -0.31098277444E+01 -0.25161102347E+02 -0.82114293271E+01  0.26667952143E+02  0.10000000000E+01 0. -1.
        -13    1    6    6    0    0  0.40195774862E+01 -0.22031752648E+02 -0.41617106076E+01  0.22779069078E+02  0.10500000000E+00 0. -1.
         13    1    6    6    0    0  0.23372179010E+01 -0.12602261398E+02 -0.24677223151E+01  0.13052978904E+02  0.10500000000E+00 0.  1.
</event>
<event>
11    0  0.3396091E-009  0.9118800E+02  0.7816531E-02  0.1126479E+00
         25   -1    0    0    0    0  0.00000000000E+00  0.00000000000E+00  0.99999998245E-14  0.12500000000E+03  0.12500000000E+03 0.  0.
    3000001    1    3    3    0    0 -0.49474157593E+01  0.40106904705E+01 -0.94582776608E+01  0.11446465701E+02  0.10000000000E+01 0. -1.
    1000022    2    1    0    0    0 -0.39513861279E+02  0.29370961158E+02 -0.37178648025E+02  0.62500005399E+02  0.10000010671E+02 0.  0.
    3000022    2    3    3    0    0 -0.34566445519E+02  0.25360270688E+02 -0.27720370365E+02  0.51053539698E+02  0.24999467191E+00 0.  0.
    1000022    2    1    0    0    0  0.39513861279E+02 -0.29370961158E+02  0.37178648025E+02  0.62499994601E+02  0.99999431782E+01 0.  0.
    3000022    2    5    5    0    0  0.23204742100E+02 -0.21846727819E+02  0.27368641230E+02  0.42010053433E+02  0.24998867255E+00 0.  0.
        -13    1    4    4    0    0 -0.18974717840E+02  0.13839487222E+02 -0.15172172784E+02  0.27960278534E+02  0.10500000000E+00 0.  1.
         13    1    4    4    0    0 -0.15591727679E+02  0.11520783466E+02 -0.12548197581E+02  0.23093261164E+02  0.10500000000E+00 0. -1.
    3000001    1    5    5    0    0  0.16309119179E+02 -0.75242333397E+01  0.98100067953E+01  0.20489941168E+02  0.10000000000E+01 0. -1.
        -13    1    6    6    0    0  0.13060115535E+02 -0.12356065897E+02  0.15503804548E+02  0.23740639476E+02  0.10500000000E+00 0. -1.
         13    1    6    6    0    0  0.10144626565E+02 -0.94906619216E+01  0.11864836682E+02  0.18269413957E+02  0.10500000000E+00 0.  1.
</event>
<event>
11    0  0.3396091E-009  0.9118800E+02  0.7816531E-02  0.1126479E+00
         25   -1    0    0    0    0  0.00000000000E+00  0.00000000000E+00  0.99999998245E-14  0.12500000000E+03  0.12500000000E+03 0.  0.
    3000001    1    3    3    0    0 -0.32834861651E+02 -0.73578922119E+01  0.28160872177E+02  0.43889650708E+02  0.10000000000E+01 0. -1.
    1000022    2    1    0    0    0 -0.49733886741E+02 -0.65666651985E+01  0.35911966594E+02  0.62499998776E+02  0.99999960071E+01 0.  0.
    3000022    2    3    3    0    0 -0.16899025090E+02  0.79122701331E+00  0.77510944171E+01  0.18610348069E+02  0.25000278276E+00 0.  0.
    1000022    2    1    0    0    0  0.49733886741E+02  0.65666651985E+01 -0.35911966594E+02  0.62500001224E+02  0.10000011303E+02 0.  0.
    3000022    2    5    5    0    0  0.37098566962E+02  0.27163571960E+01 -0.30822778183E+02  0.48309299468E+02  0.24998617140E+00 0.  0.
        -13    1    4    4    0    0 -0.12337948408E+02  0.54903634866E+00  0.56340618441E+01  0.13574980283E+02  0.10500000000E+00 0. -1.
         13    1    4    4    0    0 -0.45610766827E+01  0.24219066465E+00  0.21170325730E+01  0.50353677859E+01  0.10500000000E+00 0.  1.
    3000001    1    5    5    0    0  0.12635319779E+02  0.38503080025E+01 -0.50891884110E+01  0.14190701755E+02  0.10000000000E+01 0. -1.
        -13    1    6    6    0    0  0.13147045387E+02  0.92820852529E+00 -0.10861719069E+02  0.17079061439E+02  0.10500000000E+00 0. -1.
         13    1    6    6    0    0  0.23951521575E+02  0.17881486707E+01 -0.19961059114E+02  0.31230238030E+02  0.10500000000E+00 0.  1.
</event>
<event>
11    0  0.3396091E-009  0.9118800E+02  0.7816531E-02  0.1126479E+00
         25   -1    0    0    0    0  0.00000000000E+00  0.00000000000E+00  0.99999998245E-14  0.12500000000E+03  0.12500000000E+03 0.  0.
    3000001    1    3    3    0    0 -0.11412069491E+02  0.89531815219E+01  0.26644182739E+02  0.30353043723E+02  0.10000000000E+01 0. -1.
    1000022    2    1    0    0    0 -0.21610339604E+02  0.27568557484E+02  0.50786000292E+02  0.62499999837E+02  0.10000000724E+02 0.  0.
    3000022    2    3    3    0    0 -0.10198270113E+02  0.18615375963E+02  0.24141817553E+02  0.32146956114E+02  0.24999427878E+00 0.  0.
    1000022    2    1    0    0    0  0.21610339604E+02 -0.27568557484E+02 -0.50786000292E+02  0.62500000163E+02  0.10000002757E+02 0.  0.
    3000022    2    5    5    0    0  0.59585274001E+00  0.73276727560E+00 -0.26838164097E+01  0.28561091466E+01  0.25000113707E+00 0.  0.
        -13    1    4    4    0    0 -0.45730022178E+01  0.82161811002E+01  0.10663528767E+02  0.14217589525E+02  0.10500000000E+00 0. -1.
         13    1    4    4    0    0 -0.56252678951E+01  0.10399194862E+02  0.13478288786E+02  0.17929366589E+02  0.10500000000E+00 0.  1.
    3000001    1    5    5    0    0  0.21014486864E+02 -0.28301324760E+02 -0.48102183882E+02  0.59643891016E+02  0.10000000000E+01 0. -1.
        -13    1    6    6    0    0  0.25554586297E+00  0.29466335356E+00 -0.13080893271E+01  0.13690335524E+01  0.10500000000E+00 0. -1.
         13    1    6    6    0    0  0.34030687704E+00  0.43810392204E+00 -0.13757270826E+01  0.14870755942E+01  0.10500000000E+00 0.  1.
</event>
<event>
11    0  0.3396091E-009  0.9118800E+02  0.7816531E-02  0.1126479E+00
         25   -1    0    0    0    0  0.00000000000E+00  0.00000000000E+00  0.99999998245E-14  0.12500000000E+03  0.12500000000E+03 0.  0.
    3000001    1    3    3    0    0  0.16247681441E+02 -0.18353852939E+01  0.13748709374E-01  0.16381574418E+02  0.10000000000E+01 0. -1.
    1000022    2    1    0    0    0  0.57783875748E+02 -0.18730305193E+02  0.10791174575E+02  0.62499999803E+02  0.99999948824E+01 0.  0.
    3000022    2    3    3    0    0  0.41536194306E+02 -0.16894919899E+02  0.10777425866E+02  0.46118425385E+02  0.24999167561E+00 0.  0.
    1000022    2    1    0    0    0 -0.57783875748E+02  0.18730305193E+02 -0.10791174575E+02  0.62500000197E+02  0.99999973421E+01 0.  0.
    3000022    2    5    5    0    0 -0.23214847564E+01 -0.75834428957E+00  0.78203446780E+00  0.25765203189E+01  0.25000301835E+00 0.  0.
        -13    1    4    4    0    0  0.23235677692E+02 -0.93934427119E+01  0.60638865797E+01  0.25785950230E+02  0.10500000000E+00 0.  1.
         13    1    4    4    0    0  0.18300516614E+02 -0.75014771872E+01  0.47135392864E+01  0.20332475155E+02  0.10500000000E+00 0. -1.
    3000001    1    5    5    0    0 -0.55462390991E+02  0.19488649483E+02 -0.11573209043E+02  0.59923479878E+02  0.10000000000E+01 0.  1.
        -13    1    6    6    0    0 -0.90093793541E+00 -0.31781663787E+00  0.36761726066E+00  0.10290111900E+01  0.10500000000E+00 0.  1.
         13    1    6    6    0    0 -0.14205468210E+01 -0.44052765170E+00  0.41441720714E+00  0.15475091289E+01  0.10500000000E+00 0. -1.
</event>
<event>
11    0  0.3396091E-009  0.9118800E+02  0.7816531E-02  0.1126479E+00
         25   -1    0    0    0    0  0.00000000000E+00  0.00000000000E+00  0.99999998245E-14  0.12500000000E+03  0.12500000000E+03 0.  0.
    3000001    1    3    3    0    0 -0.71529681639E+01 -0.28266513901E+02  0.34237892588E+02  0.44982152578E+02  0.10000000000E+01 0. -1.
    1000022    2    1    0    0    0 -0.78384130281E+01 -0.43237399667E+02  0.43305161326E+02  0.62500004085E+02  0.10000003217E+02 0.  0.
    3000022    2    3    3    0    0 -0.68544486415E+00 -0.14970885766E+02  0.90672687379E+01  0.17517851507E+02  0.25000753115E+00 0.  0.
    1000022    2    1    0    0    0  0.78384130281E+01  0.43237399667E+02 -0.43305161326E+02  0.62499995915E+02  0.99999521598E+01 0.  0.
    3000022    2    5    5    0    0  0.94628619265E+01  0.25211343723E+02 -0.25267954945E+02  0.36928168817E+02  0.24999384031E+00 0.  0.
        -13    1    4    4    0    0 -0.52731420451E+00 -0.11537771636E+02  0.69817904677E+01  0.13496468343E+02  0.10500000000E+00 0.  1.
         13    1    4    4    0    0 -0.15813065964E+00 -0.34331141301E+01  0.20854782702E+01  0.40213831639E+01  0.10500000000E+00 0. -1.
    3000001    1    5    5    0    0 -0.16244488984E+01  0.18026055944E+02 -0.18037206381E+02  0.25571827098E+02  0.10000000000E+01 0. -1.
        -13    1    6    6    0    0  0.32535687226E+01  0.86931630987E+01 -0.87852441086E+01  0.12780779833E+02  0.10500000000E+00 0. -1.
         13    1    6    6    0    0  0.62092932039E+01  0.16518180625E+02 -0.16482710836E+02  0.24147388984E+02  0.10500000000E+00 0.  1.
</event>
<event>
11    0  0.3396091E-009  0.9118800E+02  0.7816531E-02  0.1126479E+00
         25   -1    0    0    0    0  0.00000000000E+00  0.00000000000E+00  0.99999998245E-14  0.12500000000E+03  0.12500000000E+03 0.  0.
    3000001    1    3    3    0    0 -0.16394668793E+01  0.43060424504E+00  0.31761119165E+01  0.37364366140E+01  0.10000000000E+01 0. -1.
    1000022    2    1    0    0    0 -0.48838983035E+01 -0.20682733049E+02  0.57919100225E+02  0.62500002021E+02  0.10000008640E+02 0.  0.
    3000022    2    3    3    0    0 -0.32444314242E+01 -0.21113337294E+02  0.54742988308E+02  0.58763565407E+02  0.25000701810E+00 0.  0.
    1000022    2    1    0    0    0  0.48838983035E+01  0.20682733049E+02 -0.57919100225E+02  0.62499997979E+02  0.99999833734E+01 0.  0.
    3000022    2    5    5    0    0  0.76059514538E+01  0.13246399502E+02 -0.41997747868E+02  0.44689942088E+02  0.25000104279E+00 0.  0.
        -13    1    4    4    0    0 -0.12946385892E+01 -0.85262731648E+01  0.21932486929E+02  0.23567317010E+02  0.10500000000E+00 0. -1.
         13    1    4    4    0    0 -0.19497928350E+01 -0.12587064129E+02  0.32810501380E+02  0.35196248398E+02  0.10500000000E+00 0.  1.
    3000001    1    5    5    0    0 -0.27220531503E+01  0.74363335471E+01 -0.15921352357E+02  0.17810055891E+02  0.10000000000E+01 0. -1.
        -13    1    6    6    0    0  0.33372080665E+01  0.59353909447E+01 -0.18795978112E+02  0.19991639291E+02  0.10500000000E+00 0.  1.
         13    1    6    6    0    0  0.42687433872E+01  0.73110085573E+01 -0.23201769756E+02  0.24698302797E+02  0.10500000000E+00 0. -1.
</event>
<event>
11    0  0.3396091E-009  0.9118800E+02  0.7816531E-02  0.1126479E+00
         25   -1    0    0    0    0  0.00000000000E+00  0.00000000000E+00  0.99999998245E-14  0.12500000000E+03  0.12500000000E+03 0.  0.
    3000001    1    3    3    0    0  0.58754494173E+01 -0.54770467985E+01 -0.42676106700E+01  0.91504889661E+01  0.10000000000E+01 0.  1.
    1000022    2    1    0    0    0  0.51532060274E+02 -0.17092983128E+02 -0.29300625408E+02  0.62500000852E+02  0.10000007446E+02 0.  0.
    3000022    2    3    3    0    0  0.45656610857E+02 -0.11615936330E+02 -0.25033014738E+02  0.53349511886E+02  0.24999973865E+00 0.  0.
    1000022    2    1    0    0    0 -0.51532060274E+02  0.17092983128E+02  0.29300625408E+02  0.62499999148E+02  0.99999967942E+01 0.  0.
    3000022    2    5    5    0    0 -0.21044833500E+02  0.20035149751E+01  0.10182255127E+02  0.23465717706E+02  0.24999734414E+00 0.  0.
        -13    1    4    4    0    0  0.26125907144E+02 -0.65811203266E+01 -0.14299545345E+02  0.30501839140E+02  0.10500000000E+00 0.  1.
         13    1    4    4    0    0  0.19530703712E+02 -0.50348160030E+01 -0.10733469393E+02  0.22847672746E+02  0.10500000000E+00 0. -1.
    3000001    1    5    5    0    0 -0.30487226774E+02  0.15089468153E+02  0.19118370280E+02  0.39034281442E+02  0.10000000000E+01 0. -1.
        -13    1    6    6    0    0 -0.13270955501E+02  0.12040044944E+01  0.64111343932E+01  0.14787885445E+02  0.10500000000E+00 0.  1.
         13    1    6    6    0    0 -0.77738779993E+01  0.79951048076E+00  0.37711207343E+01  0.86778322610E+01  0.10500000000E+00 0. -1.
</event>
<event>
11    0  0.3396091E-009  0.9118800E+02  0.7816531E-02  0.1126479E+00
         25   -1    0    0    0    0  0.00000000000E+00  0.00000000000E+00  0.99999998245E-14  0.12500000000E+03  0.12500000000E+03 0.  0.
    3000001    1    3    3    0    0 -0.48388449933E+01 -0.19181230132E+02  0.18684585886E+02  0.27229538372E+02  0.10000000000E+01 0.  1.
    1000022    2    1    0    0    0 -0.69023946758E+01 -0.50522193856E+02  0.34729168020E+02  0.62499998543E+02  0.99999791109E+01 0.  0.
    3000022    2    3    3    0    0 -0.20635496825E+01 -0.31340963725E+02  0.16044582134E+02  0.35270460171E+02  0.25000067005E+00 0.  0.
    1000022    2    1    0    0    0  0.69023946758E+01  0.50522193856E+02 -0.34729168020E+02  0.62500001457E+02  0.99999973243E+01 0.  0.
    3000022    2    5    5    0    0  0.91701938768E+01  0.32891022050E+02 -0.23460029363E+02  0.41428821648E+02  0.24999641562E+00 0.  0.
        -13    1    4    4    0    0 -0.76242237172E+00 -0.11056837653E+02  0.56106438042E+01  0.12422773268E+02  0.10500000000E+00 0.  1.
         13    1    4    4    0    0 -0.13011273108E+01 -0.20284126071E+02  0.10433938330E+02  0.22847686903E+02  0.10500000000E+00 0. -1.
    3000001    1    5    5    0    0 -0.22677992010E+01  0.17631171806E+02 -0.11269138657E+02  0.21071179809E+02  0.10000000000E+01 0.  1.
        -13    1    6    6    0    0  0.34590059021E+01  0.12547275310E+02 -0.90004840652E+01  0.15824619361E+02  0.10500000000E+00 0.  1.
         13    1    6    6    0    0  0.57111879747E+01  0.20343746740E+02 -0.14459545298E+02  0.25604202287E+02  0.10500000000E+00 0. -1.
</event>
<event>
11    0  0.3396091E-009  0.9118800E+02  0.7816531E-02  0.1126479E+00
         25   -1    0    0    0    0  0.00000000000E+00  0.00000000000E+00  0.99999998245E-14  0.12500000000E+03  0.12500000000E+03 0.  0.
    3000001    1    3    3    0    0  0.13474490424E+02  0.12393690010E+02  0.27076813227E+01  0.18533671584E+02  0.10000000000E+01 0. -1.
    1000022    2    1    0    0    0  0.50807307341E+02  0.34851718928E+02 -0.31976733208E+01  0.62499999589E+02  0.10000002127E+02 0.  0.
    3000022    2    3    3    0    0  0.37332816917E+02  0.22458028917E+02 -0.59053546435E+01  0.43966328005E+02  0.25000590614E+00 0.  0.
    1000022    2    1    0    0    0 -0.50807307341E+02 -0.34851718928E+02  0.31976733208E+01  0.62500000411E+02  0.10000007262E+02 0.  0.
    3000022    2    5    5    0    0 -0.47524657291E+02 -0.34562178822E+02  0.18236299962E+01  0.58792222117E+02  0.24999897103E+00 0.  0.
        -13    1    4    4    0    0  0.10930470427E+02  0.65937489685E+01 -0.16890267851E+01  0.12876977351E+02  0.10500000000E+00 0. -1.
         13    1    4    4    0    0  0.26402346490E+02  0.15864279949E+02 -0.42163278584E+01  0.31089350654E+02  0.10500000000E+00 0.  1.
    3000001    1    5    5    0    0 -0.32826500497E+01 -0.28954010580E+00  0.13740433246E+01  0.37077782942E+01  0.10000000000E+01 0. -1.
        -13    1    6    6    0    0 -0.13331487677E+02 -0.96471944014E+01  0.50274491244E+00  0.16463921190E+02  0.10500000000E+00 0.  1.
         13    1    6    6    0    0 -0.34193169614E+02 -0.24914984420E+02  0.13208850837E+01  0.42328300927E+02  0.10500000000E+00 0. -1.
</event>
<event>
11    0  0.3396091E-009  0.9118800E+02  0.7816531E-02  0.1126479E+00
         25   -1    0    0    0    0  0.00000000000E+00  0.00000000000E+00  0.99999998245E-14  0.12500000000E+03  0.12500000000E+03 0.  0.
    3000001    1    3    3    0    0  0.40484946963E+01  0.31617981537E+02  0.19666256325E+02  0.37467969035E+02  0.10000000000E+01 0.  1.
    1000022    2    1    0    0    0  0.13856935952E+02  0.52707815200E+02  0.28915768305E+02  0.62500000169E+02  0.99999953670E+01 0.  0.
    3000022    2    3    3    0    0  0.98084412557E+01  0.21089833663E+02  0.92495119799E+01  0.25032031134E+02  0.25001404726E+00 0.  0.
    1000022    2    1    0    0    0 -0.13856935952E+02 -0.52707815200E+02 -0.28915768305E+02  0.62499999831E+02  0.99999932488E+01 0.  0.
    3000022    2    5    5    0    0 -0.97430980669E+01 -0.44528353858E+02 -0.27348698995E+02  0.53157465045E+02  0.24999211806E+00 0.  0.
        -13    1    4    4    0    0  0.70047595213E+01  0.15034975204E+02  0.66393870394E+01  0.17866438386E+02  0.10500000000E+00 0. -1.
         13    1    4    4    0    0  0.28036817344E+01  0.60548584591E+01  0.26101249406E+01  0.71655927482E+01  0.10500000000E+00 0.  1.
    3000001    1    5    5    0    0 -0.41138378851E+01 -0.81794613427E+01 -0.15670693103E+01  0.93425347859E+01  0.10000000000E+01 0.  1.
        -13    1    6    6    0    0 -0.36113925901E+01 -0.16236192830E+02 -0.99943667309E+01  0.19405012378E+02  0.10500000000E+00 0. -1.
         13    1    6    6    0    0 -0.61317054768E+01 -0.28292161027E+02 -0.17354332264E+02  0.33752452666E+02  0.10500000000E+00 0.  1.
</event>
<event>
11    0  0.3396091E-009  0.9118800E+02  0.7816531E-02  0.1126479E+00
         25   -1    0    0    0    0  0.00000000000E+00  0.00000000000E+00  0.99999998245E-14  0.12500000000E+03  0.12500000000E+03 0.  0.
    3000001    1    3    3    0    0 -0.13300164374E+02 -0.62201595890E+01  0.19195772533E+02  0.24188064016E+02  0.10000000000E+01 0.  1.
    1000022    2    1    0    0    0 -0.40699626504E+02 -0.22079051899E+02  0.40771385023E+02  0.62500001388E+02  0.10000010327E+02 0.  0.
    3000022    2    3    3    0    0 -0.27399462130E+02 -0.15858892310E+02  0.21575612490E+02  0.38311937373E+02  0.25000124107E+00 0.  0.
    1000022    2    1    0    0    0  0.40699626504E+02  0.22079051899E+02 -0.40771385023E+02  0.62499998612E+02  0.99999929743E+01 0.  0.
    3000022    2    5    5    0    0  0.33870781864E+02  0.17634353361E+02 -0.37902920547E+02  0.53804220748E+02  0.25000355888E+00 0.  0.
        -13    1    4    4    0    0 -0.91568635879E+01 -0.53305495870E+01  0.72778687807E+01  0.12854622074E+02  0.10500000000E+00 0. -1.
         13    1    4    4    0    0 -0.18242598542E+02 -0.10528342723E+02  0.14297743709E+02  0.25457315299E+02  0.10500000000E+00 0.  1.
    3000001    1    5    5    0    0  0.68288446398E+01  0.44446985375E+01 -0.28684644760E+01  0.86957778637E+01  0.10000000000E+01 0.  1.
        -13    1    6    6    0    0  0.19176141563E+02  0.99253656368E+01 -0.21374892623E+02  0.30383126039E+02  0.10500000000E+00 0. -1.
         13    1    6    6    0    0  0.14694640301E+02  0.77089877247E+01 -0.16528027923E+02  0.23421094709E+02  0.10500000000E+00 0.  1.
</event>
<event>
11    0  0.3396091E-009  0.9118800E+02  0.7816531E-02  0.1126479E+00
         25   -1    0    0    0    0  0.00000000000E+00  0.00000000000E+00  0.99999998245E-14  0.12500000000E+03  0.12500000000E+03 0.  0.
    3000001    1    3    3    0    0  0.11658846635E+01  0.46862890928E+02  0.29436797373E+02  0.55362576464E+02  0.10000000000E+01 0. -1.
    1000022    2    1    0    0    0  0.83788485410E+00  0.53975202914E+02  0.29870150618E+02  0.62500003372E+02  0.99999971463E+01 0.  0.
    3000022    2    3    3    0    0 -0.32799980936E+00  0.71123119862E+01  0.43335324590E+00  0.71374269085E+01  0.25000434684E+00 0.  0.
    1000022    2    1    0    0    0 -0.83788485410E+00 -0.53975202914E+02 -0.29870150618E+02  0.62499996628E+02  0.99999549908E+01 0.  0.
    3000022    2    5    5    0    0 -0.50664545396E+01 -0.24334921341E+02 -0.15281267480E+02  0.29179393324E+02  0.25000130167E+00 0.  0.
        -13    1    4    4    0    0 -0.27299862123E+00  0.53153872171E+01  0.32297693635E+00  0.53332174732E+01  0.10500000000E+00 0. -1.
         13    1    4    4    0    0 -0.55001188130E-01  0.17969247691E+01  0.11037630955E+00  0.18042094353E+01  0.10500000000E+00 0.  1.
    3000001    1    5    5    0    0  0.42285696855E+01 -0.29640281573E+02 -0.14588883138E+02  0.33320603304E+02  0.10000000000E+01 0. -1.
        -13    1    6    6    0    0 -0.14703230049E+01 -0.71741463282E+01 -0.44578536311E+01  0.85740136035E+01  0.10500000000E+00 0. -1.
         13    1    6    6    0    0 -0.35961315347E+01 -0.17160775013E+02 -0.10823413849E+02  0.20605379720E+02  0.10500000000E+00 0.  1.
</event>
<event>
11    0  0.3396091E-009  0.9118800E+02  0.7816531E-02  0.1126479E+00
         25   -1    0    0    0    0  0.00000000000E+00  0.00000000000E+00  0.99999998245E-14  0.12500000000E+03  0.12500000000E+03 0.  0.
    3000001    1    3    3    0    0  0.26097807576E+02 -0.17204622799E+02 -0.28060101016E+02  0.42017423469E+02  0.10000000000E+01 0.  1.
    1000022    2    1    0    0    0  0.40563497790E+02 -0.29252012795E+02 -0.36127169975E+02  0.62499998991E+02  0.99999928986E+01 0.  0.
    3000022    2    3    3    0    0  0.14465690215E+02 -0.12047389996E+02 -0.80670689583E+01  0.20482575522E+02  0.24999869537E+00 0.  0.
    1000022    2    1    0    0    0 -0.40563497790E+02  0.29252012795E+02  0.36127169975E+02  0.62500001009E+02  0.10000005508E+02 0.  0.
    3000022    2    5    5    0    0 -0.15233385013E+02  0.78208687267E+01  0.17275651753E+02  0.24325555516E+02  0.25000218072E+00 0.  0.
        -13    1    4    4    0    0  0.10978766779E+02 -0.91330699667E+01 -0.61399064474E+01  0.15545281059E+02  0.10500000000E+00 0.  1.
         13    1    4    4    0    0  0.34869234356E+01 -0.29143200290E+01 -0.19271625108E+01  0.49372944636E+01  0.10500000000E+00 0. -1.
    3000001    1    5    5    0    0 -0.25330112778E+02  0.21431144068E+02  0.18851518221E+02  0.38174445492E+02  0.10000000000E+01 0.  1.
        -13    1    6    6    0    0 -0.63468042141E+01  0.32362165709E+01  0.72749356056E+01  0.10182864749E+02  0.10500000000E+00 0.  1.
         13    1    6    6    0    0 -0.88865807985E+01  0.45846521558E+01  0.10000716148E+02  0.14142690768E+02  0.10500000000E+00 0. -1.
</event>
<event>
11    0  0.3396091E-009  0.9118800E+02  0.7816531E-02  0.1126479E+00
         25   -1    0    0    0    0  0.00000000000E+00  0.00000000000E+00  0.99999998245E-14  0.12500000000E+03  0.12500000000E+03 0.  0.
    3000001    1    3    3    0    0  0.40408628566E+02 -0.18935164932E+02  0.34040872833E+02  0.56135361019E+02  0.10000000000E+01 0.  1.
    1000022    2    1    0    0    0  0.42495913291E+02 -0.23281654835E+02  0.38187849509E+02  0.62500001323E+02  0.10000010845E+02 0.  0.
    3000022    2    3    3    0    0  0.20872847253E+01 -0.43464899030E+01  0.41469766767E+01  0.63646403034E+01  0.24999726725E+00 0.  0.
    1000022    2    1    0    0    0 -0.42495913291E+02  0.23281654835E+02 -0.38187849509E+02  0.62499998677E+02  0.99999943095E+01 0.  0.
    3000022    2    5    5    0    0 -0.31929589638E+02  0.17212598178E+02 -0.22793787960E+02  0.42841469352E+02  0.24999235480E+00 0.  0.
        -13    1    4    4    0    0  0.11772811087E+01 -0.25822064346E+01  0.24791365743E+01  0.37697379264E+01  0.10500000000E+00 0. -1.
         13    1    4    4    0    0  0.91000361660E+00 -0.17642834684E+01  0.16678401024E+01  0.25949023770E+01  0.10500000000E+00 0.  1.
    3000001    1    5    5    0    0 -0.10566323653E+02  0.60690566571E+01 -0.15394061549E+02  0.19658529326E+02  0.10000000000E+01 0.  1.
        -13    1    6    6    0    0 -0.15334902406E+02  0.82924053741E+01 -0.10879603343E+02  0.20549939479E+02  0.10500000000E+00 0. -1.
         13    1    6    6    0    0 -0.16594687231E+02  0.89201928034E+01 -0.11914184617E+02  0.22291529872E+02  0.10500000000E+00 0.  1.
</event>
<event>
11    0  0.3396091E-009  0.9118800E+02  0.7816531E-02  0.1126479E+00
         25   -1    0    0    0    0  0.00000000000E+00  0.00000000000E+00  0.99999998245E-14  0.12500000000E+03  0.12500000000E+03 0.  0.
    3000001    1    3    3    0    0 -0.19868125165E+02 -0.28097786524E+01  0.39280694668E+00  0.20094565210E+02  0.10000000000E+01 0. -1.
    1000022    2    1    0    0    0 -0.60112640387E+02 -0.57243067791E+01 -0.12647248960E+02  0.62500001619E+02  0.10000003683E+02 0.  0.
    3000022    2    3    3    0    0 -0.40244515222E+02 -0.29145281268E+01 -0.13040055907E+02  0.42405436409E+02  0.24999872021E+00 0.  0.
    1000022    2    1    0    0    0  0.60112640387E+02  0.57243067791E+01  0.12647248960E+02  0.62499998381E+02  0.99999834457E+01 0.  0.
    3000022    2    5    5    0    0  0.17795301665E+02 -0.55135606416E+00  0.77839885002E+01  0.19432697526E+02  0.25000258347E+00 0.  0.
        -13    1    4    4    0    0 -0.98205270731E+01 -0.71838065470E+00 -0.31599584779E+01  0.10341914008E+02  0.10500000000E+00 0. -1.
         13    1    4    4    0    0 -0.30423988149E+02 -0.21961474721E+01 -0.98800974290E+01  0.32063522402E+02  0.10500000000E+00 0.  1.
    3000001    1    5    5    0    0  0.42317338722E+02  0.62756628433E+01  0.48632604600E+01  0.43067300855E+02  0.10000000000E+01 0.  1.
        -13    1    6    6    0    0  0.13157928813E+02 -0.43264563623E+00  0.57771669397E+01  0.14377237417E+02  0.10500000000E+00 0.  1.
         13    1    6    6    0    0  0.46373728526E+01 -0.11871042793E+00  0.20068215605E+01  0.50554601091E+01  0.10500000000E+00 0. -1.
</event>
<event>
11    0  0.3396091E-009  0.9118800E+02  0.7816531E-02  0.1126479E+00
         25   -1    0    0    0    0  0.00000000000E+00  0.00000000000E+00  0.99999998245E-14  0.12500000000E+03  0.12500000000E+03 0.  0.
    3000001    1    3    3    0    0 -0.79043052582E+01  0.74032449561E+01  0.26624543105E+01  0.11197086248E+02  0.10000000000E+01 0.  1.
    1000022    2    1    0    0    0 -0.27875195230E+02  0.48788317605E+02  0.25473978731E+02  0.62499998888E+02  0.99999912385E+01 0.  0.
    3000022    2    3    3    0    0 -0.19970889972E+02  0.41385072649E+02  0.22811524421E+02  0.51302912640E+02  0.25002901910E+00 0.  0.
    1000022    2    1    0    0    0  0.27875195230E+02 -0.48788317605E+02 -0.25473978731E+02  0.62500001112E+02  0.10000005135E+02 0.  0.
    3000022    2    5    5    0    0  0.63903208746E+01 -0.13474196985E+02 -0.22725281888E+01  0.15086983400E+02  0.24999695071E+00 0.  0.
        -13    1    4    4    0    0 -0.59687218162E+01  0.12454390661E+02  0.68258757040E+01  0.15405878455E+02  0.10500000000E+00 0. -1.
         13    1    4    4    0    0 -0.14002168156E+02  0.28930681989E+02  0.15985648717E+02  0.35897034185E+02  0.10500000000E+00 0.  1.
    3000001    1    5    5    0    0  0.21484874355E+02 -0.35314120620E+02 -0.23201450542E+02  0.47413017712E+02  0.10000000000E+01 0.  1.
        -13    1    6    6    0    0  0.22512932773E+01 -0.46172670881E+01 -0.78374646020E+00  0.51973801378E+01  0.10500000000E+00 0.  1.
         13    1    6    6    0    0  0.41390275973E+01 -0.88569298970E+01 -0.14887817286E+01  0.98896032624E+01  0.10500000000E+00 0. -1.
</event>
<event>
11    0  0.3396091E-009  0.9118800E+02  0.7816531E-02  0.1126479E+00
         25   -1    0    0    0    0  0.00000000000E+00  0.00000000000E+00  0.99999998245E-14  0.12500000000E+03  0.12500000000E+03 0.  0.
    3000001    1    3    3    0    0  0.13963782669E+02 -0.70300401713E+01 -0.19059357206E+02  0.24671193493E+02  0.10000000000E+01 0. -1.
    1000022    2    1    0    0    0  0.28104146445E+02 -0.98478266560E+01 -0.54031719321E+02  0.62499997614E+02  0.10000013586E+02 0.  0.
    3000022    2    3    3    0    0  0.14140363775E+02 -0.28177864847E+01 -0.34972362115E+02  0.37828804121E+02  0.25000194671E+00 0.  0.
    1000022    2    1    0    0    0 -0.28104146445E+02  0.98478266560E+01  0.54031719321E+02  0.62500002386E+02  0.10000043411E+02 0.  0.
    3000022    2    5    5    0    0 -0.23689654199E+02  0.11140509038E+02  0.41012558154E+02  0.48655966593E+02  0.25000222805E+00 0.  0.
        -13    1    4    4    0    0  0.81549135642E+01 -0.15711919088E+01 -0.20242517816E+02  0.21880169373E+02  0.10500000000E+00 0.  1.
         13    1    4    4    0    0  0.59854502112E+01 -0.12465945759E+01 -0.14729844298E+02  0.15948634748E+02  0.10500000000E+00 0. -1.
    3000001    1    5    5    0    0 -0.44144922459E+01 -0.12926823821E+01  0.13019161167E+02  0.13844035793E+02  0.10000000000E+01 0. -1.
        -13    1    6    6    0    0 -0.94735572842E+01  0.44484707030E+01  0.16280366929E+02  0.19354548601E+02  0.10500000000E+00 0.  1.
         13    1    6    6    0    0 -0.14216096915E+02  0.66920383351E+01  0.24732191225E+02  0.29301417992E+02  0.10500000000E+00 0. -1.
</event>
<event>
11    0  0.3396091E-009  0.9118800E+02  0.7816531E-02  0.1126479E+00
         25   -1    0    0    0    0  0.00000000000E+00  0.00000000000E+00  0.99999998245E-14  0.12500000000E+03  0.12500000000E+03 0.  0.
    3000001    1    3    3    0    0  0.36672356337E+01  0.17883479332E+02  0.10946978562E+02  0.21309711163E+02  0.10000000000E+01 0. -1.
    1000022    2    1    0    0    0  0.13526494318E+02  0.43253350580E+02  0.41862055431E+02  0.62499999164E+02  0.99999912772E+01 0.  0.
    3000022    2    3    3    0    0  0.98592586845E+01  0.25369871248E+02  0.30915076869E+02  0.41190288000E+02  0.24999755044E+00 0.  0.
    1000022    2    1    0    0    0 -0.13526494318E+02 -0.43253350580E+02 -0.41862055431E+02  0.62500000836E+02  0.10000001733E+02 0.  0.
    3000022    2    5    5    0    0 -0.75294548054E+01 -0.12404885174E+02 -0.93106137403E+01  0.17243082503E+02  0.25000029736E+00 0.  0.
        -13    1    4    4    0    0  0.53987958018E+01  0.13708055245E+02  0.16743675825E+02  0.22302902946E+02  0.10500000000E+00 0.  1.
         13    1    4    4    0    0  0.44604628826E+01  0.11661816003E+02  0.14171401044E+02  0.18887385054E+02  0.10500000000E+00 0. -1.
    3000001    1    5    5    0    0 -0.59970395127E+01 -0.30848465407E+02 -0.32551441691E+02  0.45256918333E+02  0.10000000000E+01 0.  1.
        -13    1    6    6    0    0 -0.20427138801E+01 -0.34388751905E+01 -0.25680470504E+01  0.47544119746E+01  0.10500000000E+00 0. -1.
         13    1    6    6    0    0 -0.54867409253E+01 -0.89660099831E+01 -0.67425666900E+01  0.12488670528E+02  0.10500000000E+00 0.  1.
</event>
<event>
11    0  0.3396091E-009  0.9118800E+02  0.7816531E-02  0.1126479E+00
         25   -1    0    0    0    0  0.00000000000E+00  0.00000000000E+00  0.99999998245E-14  0.12500000000E+03  0.12500000000E+03 0.  0.
    3000001    1    3    3    0    0  0.23162987843E+02  0.13530226480E+02  0.22924102496E+02  0.35300219683E+02  0.10000000000E+01 0.  1.
    1000022    2    1    0    0    0  0.46574608347E+02  0.20267189222E+02  0.35018526750E+02  0.62500003531E+02  0.10000006201E+02 0.  0.
    3000022    2    3    3    0    0  0.23411620504E+02  0.67369627427E+01  0.12094424254E+02  0.27199783848E+02  0.25000348671E+00 0.  0.
    1000022    2    1    0    0    0 -0.46574608347E+02 -0.20267189222E+02 -0.35018526750E+02  0.62499996469E+02  0.99999620632E+01 0.  0.
    3000022    2    5    5    0    0 -0.20128181253E+02 -0.13813097370E+02 -0.14484927768E+02  0.28386985830E+02  0.24998518545E+00 0.  0.
        -13    1    4    4    0    0  0.17528852310E+02  0.50164082920E+01  0.90447237877E+01  0.20352962164E+02  0.10500000000E+00 0.  1.
         13    1    4    4    0    0  0.58827681943E+01  0.17205544507E+01  0.30497004660E+01  0.68468216844E+01  0.10500000000E+00 0. -1.
    3000001    1    5    5    0    0 -0.26446427094E+02 -0.64540918520E+01 -0.20533598982E+02  0.34113010639E+02  0.10000000000E+01 0.  1.
        -13    1    6    6    0    0 -0.52357877456E+01 -0.36092348499E+01 -0.37400007052E+01  0.73782572328E+01  0.10500000000E+00 0.  1.
         13    1    6    6    0    0 -0.14892393507E+02 -0.10203862520E+02 -0.10744927063E+02  0.21008728598E+02  0.10500000000E+00 0. -1.
</event>
<event>
11    0  0.3396091E-009  0.9118800E+02  0.7816531E-02  0.1126479E+00
         25   -1    0    0    0    0  0.00000000000E+00  0.00000000000E+00  0.99999998245E-14  0.12500000000E+03  0.12500000000E+03 0.  0.
    3000001    1    3    3    0    0  0.12502475046E+02 -0.12401842240E+01 -0.19286302528E+02  0.23039344704E+02  0.10000000000E+01 0. -1.
    1000022    2    1    0    0    0  0.23848808685E+02 -0.10593079539E+02 -0.55904123831E+02  0.62499999471E+02  0.99999931402E+01 0.  0.
    3000022    2    3    3    0    0  0.11346333638E+02 -0.93528953147E+01 -0.36617821303E+02  0.39460654767E+02  0.24999973715E+00 0.  0.
    1000022    2    1    0    0    0 -0.23848808685E+02  0.10593079539E+02  0.55904123831E+02  0.62500000529E+02  0.99999997490E+01 0.  0.
    3000022    2    5    5    0    0  0.86027192799E+00 -0.25411513081E+00  0.22011338312E+01  0.23900060865E+01  0.24999332146E+00 0.  0.
        -13    1    4    4    0    0  0.61930425084E+01 -0.51114025645E+01 -0.19817525082E+02  0.21382832766E+02  0.10500000000E+00 0. -1.
         13    1    4    4    0    0  0.51532911298E+01 -0.42414927501E+01 -0.16800296221E+02  0.18077822002E+02  0.10500000000E+00 0.  1.
    3000001    1    5    5    0    0 -0.24709080613E+02  0.10847194670E+02  0.53702990000E+02  0.60109994442E+02  0.10000000000E+01 0.  1.
        -13    1    6    6    0    0  0.66976344975E+00 -0.19591446834E+00  0.16958766015E+01  0.18368418563E+01  0.10500000000E+00 0.  1.
         13    1    6    6    0    0  0.19050847824E+00 -0.58200662467E-01  0.50525722971E+00  0.55316423020E+00  0.10500000000E+00 0. -1.
</event>
<event>
11    0  0.3396091E-009  0.9118800E+02  0.7816531E-02  0.1126479E+00
         25   -1    0    0    0    0  0.00000000000E+00  0.00000000000E+00  0.99999998245E-14  0.12500000000E+03  0.12500000000E+03 0.  0.
    3000001    1    3    3    0    0 -0.27404286758E+02 -0.15214408073E+02  0.33612004715E+02  0.45969990284E+02  0.10000000000E+01 0.  1.
    1000022    2    1    0    0    0 -0.39384544895E+02 -0.23796284809E+02  0.41095553533E+02  0.62499999391E+02  0.99999928190E+01 0.  0.
    3000022    2    3    3    0    0 -0.11980258137E+02 -0.85818767362E+01  0.74835488178E+01  0.16530009107E+02  0.25000965480E+00 0.  0.
    1000022    2    1    0    0    0  0.39384544895E+02  0.23796284809E+02 -0.41095553533E+02  0.62500000609E+02  0.10000000434E+02 0.  0.
    3000022    2    5    5    0    0  0.98771100467E+01  0.10756493772E+02 -0.10151565986E+02  0.17786968651E+02  0.25000135827E+00 0.  0.
        -13    1    4    4    0    0 -0.36678798865E+01 -0.26574576297E+01  0.22544082221E+01  0.50605143362E+01  0.10500000000E+00 0.  1.
         13    1    4    4    0    0 -0.83123782501E+01 -0.59244191065E+01  0.52291405957E+01  0.11469494771E+02  0.10500000000E+00 0. -1.
    3000001    1    5    5    0    0  0.29507434848E+02  0.13039791038E+02 -0.30943987547E+02  0.44713031958E+02  0.10000000000E+01 0. -1.
        -13    1    6    6    0    0  0.38392738872E+01  0.41748864422E+01 -0.38679961581E+01  0.68660119477E+01  0.10500000000E+00 0.  1.
         13    1    6    6    0    0  0.60378361595E+01  0.65816073294E+01 -0.62835698281E+01  0.10920956703E+02  0.10500000000E+00 0. -1.
</event>
<event>
11    0  0.3396091E-009  0.9118800E+02  0.7816531E-02  0.1126479E+00
         25   -1    0    0    0    0  0.00000000000E+00  0.00000000000E+00  0.99999998245E-14  0.12500000000E+03  0.12500000000E+03 0.  0.
    3000001    1    3    3    0    0 -0.12268213169E+02  0.22534906404E+02 -0.97968600182E+01  0.27482895175E+02  0.10000000000E+01 0.  1.
    1000022    2    1    0    0    0 -0.26657153641E+02  0.54403995520E+02 -0.11655529230E+02  0.62499999476E+02  0.10000000209E+02 0.  0.
    3000022    2    3    3    0    0 -0.14388940472E+02  0.31869089116E+02 -0.18586692113E+01  0.35017104301E+02  0.24998685782E+00 0.  0.
    1000022    2    1    0    0    0  0.26657153641E+02 -0.54403995520E+02  0.11655529230E+02  0.62500000524E+02  0.10000006755E+02 0.  0.
    3000022    2    5    5    0    0  0.53530432583E+00 -0.34793297608E+01 -0.13849735492E+01  0.37911655241E+01  0.24999598659E+00 0.  0.
        -13    1    4    4    0    0 -0.45484420533E+01  0.99741611474E+01 -0.60988074356E+00  0.10979762986E+02  0.10500000000E+00 0.  1.
         13    1    4    4    0    0 -0.98404984187E+01  0.21894927968E+02 -0.12487884677E+01  0.24037341315E+02  0.10500000000E+00 0. -1.
    3000001    1    5    5    0    0  0.26121849315E+02 -0.50924665759E+02  0.13040502779E+02  0.58708835000E+02  0.10000000000E+01 0. -1.
        -13    1    6    6    0    0  0.12287288048E+00 -0.91200940757E+00 -0.33400847163E+00  0.98460426740E+00  0.10500000000E+00 0. -1.
         13    1    6    6    0    0  0.41243144535E+00 -0.25673203532E+01 -0.10509650776E+01  0.28065612567E+01  0.10500000000E+00 0.  1.
</event>
<event>
11    0  0.3396091E-009  0.9118800E+02  0.7816531E-02  0.1126479E+00
         25   -1    0    0    0    0  0.00000000000E+00  0.00000000000E+00  0.99999998245E-14  0.12500000000E+03  0.12500000000E+03 0.  0.
    3000001    1    3    3    0    0  0.43763145631E+00 -0.58175959895E+01  0.22833256394E+01  0.63442509695E+01  0.10000000000E+01 0. -1.
    1000022    2    1    0    0    0 -0.79795492716E+00 -0.41699883656E+02  0.45461334639E+02  0.62500000400E+02  0.10000003686E+02 0.  0.
    3000022    2    3    3    0    0 -0.12355863835E+01 -0.35882287667E+02  0.43178009000E+02  0.56155749430E+02  0.24998184694E+00 0.  0.
    1000022    2    1    0    0    0  0.79795492716E+00  0.41699883656E+02 -0.45461334639E+02  0.62499999600E+02  0.99999986923E+01 0.  0.
    3000022    2    5    5    0    0  0.41666494831E+00  0.26695458521E+01 -0.19443839808E+00  0.27203663925E+01  0.25000456635E+00 0.  0.
        -13    1    4    4    0    0 -0.42056626887E+00 -0.12599113519E+02  0.15246758868E+02  0.19783559296E+02  0.10500000000E+00 0.  1.
         13    1    4    4    0    0 -0.81502011460E+00 -0.23283174148E+02  0.27931250132E+02  0.36372190134E+02  0.10500000000E+00 0. -1.
    3000001    1    5    5    0    0  0.38128997886E+00  0.39030337804E+02 -0.45266896241E+02  0.59779633208E+02  0.10000000000E+01 0.  1.
        -13    1    6    6    0    0  0.26394847896E+00  0.12901957507E+01 -0.66912799624E-01  0.13227910634E+01  0.10500000000E+00 0. -1.
         13    1    6    6    0    0  0.15271646935E+00  0.13793501013E+01 -0.12752559846E+00  0.13975753290E+01  0.10500000000E+00 0.  1.
</event>
<event>
11    0  0.3396091E-009  0.9118800E+02  0.7816531E-02  0.1126479E+00
         25   -1    0    0    0    0  0.00000000000E+00  0.00000000000E+00  0.99999998245E-14  0.12500000000E+03  0.12500000000E+03 0.  0.
    3000001    1    3    3    0    0 -0.79062862768E+01 -0.30600877243E+02 -0.98014375763E+00  0.31636746554E+02  0.10000000000E+01 0.  1.
    1000022    2    1    0    0    0 -0.68622346650E+01 -0.61267902534E+02  0.23246210170E+01  0.62500000616E+02  0.10000003428E+02 0.  0.
    3000022    2    3    3    0    0  0.10440516118E+01 -0.30667025291E+02  0.33047647746E+01  0.30863254061E+02  0.24999417714E+00 0.  0.
    1000022    2    1    0    0    0  0.68622346650E+01  0.61267902534E+02 -0.23246210170E+01  0.62499999384E+02  0.99999957332E+01 0.  0.
    3000022    2    5    5    0    0  0.54524812828E+01  0.14860947170E+02  0.15064043640E+01  0.15903114657E+02  0.24999756280E+00 0.  0.
        -13    1    4    4    0    0  0.27439666836E+00 -0.84592968192E+01  0.87569563566E+00  0.85095748456E+01  0.10500000000E+00 0.  1.
         13    1    4    4    0    0  0.76965494347E+00 -0.22207728472E+02  0.24290691389E+01  0.22353679216E+02  0.10500000000E+00 0. -1.
    3000001    1    5    5    0    0  0.14097533822E+01  0.46406955364E+02 -0.38310253810E+01  0.46596884727E+02  0.10000000000E+01 0.  1.
        -13    1    6    6    0    0  0.34377222541E+01  0.92925318431E+01  0.88870474667E+00  0.99483618490E+01  0.10500000000E+00 0.  1.
         13    1    6    6    0    0  0.20147590287E+01  0.55684153266E+01  0.61769961737E+00  0.59547528085E+01  0.10500000000E+00 0. -1.
</event>
<event>
11    0  0.3396091E-009  0.9118800E+02  0.7816531E-02  0.1126479E+00
         25   -1    0    0    0    0  0.00000000000E+00  0.00000000000E+00  0.99999998245E-14  0.12500000000E+03  0.12500000000E+03 0.  0.
    3000001    1    3    3    0    0 -0.36194356584E+01 -0.46763005599E+01  0.10999824148E+02  0.12528536734E+02  0.10000000000E+01 0.  1.
    1000022    2    1    0    0    0 -0.34990199360E+02 -0.16634368816E+02  0.48012852165E+02  0.62499998166E+02  0.99999760310E+01 0.  0.
    3000022    2    3    3    0    0 -0.31370763701E+02 -0.11958068256E+02  0.37013028017E+02  0.49971461432E+02  0.25000609457E+00 0.  0.
    1000022    2    1    0    0    0  0.34990199360E+02  0.16634368816E+02 -0.48012852165E+02  0.62500001834E+02  0.99999989526E+01 0.  0.
    3000022    2    5    5    0    0  0.16058303229E+02  0.24484680780E+01 -0.17513694002E+02  0.23888408763E+02  0.24999415323E+00 0.  0.
        -13    1    4    4    0    0 -0.23111414015E+02 -0.88220328857E+01  0.27226342837E+02  0.36786553132E+02  0.10500000000E+00 0.  1.
         13    1    4    4    0    0 -0.82593496863E+01 -0.31360353703E+01  0.97866851796E+01  0.13184908300E+02  0.10500000000E+00 0. -1.
    3000001    1    5    5    0    0  0.18931896130E+02  0.14185900738E+02 -0.30499158163E+02  0.38611593071E+02  0.10000000000E+01 0. -1.
        -13    1    6    6    0    0  0.98339403636E+01  0.15514025293E+01 -0.10683060186E+02  0.14603151469E+02  0.10500000000E+00 0. -1.
         13    1    6    6    0    0  0.62243628658E+01  0.89706554869E+00 -0.68306338159E+01  0.92852572937E+01  0.10500000000E+00 0.  1.
</event>
<event>
11    0  0.3396091E-009  0.9118800E+02  0.7816531E-02  0.1126479E+00
         25   -1    0    0    0    0  0.00000000000E+00  0.00000000000E+00  0.99999998245E-14  0.12500000000E+03  0.12500000000E+03 0.  0.
    3000001    1    3    3    0    0 -0.11604057991E+02 -0.31084483287E+02  0.18428304390E+01  0.33245981518E+02  0.10000000000E+01 0.  1.
    1000022    2    1    0    0    0 -0.26728332479E+02 -0.54630182217E+02  0.10362883813E+02  0.62499997118E+02  0.99999856336E+01 0.  0.
    3000022    2    3    3    0    0 -0.15124274487E+02 -0.23545698930E+02  0.85200533742E+01  0.29254015600E+02  0.25000468448E+00 0.  0.
    1000022    2    1    0    0    0  0.26728332479E+02  0.54630182217E+02 -0.10362883813E+02  0.62500002882E+02  0.10000021663E+02 0.  0.
    3000022    2    5    5    0    0 -0.64427669405E+00  0.38194488220E+01 -0.18253190964E+00  0.38857560997E+01  0.25000161240E+00 0.  0.
        -13    1    4    4    0    0 -0.11608696669E+02 -0.18060534211E+02  0.65260695383E+01  0.22439816019E+02  0.10500000000E+00 0. -1.
         13    1    4    4    0    0 -0.35155778181E+01 -0.54851647191E+01  0.19939838358E+01  0.68141995809E+01  0.10500000000E+00 0.  1.
    3000001    1    5    5    0    0  0.27372609173E+02  0.50810733395E+02 -0.10180351903E+02  0.58614246783E+02  0.10000000000E+01 0.  1.
        -13    1    6    6    0    0 -0.31699258942E+00  0.19243409735E+01 -0.15937925395E+00  0.19595915979E+01  0.10500000000E+00 0. -1.
         13    1    6    6    0    0 -0.32728410463E+00  0.18951078485E+01 -0.23152655694E-01  0.19261645018E+01  0.10500000000E+00 0.  1.
</event>
<event>
11    0  0.3396091E-009  0.9118800E+02  0.7816531E-02  0.1126479E+00
         25   -1    0    0    0    0  0.00000000000E+00  0.00000000000E+00  0.99999998245E-14  0.12500000000E+03  0.12500000000E+03 0.  0.
    3000001    1    3    3    0    0 -0.20652219676E+01  0.49810750012E+01  0.44614683692E+01  0.70697206417E+01  0.10000000000E+01 0.  1.
    1000022    2    1    0    0    0 -0.27154374962E+02  0.53062487710E+02  0.15914205246E+02  0.62499996910E+02  0.10000000176E+02 0.  0.
    3000022    2    3    3    0    0 -0.25089152995E+02  0.48081412709E+02  0.11452736877E+02  0.55430276268E+02  0.24999820967E+00 0.  0.
    1000022    2    1    0    0    0  0.27154374962E+02 -0.53062487710E+02 -0.15914205246E+02  0.62500003090E+02  0.10000038803E+02 0.  0.
    3000022    2    5    5    0    0  0.26730939907E+02 -0.47710355811E+02 -0.16180331086E+02  0.57032331184E+02  0.24997257088E+00 0.  0.
        -13    1    4    4    0    0 -0.16406784548E+02  0.31490301401E+02  0.75505649216E+01  0.36302117254E+02  0.10500000000E+00 0. -1.
         13    1    4    4    0    0 -0.86823684468E+01  0.16591111308E+02  0.39021719556E+01  0.19128159014E+02  0.10500000000E+00 0.  1.
    3000001    1    5    5    0    0  0.42343505551E+00 -0.53521318989E+01  0.26612583994E+00  0.54676719060E+01  0.10000000000E+01 0.  1.
        -13    1    6    6    0    0  0.13428427062E+02 -0.24017571705E+02 -0.80752453676E+01  0.28677290958E+02  0.10500000000E+00 0. -1.
         13    1    6    6    0    0  0.13302512845E+02 -0.23692784107E+02 -0.81050857188E+01  0.28355040226E+02  0.10500000000E+00 0.  1.
</event>
<event>
11    0  0.3396091E-009  0.9118800E+02  0.7816531E-02  0.1126479E+00
         25   -1    0    0    0    0  0.00000000000E+00  0.00000000000E+00  0.99999998245E-14  0.12500000000E+03  0.12500000000E+03 0.  0.
    3000001    1    3    3    0    0  0.53652053482E+00  0.12584168041E+00  0.26441837607E+00  0.11720100215E+01  0.10000000000E+01 0. -1.
    1000022    2    1    0    0    0  0.29060902607E+02  0.54406119724E+02  0.12992822246E+01  0.62500000294E+02  0.99999989364E+01 0.  0.
    3000022    2    3    3    0    0  0.28524382072E+02  0.54280278044E+02  0.10348638485E+01  0.61327990273E+02  0.24998125163E+00 0.  0.
    1000022    2    1    0    0    0 -0.29060902607E+02 -0.54406119724E+02 -0.12992822246E+01  0.62499999706E+02  0.99999952569E+01 0.  0.
    3000022    2    5    5    0    0 -0.21902389812E+02 -0.36373034414E+02 -0.49017259564E+01  0.42741101151E+02  0.24999664559E+00 0.  0.
        -13    1    4    4    0    0  0.17382150991E+02  0.32945242675E+02  0.61838918473E+00  0.37254820066E+02  0.10500000000E+00 0.  1.
         13    1    4    4    0    0  0.11142231081E+02  0.21335035369E+02  0.41647466376E+00  0.24073170206E+02  0.10500000000E+00 0. -1.
    3000001    1    5    5    0    0 -0.71585127955E+01 -0.18033085310E+02  0.36024437319E+01  0.19758898554E+02  0.10000000000E+01 0. -1.
        -13    1    6    6    0    0 -0.60745072424E+01 -0.10014712083E+02 -0.13583287072E+01  0.11791953961E+02  0.10500000000E+00 0. -1.
         13    1    6    6    0    0 -0.15827882569E+02 -0.26358322331E+02 -0.35433972492E+01  0.30949147190E+02  0.10500000000E+00 0.  1.
</event>
<event>
11    0  0.3396091E-009  0.9118800E+02  0.7816531E-02  0.1126479E+00
         25   -1    0    0    0    0  0.00000000000E+00  0.00000000000E+00  0.99999998245E-14  0.12500000000E+03  0.12500000000E+03 0.  0.
    3000001    1    3    3    0    0  0.47996116218E+02 -0.21724791895E+02 -0.81076305518E+00  0.52699630850E+02  0.10000000000E+01 0. -1.
    1000022    2    1    0    0    0  0.54867143732E+02 -0.27921027531E+02 -0.40326389779E+01  0.62500005337E+02  0.10000062513E+02 0.  0.
    3000022    2    3    3    0    0  0.68710275138E+01 -0.61962356356E+01 -0.32218759227E+01  0.98003744872E+01  0.25000096338E+00 0.  0.
    1000022    2    1    0    0    0 -0.54867143732E+02  0.27921027531E+02  0.40326389779E+01  0.62499994663E+02  0.99999958037E+01 0.  0.
    3000022    2    5    5    0    0 -0.21356325023E+02  0.14393089074E+02 -0.20634286780E+01  0.25837450694E+02  0.24997772308E+00 0.  0.
        -13    1    4    4    0    0  0.44069472730E+01 -0.40302148588E+01 -0.20375579701E+01  0.63108227321E+01  0.10500000000E+00 0.  1.
         13    1    4    4    0    0  0.24640802408E+01 -0.21660207767E+01 -0.11843179526E+01  0.34895517551E+01  0.10500000000E+00 0. -1.
    3000001    1    5    5    0    0 -0.33510818709E+02  0.13527938457E+02  0.60960676559E+01  0.36662543970E+02  0.10000000000E+01 0. -1.
        -13    1    6    6    0    0 -0.54989938905E+01  0.37064471838E+01 -0.50090108127E+00  0.66512112752E+01  0.10500000000E+00 0.  1.
         13    1    6    6    0    0 -0.15857331132E+02  0.10686641890E+02 -0.15625275968E+01  0.19186239418E+02  0.10500000000E+00 0. -1.
</event>
<event>
11    0  0.3396091E-009  0.9118800E+02  0.7816531E-02  0.1126479E+00
         25   -1    0    0    0    0  0.00000000000E+00  0.00000000000E+00  0.99999998245E-14  0.12500000000E+03  0.12500000000E+03 0.  0.
    3000001    1    3    3    0    0 -0.17171124253E+02  0.26389276422E+02 -0.73915379937E+01  0.32355467112E+02  0.10000000000E+01 0. -1.
    1000022    2    1    0    0    0 -0.24561745357E+02  0.55005426275E+02 -0.13318176021E+02  0.62499999854E+02  0.99999957254E+01 0.  0.
    3000022    2    3    3    0    0 -0.73906211049E+01  0.28616149854E+02 -0.59266380270E+01  0.30144532741E+02  0.25000628601E+00 0.  0.
    1000022    2    1    0    0    0  0.24561745357E+02 -0.55005426275E+02  0.13318176021E+02  0.62500000146E+02  0.99999975528E+01 0.  0.
    3000022    2    5    5    0    0  0.19505783551E+01 -0.69857666630E+01 -0.14437114050E+01  0.73994928633E+01  0.25000044768E+00 0.  0.
        -13    1    4    4    0    0 -0.39493809381E+01  0.15513882333E+02 -0.32484412848E+01  0.16335285446E+02  0.10500000000E+00 0.  1.
         13    1    4    4    0    0 -0.34412401668E+01  0.13102267521E+02 -0.26781967422E+01  0.13809247295E+02  0.10500000000E+00 0. -1.
    3000001    1    5    5    0    0  0.22611167002E+02 -0.48019659612E+02  0.14761887426E+02  0.55100507283E+02  0.10000000000E+01 0. -1.
        -13    1    6    6    0    0  0.72914821978E+00 -0.28474838691E+01 -0.58762550627E+00  0.29993583058E+01  0.10500000000E+00 0. -1.
         13    1    6    6    0    0  0.12214301353E+01 -0.41382827940E+01 -0.85608589877E+00  0.44001345575E+01  0.10500000000E+00 0.  1.
</event>
<event>
11    0  0.3396091E-009  0.9118800E+02  0.7816531E-02  0.1126479E+00
         25   -1    0    0    0    0  0.00000000000E+00  0.00000000000E+00  0.99999998245E-14  0.12500000000E+03  0.12500000000E+03 0.  0.
    3000001    1    3    3    0    0  0.39965180031E+01  0.42367007691E-01 -0.15137017792E+02  0.15687678565E+02  0.10000000000E+01 0. -1.
    1000022    2    1    0    0    0  0.29753045223E+01  0.11056487535E+02 -0.60623028900E+02  0.62499999997E+02  0.10000000651E+02 0.  0.
    3000022    2    3    3    0    0 -0.10212134808E+01  0.11014120528E+02 -0.45486011107E+02  0.46812321432E+02  0.25000683952E+00 0.  0.
    1000022    2    1    0    0    0 -0.29753045223E+01 -0.11056487535E+02  0.60623028900E+02  0.62500000003E+02  0.10000000689E+02 0.  0.
    3000022    2    5    5    0    0 -0.24867686016E+01  0.12041817696E+01  0.84336838579E+01  0.88782654633E+01  0.25000482074E+00 0.  0.
        -13    1    4    4    0    0 -0.40317039969E+00  0.50692199589E+01 -0.20945720948E+02  0.21554437789E+02  0.10500000000E+00 0.  1.
         13    1    4    4    0    0 -0.61804308113E+00  0.59449005688E+01 -0.24540290159E+02  0.25257883643E+02  0.10500000000E+00 0. -1.
    3000001    1    5    5    0    0 -0.48853592070E+00 -0.12260669305E+02  0.52189345042E+02  0.53621734540E+02  0.10000000000E+01 0. -1.
        -13    1    6    6    0    0 -0.82963544631E+00  0.45981443710E+00  0.28430012826E+01  0.29989007291E+01  0.10500000000E+00 0. -1.
         13    1    6    6    0    0 -0.16571331553E+01  0.74436733249E+00  0.55906825753E+01  0.58793647342E+01  0.10500000000E+00 0.  1.
</event>
<event>
11    0  0.3396091E-009  0.9118800E+02  0.7816531E-02  0.1126479E+00
         25   -1    0    0    0    0  0.00000000000E+00  0.00000000000E+00  0.99999998245E-14  0.12500000000E+03  0.12500000000E+03 0.  0.
    3000001    1    3    3    0    0  0.48225707563E+00  0.84110513632E+00  0.41387406208E+01  0.43668299330E+01  0.10000000000E+01 0. -1.
    1000022    2    1    0    0    0  0.72900860612E+01  0.42314290967E+02  0.44301301904E+02  0.62500000381E+02  0.10000006123E+02 0.  0.
    3000022    2    3    3    0    0  0.68078289856E+01  0.41473185831E+02  0.40162561283E+02  0.58133170448E+02  0.24999820997E+00 0.  0.
    1000022    2    1    0    0    0 -0.72900860612E+01 -0.42314290967E+02 -0.44301301904E+02  0.62499999619E+02  0.10000001356E+02 0.  0.
    3000022    2    5    5    0    0 -0.30923888747E+01 -0.37153635450E+02 -0.36147097719E+02  0.51929092708E+02  0.24999958666E+00 0.  0.
        -13    1    4    4    0    0  0.24226921579E+01  0.14636977030E+02  0.14251685667E+02  0.20572605650E+02  0.10500000000E+00 0. -1.
         13    1    4    4    0    0  0.43851368277E+01  0.26836208800E+02  0.25910875616E+02  0.37560564798E+02  0.10500000000E+00 0.  1.
    3000001    1    5    5    0    0 -0.41976971865E+01 -0.51606555167E+01 -0.81542041847E+01  0.10570906911E+02  0.10000000000E+01 0. -1.
        -13    1    6    6    0    0 -0.73077207884E+00 -0.87296777467E+01 -0.84746076835E+01  0.12188982803E+02  0.10500000000E+00 0. -1.
         13    1    6    6    0    0 -0.23616167959E+01 -0.28423957704E+02 -0.27672490036E+02  0.39740109904E+02  0.10500000000E+00 0.  1.
</event>
<event>
11    0  0.3396091E-009  0.9118800E+02  0.7816531E-02  0.1126479E+00
         25   -1    0    0    0    0  0.00000000000E+00  0.00000000000E+00  0.99999998245E-14  0.12500000000E+03  0.12500000000E+03 0.  0.
    3000001    1    3    3    0    0  0.31066295541E+02 -0.23673130948E+01  0.15081970349E+02  0.34629246593E+02  0.10000000000E+01 0. -1.
    1000022    2    1    0    0    0  0.57911229451E+02 -0.83707783001E+01  0.19556828712E+02  0.62500000611E+02  0.10000005061E+02 0.  0.
    3000022    2    3    3    0    0  0.26844933910E+02 -0.60034652052E+01  0.44748583627E+01  0.27870754019E+02  0.25000220784E+00 0.  0.
    1000022    2    1    0    0    0 -0.57911229451E+02  0.83707783001E+01 -0.19556828712E+02  0.62499999389E+02  0.99999974182E+01 0.  0.
    3000022    2    5    5    0    0 -0.39375181576E+01  0.34086073691E+00  0.11550475256E+01  0.41251511730E+01  0.25000426065E+00 0.  0.
        -13    1    4    4    0    0  0.17096519691E+02 -0.38726858879E+01  0.28852852445E+01  0.17765826113E+02  0.10500000000E+00 0.  1.
         13    1    4    4    0    0  0.97484142187E+01 -0.21307793174E+01  0.15895731182E+01  0.10104927906E+02  0.10500000000E+00 0. -1.
    3000001    1    5    5    0    0 -0.53973711294E+02  0.80299175632E+01 -0.20711876238E+02  0.58374848216E+02  0.10000000000E+01 0.  1.
        -13    1    6    6    0    0 -0.12868213150E+01  0.11249375193E+00  0.32385383382E+00  0.13358406517E+01  0.10500000000E+00 0.  1.
         13    1    6    6    0    0 -0.26506968426E+01  0.22836698498E+00  0.83119369173E+00  0.27893105213E+01  0.10500000000E+00 0. -1.
</event>
<event>
11    0  0.3396091E-009  0.9118800E+02  0.7816531E-02  0.1126479E+00
         25   -1    0    0    0    0  0.00000000000E+00  0.00000000000E+00  0.99999998245E-14  0.12500000000E+03  0.12500000000E+03 0.  0.
    3000001    1    3    3    0    0  0.10570922104E+02 -0.13542161122E+02 -0.16683076616E+02  0.23967886168E+02  0.10000000000E+01 0.  1.
    1000022    2    1    0    0    0  0.22583802388E+02 -0.44358926682E+02 -0.36448688755E+02  0.62500005842E+02  0.10000065579E+02 0.  0.
    3000022    2    3    3    0    0  0.12012880284E+02 -0.30816765560E+02 -0.19765612139E+02  0.38532119674E+02  0.24998204366E+00 0.  0.
    1000022    2    1    0    0    0 -0.22583802388E+02  0.44358926682E+02  0.36448688755E+02  0.62499994158E+02  0.99999925534E+01 0.  0.
    3000022    2    5    5    0    0 -0.14536352378E+02  0.22019958332E+02  0.14292765708E+02  0.30008827902E+02  0.24999011157E+00 0.  0.
        -13    1    4    4    0    0  0.86243793492E+01 -0.22032193714E+02 -0.14166941232E+02  0.27577358972E+02  0.10500000000E+00 0. -1.
         13    1    4    4    0    0  0.33885009349E+01 -0.87845718466E+01 -0.55986709070E+01  0.10954760702E+02  0.10500000000E+00 0.  1.
    3000001    1    5    5    0    0 -0.80474500106E+01  0.22338968350E+02  0.22155923047E+02  0.32491166256E+02  0.10000000000E+01 0. -1.
        -13    1    6    6    0    0 -0.37456545950E+01  0.56280328251E+01  0.36801891069E+01  0.76980191405E+01  0.10500000000E+00 0. -1.
         13    1    6    6    0    0 -0.10790697783E+02  0.16391925507E+02  0.10612576601E+02  0.22310808761E+02  0.10500000000E+00 0.  1.
</event>
<event>
11    0  0.3396091E-009  0.9118800E+02  0.7816531E-02  0.1126479E+00
         25   -1    0    0    0    0  0.00000000000E+00  0.00000000000E+00  0.99999998245E-14  0.12500000000E+03  0.12500000000E+03 0.  0.
    3000001    1    3    3    0    0  0.65408390095E+01 -0.13829584971E+02  0.69301864372E+01  0.16824609341E+02  0.10000000000E+01 0.  1.
    1000022    2    1    0    0    0  0.13471799479E+02 -0.47434531780E+02  0.37077294866E+02  0.62499999874E+02  0.10000000164E+02 0.  0.
    3000022    2    3    3    0    0  0.69309604697E+01 -0.33604946809E+02  0.30147108429E+02  0.45675390533E+02  0.24998134366E+00 0.  0.
    1000022    2    1    0    0    0 -0.13471799479E+02  0.47434531780E+02 -0.37077294866E+02  0.62500000126E+02  0.10000001742E+02 0.  0.
    3000022    2    5    5    0    0 -0.10237116152E+02  0.18778058053E+02 -0.17418004705E+02  0.27583752442E+02  0.24999910984E+00 0.  0.
        -13    1    4    4    0    0  0.18018388212E+01 -0.86022155040E+01  0.77386002283E+01  0.11710751180E+02  0.10500000000E+00 0.  1.
         13    1    4    4    0    0  0.51291216485E+01 -0.25002731305E+02  0.22408508201E+02  0.33964639353E+02  0.10500000000E+00 0. -1.
    3000001    1    5    5    0    0 -0.32346833270E+01  0.28656473727E+02 -0.19659290162E+02  0.34916247684E+02  0.10000000000E+01 0. -1.
        -13    1    6    6    0    0 -0.73510387922E+01  0.13416597276E+02 -0.12425582286E+02  0.19709108907E+02  0.10500000000E+00 0.  1.
         13    1    6    6    0    0 -0.28860773600E+01  0.53614607769E+01 -0.49924224189E+01  0.78746435347E+01  0.10500000000E+00 0. -1.
</event>
<event>
11    0  0.3396091E-009  0.9118800E+02  0.7816531E-02  0.1126479E+00
         25   -1    0    0    0    0  0.00000000000E+00  0.00000000000E+00  0.99999998245E-14  0.12500000000E+03  0.12500000000E+03 0.  0.
    3000001    1    3    3    0    0 -0.13661856254E+02  0.11204677766E+02  0.24873182926E+02  0.30526486025E+02  0.10000000000E+01 0.  1.
    1000022    2    1    0    0    0 -0.20668048006E+02  0.29869660884E+02  0.49868679442E+02  0.62500001112E+02  0.10000005001E+02 0.  0.
    3000022    2    3    3    0    0 -0.70061917514E+01  0.18664983118E+02  0.24995496515E+02  0.31973515087E+02  0.25000657783E+00 0.  0.
    1000022    2    1    0    0    0  0.20668048006E+02 -0.29869660884E+02 -0.49868679442E+02  0.62499998888E+02  0.99999911066E+01 0.  0.
    3000022    2    5    5    0    0  0.16158083670E+02 -0.23269513093E+02 -0.31066244959E+02  0.42044357328E+02  0.24999964467E+00 0.  0.
        -13    1    4    4    0    0 -0.34420404189E+01  0.89921477367E+01  0.12113348350E+02  0.15474191301E+02  0.10500000000E+00 0. -1.
         13    1    4    4    0    0 -0.35641513325E+01  0.96728353814E+01  0.12882148165E+02  0.16499323786E+02  0.10500000000E+00 0.  1.
    3000001    1    5    5    0    0  0.45099643361E+01 -0.66001477910E+01 -0.18802434483E+02  0.20455641561E+02  0.10000000000E+01 0. -1.
        -13    1    6    6    0    0  0.12064999191E+02 -0.17417303299E+02 -0.23253937580E+02  0.31459232312E+02  0.10500000000E+00 0.  1.
         13    1    6    6    0    0  0.40930844790E+01 -0.58522097941E+01 -0.78123073788E+01  0.10585125016E+02  0.10500000000E+00 0. -1.
</event>
<event>
11    0  0.3396091E-009  0.9118800E+02  0.7816531E-02  0.1126479E+00
         25   -1    0    0    0    0  0.00000000000E+00  0.00000000000E+00  0.99999998245E-14  0.12500000000E+03  0.12500000000E+03 0.  0.
    3000001    1    3    3    0    0 -0.23411422814E+02  0.10685906865E+02 -0.17111161531E+02  0.30920465272E+02  0.10000000000E+01 0. -1.
    1000022    2    1    0    0    0 -0.39800870877E+02  0.23398161675E+02 -0.40922694784E+02  0.62500000514E+02  0.99999911734E+01 0.  0.
    3000022    2    3    3    0    0 -0.16389448063E+02  0.12712254810E+02 -0.23811533253E+02  0.31579535242E+02  0.25000007804E+00 0.  0.
    1000022    2    1    0    0    0  0.39800870877E+02 -0.23398161675E+02  0.40922694784E+02  0.62499999486E+02  0.99999847509E+01 0.  0.
    3000022    2    5    5    0    0  0.32292430226E+02 -0.14607930573E+02  0.33177099123E+02  0.48548687864E+02  0.25000307302E+00 0.  0.
        -13    1    4    4    0    0 -0.93390408576E+01  0.72040209532E+01 -0.13627891891E+02  0.18023486467E+02  0.10500000000E+00 0. -1.
         13    1    4    4    0    0 -0.70504072056E+01  0.55082338571E+01 -0.10183641363E+02  0.13556048775E+02  0.10500000000E+00 0.  1.
    3000001    1    5    5    0    0  0.75084406512E+01 -0.87902311023E+01  0.77455956609E+01  0.13951311622E+02  0.10000000000E+01 0. -1.
        -13    1    6    6    0    0  0.19412175236E+02 -0.87435610801E+01  0.20001452091E+02  0.29212180995E+02  0.10500000000E+00 0. -1.
         13    1    6    6    0    0  0.12880254990E+02 -0.58643694927E+01  0.13175647033E+02  0.19336506869E+02  0.10500000000E+00 0.  1.
</event>
<event>
11    0  0.3396091E-009  0.9118800E+02  0.7816531E-02  0.1126479E+00
         25   -1    0    0    0    0  0.00000000000E+00  0.00000000000E+00  0.99999998245E-14  0.12500000000E+03  0.12500000000E+03 0.  0.
    3000001    1    3    3    0    0 -0.44273897448E+02  0.12799292642E+02 -0.91342357523E+01  0.46993979936E+02  0.10000000000E+01 0.  1.
    1000022    2    1    0    0    0 -0.58537881581E+02  0.12210502002E+02 -0.15181235206E+02  0.62499998706E+02  0.99999998338E+01 0.  0.
    3000022    2    3    3    0    0 -0.14263984133E+02 -0.58879064023E+00 -0.60469994535E+01  0.15506018770E+02  0.24999589316E+00 0.  0.
    1000022    2    1    0    0    0  0.58537881581E+02 -0.12210502002E+02  0.15181235206E+02  0.62500001294E+02  0.10000016014E+02 0.  0.
    3000022    2    5    5    0    0  0.21235902664E+02  0.34559999642E+00  0.60232580213E+01  0.22077707017E+02  0.25001726640E+00 0.  0.
        -13    1    4    4    0    0 -0.10979430491E+02 -0.44829665406E+00 -0.46599478748E+01  0.11936289331E+02  0.10500000000E+00 0.  1.
         13    1    4    4    0    0 -0.32845536416E+01 -0.14049398617E+00 -0.13870515787E+01  0.35697294389E+01  0.10500000000E+00 0. -1.
    3000001    1    5    5    0    0  0.37301978917E+02 -0.12556101998E+02  0.91579771845E+01  0.40422294277E+02  0.10000000000E+01 0. -1.
        -13    1    6    6    0    0  0.11469421493E+02  0.12058735216E+00  0.32650030347E+01  0.11926166212E+02  0.10500000000E+00 0. -1.
         13    1    6    6    0    0  0.97664811708E+01  0.22501264426E+00  0.27582549866E+01  0.10151540805E+02  0.10500000000E+00 0.  1.
</event>
<event>
11    0  0.3396091E-009  0.9118800E+02  0.7816531E-02  0.1126479E+00
         25   -1    0    0    0    0  0.00000000000E+00  0.00000000000E+00  0.99999998245E-14  0.12500000000E+03  0.12500000000E+03 0.  0.
    3000001    1    3    3    0    0  0.30246821525E+02  0.41101646990E+02 -0.19785989018E+02  0.54742131481E+02  0.10000000000E+01 0. -1.
    1000022    2    1    0    0    0  0.31938212492E+02  0.48633221646E+02 -0.20518533227E+02  0.62500001110E+02  0.10000013404E+02 0.  0.
    3000022    2    3    3    0    0  0.16913909666E+01  0.75315746567E+01 -0.73254420877E+00  0.77578696291E+01  0.24999990521E+00 0.  0.
    1000022    2    1    0    0    0 -0.31938212492E+02 -0.48633221646E+02  0.20518533227E+02  0.62499998890E+02  0.99999995319E+01 0.  0.
    3000022    2    5    5    0    0 -0.13035741171E+02 -0.16999586745E+02  0.12395011370E+02  0.24751066635E+02  0.24999061788E+00 0.  0.
        -13    1    4    4    0    0  0.66340186367E+00  0.29140108679E+01 -0.34503109550E+00  0.30102546118E+01  0.10500000000E+00 0. -1.
         13    1    4    4    0    0  0.10279891029E+01  0.46175637888E+01 -0.38751311327E+00  0.47476150173E+01  0.10500000000E+00 0.  1.
    3000001    1    5    5    0    0 -0.18902471321E+02 -0.31633634901E+02  0.81235218571E+01  0.37748932256E+02  0.10000000000E+01 0. -1.
        -13    1    6    6    0    0 -0.69459817227E+01 -0.91165769649E+01  0.65654568251E+01  0.13208894199E+02  0.10500000000E+00 0.  1.
         13    1    6    6    0    0 -0.60897594482E+01 -0.78830097806E+01  0.58295545445E+01  0.11542172435E+02  0.10500000000E+00 0. -1.
</event>
<event>
11    0  0.3396091E-009  0.9118800E+02  0.7816531E-02  0.1126479E+00
         25   -1    0    0    0    0  0.00000000000E+00  0.00000000000E+00  0.99999998245E-14  0.12500000000E+03  0.12500000000E+03 0.  0.
    3000001    1    3    3    0    0 -0.40442375312E+02  0.89574388933E+01  0.15414523116E+02  0.44208923933E+02  0.10000000000E+01 0. -1.
    1000022    2    1    0    0    0 -0.58454461702E+02  0.12126495358E+02  0.15565172769E+02  0.62499998023E+02  0.99999583539E+01 0.  0.
    3000022    2    3    3    0    0 -0.18012086389E+02  0.31690564642E+01  0.15064965339E+00  0.18291074090E+02  0.25004216278E+00 0.  0.
    1000022    2    1    0    0    0  0.58454461702E+02 -0.12126495358E+02 -0.15565172769E+02  0.62500001977E+02  0.99999830621E+01 0.  0.
    3000022    2    5    5    0    0  0.43725064461E+02 -0.10571760313E+02 -0.15723186073E+02  0.47654217648E+02  0.25000220936E+00 0.  0.
        -13    1    4    4    0    0 -0.51104454990E+01  0.92839180049E+00  0.72092814846E-01  0.51956507684E+01  0.10500000000E+00 0. -1.
         13    1    4    4    0    0 -0.12901640890E+02  0.22406646637E+01  0.78556838541E-01  0.13095423322E+02  0.10500000000E+00 0.  1.
    3000001    1    5    5    0    0  0.14729397241E+02 -0.15547350441E+01  0.15801330350E+00  0.14845784329E+02  0.10000000000E+01 0. -1.
        -13    1    6    6    0    0  0.14854705694E+02 -0.36026018829E+01 -0.52857667405E+01  0.16173786713E+02  0.10500000000E+00 0.  1.
         13    1    6    6    0    0  0.28870358767E+02 -0.69691584306E+01 -0.10437419332E+02  0.31480430935E+02  0.10500000000E+00 0. -1.
</event>
<event>
11    0  0.3396091E-009  0.9118800E+02  0.7816531E-02  0.1126479E+00
         25   -1    0    0    0    0  0.00000000000E+00  0.00000000000E+00  0.99999998245E-14  0.12500000000E+03  0.12500000000E+03 0.  0.
    3000001    1    3    3    0    0 -0.75740076912E+01 -0.58733558681E+01 -0.55880981528E+02  0.56705784522E+02  0.10000000000E+01 0.  1.
    1000022    2    1    0    0    0 -0.57094253147E+01 -0.80834022588E+01 -0.60895903198E+02  0.62499999013E+02  0.99999960428E+01 0.  0.
    3000022    2    3    3    0    0  0.18645823765E+01 -0.22100463907E+01 -0.50149216699E+01  0.57942144917E+01  0.25001946508E+00 0.  0.
    1000022    2    1    0    0    0  0.57094253147E+01  0.80834022588E+01  0.60895903198E+02  0.62500000987E+02  0.10000008376E+02 0.  0.
    3000022    2    5    5    0    0 -0.10983965020E+01 -0.17398819062E+01  0.94314167125E+01  0.96564893803E+01  0.25000404785E+00 0.  0.
        -13    1    4    4    0    0  0.80894049345E+00 -0.91644900075E+00 -0.22402655215E+01  0.25542274957E+01  0.10500000000E+00 0.  1.
         13    1    4    4    0    0  0.10556418831E+01 -0.12935973899E+01 -0.27746561484E+01  0.32399869960E+01  0.10500000000E+00 0.  1.
    3000001    1    5    5    0    0  0.68078218167E+01  0.98232841650E+01  0.51464486486E+02  0.52843511606E+02  0.10000000000E+01 0.  1.
        -13    1    6    6    0    0 -0.53036442456E+00 -0.74329686400E+00  0.39927894243E+01  0.40972147903E+01  0.10500000000E+00 0.  1.
         13    1    6    6    0    0 -0.56803207743E+00 -0.99658504221E+00  0.54386272882E+01  0.55592745900E+01  0.10500000000E+00 0. -1.
</event>
<event>
11    0  0.3396091E-009  0.9118800E+02  0.7816531E-02  0.1126479E+00
         25   -1    0    0    0    0  0.00000000000E+00  0.00000000000E+00  0.99999998245E-14  0.12500000000E+03  0.12500000000E+03 0.  0.
    3000001    1    3    3    0    0 -0.67476577616E+00  0.55114881802E+00  0.26014923500E+01  0.29200747112E+01  0.10000000000E+01 0. -1.
    1000022    2    1    0    0    0 -0.46338686878E+02 -0.67565850731E+01  0.40166213549E+02  0.62499999556E+02  0.99999945113E+01 0.  0.
    3000022    2    3    3    0    0 -0.45663921102E+02 -0.73077338911E+01  0.37564721199E+02  0.59579924845E+02  0.25000149006E+00 0.  0.
    1000022    2    1    0    0    0  0.46338686878E+02  0.67565850731E+01 -0.40166213549E+02  0.62500000444E+02  0.10000000060E+02 0.  0.
    3000022    2    5    5    0    0  0.25624671412E+02  0.29004904187E+01 -0.15684575298E+02  0.30184516320E+02  0.24998709965E+00 0.  0.
        -13    1    4    4    0    0 -0.22504144416E+02 -0.36433589966E+01  0.18587231425E+02  0.29414397457E+02  0.10500000000E+00 0.  1.
         13    1    4    4    0    0 -0.23159776685E+02 -0.36643748945E+01  0.18977489774E+02  0.30165527388E+02  0.10500000000E+00 0. -1.
    3000001    1    5    5    0    0  0.20714015466E+02  0.38560946544E+01 -0.24481638251E+02  0.32315484124E+02  0.10000000000E+01 0.  1.
        -13    1    6    6    0    0  0.10627264748E+02  0.12104686167E+01 -0.65803062735E+01  0.12558481037E+02  0.10500000000E+00 0. -1.
         13    1    6    6    0    0  0.14997406664E+02  0.16900218020E+01 -0.91042690245E+01  0.17626035283E+02  0.10500000000E+00 0.  1.
</event>
<event>
11    0  0.3396091E-009  0.9118800E+02  0.7816531E-02  0.1126479E+00
         25   -1    0    0    0    0  0.00000000000E+00  0.00000000000E+00  0.99999998245E-14  0.12500000000E+03  0.12500000000E+03 0.  0.
    3000001    1    3    3    0    0  0.21208912167E+02  0.65188876303E+01 -0.48611469431E+02  0.53445194466E+02  0.10000000000E+01 0.  1.
    1000022    2    1    0    0    0  0.25927108039E+02  0.38267732180E+01 -0.55851507632E+02  0.62500000243E+02  0.10000000055E+02 0.  0.
    3000022    2    3    3    0    0  0.47181958719E+01 -0.26921144122E+01 -0.72400382009E+01  0.90548057773E+01  0.25000443748E+00 0.  0.
    1000022    2    1    0    0    0 -0.25927108039E+02 -0.38267732180E+01  0.55851507632E+02  0.62499999757E+02  0.99999970142E+01 0.  0.
    3000022    2    5    5    0    0 -0.21696641170E+02 -0.66529366325E+01  0.42560587466E+02  0.48233514259E+02  0.24997699207E+00 0.  0.
        -13    1    4    4    0    0  0.17530507890E+01 -0.10700007336E+01 -0.27359342956E+01  0.34226378874E+01  0.10500000000E+00 0.  1.
         13    1    4    4    0    0  0.29651450829E+01 -0.16221136787E+01 -0.45041039054E+01  0.56321678899E+01  0.10500000000E+00 0. -1.
    3000001    1    5    5    0    0 -0.42304668693E+01  0.28261634144E+01  0.13290920166E+02  0.14266485497E+02  0.10000000000E+01 0.  1.
        -13    1    6    6    0    0 -0.10894486206E+02 -0.34113314935E+01  0.21398728092E+02  0.24253733758E+02  0.10500000000E+00 0.  1.
         13    1    6    6    0    0 -0.10802154964E+02 -0.32416051390E+01  0.21161859373E+02  0.23979780501E+02  0.10500000000E+00 0. -1.
</event>
<event>
11    0  0.3396091E-009  0.9118800E+02  0.7816531E-02  0.1126479E+00
         25   -1    0    0    0    0  0.00000000000E+00  0.00000000000E+00  0.99999998245E-14  0.12500000000E+03  0.12500000000E+03 0.  0.
    3000001    1    3    3    0    0  0.16818448760E+02 -0.13417155080E+02  0.24571850668E+02  0.32675007489E+02  0.10000000000E+01 0.  1.
    1000022    2    1    0    0    0  0.33821632322E+02 -0.32170622926E+02  0.40341024199E+02  0.62499999477E+02  0.99999954425E+01 0.  0.
    3000022    2    3    3    0    0  0.17003183563E+02 -0.18753467847E+02  0.15769173530E+02  0.29824991989E+02  0.25001150324E+00 0.  0.
    1000022    2    1    0    0    0 -0.33821632322E+02  0.32170622926E+02 -0.40341024199E+02  0.62500000523E+02  0.10000001976E+02 0.  0.
    3000022    2    5    5    0    0 -0.48218364121E+01  0.62302183049E+00 -0.38198781645E+01  0.61880710104E+01  0.24998210360E+00 0.  0.
        -13    1    4    4    0    0  0.10959232810E+02 -0.12073273870E+02  0.10223928385E+02  0.19245998607E+02  0.10500000000E+00 0. -1.
         13    1    4    4    0    0  0.60439507526E+01 -0.66801939763E+01  0.55452451448E+01  0.10578993382E+02  0.10500000000E+00 0.  1.
    3000001    1    5    5    0    0 -0.28999795910E+02  0.31547601096E+02 -0.36521146034E+02  0.56311929512E+02  0.10000000000E+01 0.  1.
        -13    1    6    6    0    0 -0.23013968522E+01  0.24845013243E+00 -0.18782340438E+01  0.29827743902E+01  0.10500000000E+00 0. -1.
         13    1    6    6    0    0 -0.25204395599E+01  0.37457169806E+00 -0.19416441207E+01  0.32052966203E+01  0.10500000000E+00 0.  1.
</event>
<event>
11    0  0.3396091E-009  0.9118800E+02  0.7816531E-02  0.1126479E+00
         25   -1    0    0    0    0  0.00000000000E+00  0.00000000000E+00  0.99999998245E-14  0.12500000000E+03  0.12500000000E+03 0.  0.
    3000001    1    3    3    0    0  0.35658102837E+01  0.11379731842E+02  0.73309446673E+01  0.14034103088E+02  0.10000000000E+01 0.  1.
    1000022    2    1    0    0    0  0.13422743766E+02  0.57993581719E+02  0.16211857746E+02  0.62500000929E+02  0.10000010688E+02 0.  0.
    3000022    2    3    3    0    0  0.98569334822E+01  0.46613849877E+02  0.88809130783E+01  0.48465897841E+02  0.24999676563E+00 0.  0.
    1000022    2    1    0    0    0 -0.13422743766E+02 -0.57993581719E+02 -0.16211857746E+02  0.62499999071E+02  0.99999990781E+01 0.  0.
    3000022    2    5    5    0    0 -0.93790656831E+01 -0.48592363917E+02 -0.10010847010E+02  0.50492219812E+02  0.24999914691E+00 0.  0.
        -13    1    4    4    0    0  0.67384425995E+01  0.32100286488E+02  0.61201605092E+01  0.33366186341E+02  0.10500000000E+00 0. -1.
         13    1    4    4    0    0  0.31184908827E+01  0.14513563389E+02  0.27607525691E+01  0.15099711500E+02  0.10500000000E+00 0.  1.
    3000001    1    5    5    0    0 -0.40436780829E+01 -0.94012178018E+01 -0.62010107352E+01  0.12007779259E+02  0.10000000000E+01 0. -1.
        -13    1    6    6    0    0 -0.52186958835E+01 -0.27328500685E+02 -0.56650577380E+01  0.28393408401E+02  0.10500000000E+00 0. -1.
         13    1    6    6    0    0 -0.41603697996E+01 -0.21263863232E+02 -0.43457892724E+01  0.22098811412E+02  0.10500000000E+00 0.  1.
</event>
<event>
11    0  0.3396091E-009  0.9118800E+02  0.7816531E-02  0.1126479E+00
         25   -1    0    0    0    0  0.00000000000E+00  0.00000000000E+00  0.99999998245E-14  0.12500000000E+03  0.12500000000E+03 0.  0.
    3000001    1    3    3    0    0 -0.84968150755E+01  0.76884625176E+01  0.27380877092E+02  0.29698834197E+02  0.10000000000E+01 0.  1.
    1000022    2    1    0    0    0 -0.90297139080E+01  0.21597504393E+02  0.57081193060E+02  0.62500003328E+02  0.99999942783E+01 0.  0.
    3000022    2    3    3    0    0 -0.53289883247E+00  0.13909041875E+02  0.29700315968E+02  0.32801169131E+02  0.25000143963E+00 0.  0.
    1000022    2    1    0    0    0  0.90297139080E+01 -0.21597504393E+02 -0.57081193060E+02  0.62499996672E+02  0.99999526794E+01 0.  0.
    3000022    2    5    5    0    0  0.40048170231E+01 -0.12659564259E+01 -0.64728166364E+01  0.77201719582E+01  0.24998959113E+00 0.  0.
        -13    1    4    4    0    0 -0.24722370280E+00  0.71266248332E+01  0.15363042116E+02  0.16937650047E+02  0.10500000000E+00 0.  1.
         13    1    4    4    0    0 -0.28567512967E+00  0.67824170423E+01  0.14337273852E+02  0.15863519084E+02  0.10500000000E+00 0. -1.
    3000001    1    5    5    0    0  0.50248968849E+01 -0.20331547967E+02 -0.50608376424E+02  0.54779824714E+02  0.10000000000E+01 0.  1.
        -13    1    6    6    0    0  0.22166895802E+01 -0.77008637589E+00 -0.36077096999E+01  0.43050365852E+01  0.10500000000E+00 0.  1.
         13    1    6    6    0    0  0.17881274429E+01 -0.49587005000E+00 -0.28651069364E+01  0.34151353730E+01  0.10500000000E+00 0. -1.
</event>
<event>
11    0  0.3396091E-009  0.9118800E+02  0.7816531E-02  0.1126479E+00
         25   -1    0    0    0    0  0.00000000000E+00  0.00000000000E+00  0.99999998245E-14  0.12500000000E+03  0.12500000000E+03 0.  0.
    3000001    1    3    3    0    0  0.87845522721E+01  0.31023769191E+01  0.15790207591E+01  0.95019160030E+01  0.10000000000E+01 0. -1.
    1000022    2    1    0    0    0  0.47651285765E+02  0.39126916464E+02  0.21654858702E+01  0.62499999596E+02  0.99999996670E+01 0.  0.
    3000022    2    3    3    0    0  0.38866733493E+02  0.36024539545E+02  0.58646511109E+00  0.52998083593E+02  0.25000264292E+00 0.  0.
    1000022    2    1    0    0    0 -0.47651285765E+02 -0.39126916464E+02 -0.21654858702E+01  0.62500000404E+02  0.10000004722E+02 0.  0.
    3000022    2    5    5    0    0 -0.29461549907E+02 -0.17910522696E+02 -0.19567354422E+01  0.34534925188E+02  0.24999598767E+00 0.  0.
        -13    1    4    4    0    0  0.26169613600E+02  0.24195597535E+02  0.42239573455E+00  0.35643583704E+02  0.10500000000E+00 0. -1.
         13    1    4    4    0    0  0.12697119893E+02  0.11828942010E+02  0.16406937654E+00  0.17354499889E+02  0.10500000000E+00 0.  1.
    3000001    1    5    5    0    0 -0.18189735858E+02 -0.21216393768E+02 -0.20875042799E+00  0.27965075216E+02  0.10000000000E+01 0. -1.
        -13    1    6    6    0    0 -0.13283938123E+02 -0.80011369036E+01 -0.86045996741E+00  0.15531665080E+02  0.10500000000E+00 0. -1.
         13    1    6    6    0    0 -0.16177611784E+02 -0.99093857924E+01 -0.10962754748E+01  0.19003260108E+02  0.10500000000E+00 0.  1.
</event>
<event>
11    0  0.3396091E-009  0.9118800E+02  0.7816531E-02  0.1126479E+00
         25   -1    0    0    0    0  0.00000000000E+00  0.00000000000E+00  0.99999998245E-14  0.12500000000E+03  0.12500000000E+03 0.  0.
    3000001    1    3    3    0    0  0.64918626158E+01 -0.25064688418E+01  0.30120709205E+00  0.70368595260E+01  0.10000000000E+01 0.  1.
    1000022    2    1    0    0    0  0.42899794491E+02 -0.44328713062E+02 -0.90706309881E+00  0.62500000642E+02  0.10000007384E+02 0.  0.
    3000022    2    3    3    0    0  0.36407931875E+02 -0.41822244220E+02 -0.12082701909E+01  0.55463141116E+02  0.24998109192E+00 0.  0.
    1000022    2    1    0    0    0 -0.42899794491E+02  0.44328713062E+02  0.90706309881E+00  0.62499999358E+02  0.99999993623E+01 0.  0.
    3000022    2    5    5    0    0 -0.21492041933E+02  0.18961314692E+02  0.48113935702E+01  0.29062885756E+02  0.24999814451E+00 0.  0.
        -13    1    4    4    0    0  0.14124480039E+02 -0.16131518202E+02 -0.46169804129E+00  0.21446468380E+02  0.10500000000E+00 0.  1.
         13    1    4    4    0    0  0.22283451836E+02 -0.25690726018E+02 -0.74657214957E+00  0.34016672736E+02  0.10500000000E+00 0. -1.
    3000001    1    5    5    0    0 -0.21407752558E+02  0.25367398370E+02 -0.39043304714E+01  0.33437113602E+02  0.10000000000E+01 0.  1.
        -13    1    6    6    0    0 -0.51988617390E+01  0.45620411093E+01  0.11700977420E+01  0.70157349002E+01  0.10500000000E+00 0. -1.
         13    1    6    6    0    0 -0.16293180194E+02  0.14399273583E+02  0.36412958283E+01  0.22047150856E+02  0.10500000000E+00 0.  1.
</event>
<event>
11    0  0.3396091E-009  0.9118800E+02  0.7816531E-02  0.1126479E+00
         25   -1    0    0    0    0  0.00000000000E+00  0.00000000000E+00  0.99999998245E-14  0.12500000000E+03  0.12500000000E+03 0.  0.
    3000001    1    3    3    0    0 -0.38818206287E+00 -0.58874598937E+01  0.39636076781E+02  0.40085302193E+02  0.10000000000E+01 0.  1.
    1000022    2    1    0    0    0  0.59090825596E+01 -0.12315760506E+02  0.60163563716E+02  0.62500002299E+02  0.10000033737E+02 0.  0.
    3000022    2    3    3    0    0  0.62972646225E+01 -0.64283006118E+01  0.20527486935E+02  0.22414700105E+02  0.24994090553E+00 0.  0.
    1000022    2    1    0    0    0 -0.59090825596E+01  0.12315760506E+02 -0.60163563716E+02  0.62499997701E+02  0.10000005005E+02 0.  0.
    3000022    2    5    5    0    0 -0.85958347086E+01  0.81041730698E+01 -0.43334005530E+02  0.44916194512E+02  0.24999744846E+00 0.  0.
        -13    1    4    4    0    0  0.37805800641E+01 -0.37836887568E+01  0.12286830297E+02  0.13400981679E+02  0.10500000000E+00 0. -1.
         13    1    4    4    0    0  0.25166845584E+01 -0.26446118550E+01  0.82406566383E+01  0.90137184259E+01  0.10500000000E+00 0.  1.
    3000001    1    5    5    0    0  0.26867521490E+01  0.42115874358E+01 -0.16829558187E+02  0.17583803189E+02  0.10000000000E+01 0. -1.
        -13    1    6    6    0    0 -0.41634105570E+01  0.38416895980E+01 -0.20891422492E+02  0.21646134185E+02  0.10500000000E+00 0. -1.
         13    1    6    6    0    0 -0.44324241516E+01  0.42624834718E+01 -0.22442583038E+02  0.23270060327E+02  0.10500000000E+00 0.  1.
</event>
<event>
11    0  0.3396091E-009  0.9118800E+02  0.7816531E-02  0.1126479E+00
         25   -1    0    0    0    0  0.00000000000E+00  0.00000000000E+00  0.99999998245E-14  0.12500000000E+03  0.12500000000E+03 0.  0.
    3000001    1    3    3    0    0  0.59427013255E+02 -0.43429039326E+01  0.20087841885E+01  0.59627727887E+02  0.10000000000E+01 0.  1.
    1000022    2    1    0    0    0  0.61307493924E+02 -0.60418291839E+01  0.33372783123E+01  0.62500000460E+02  0.10000005996E+02 0.  0.
    3000022    2    3    3    0    0  0.18804806682E+01 -0.16989252513E+01  0.13284941238E+01  0.28722725735E+01  0.24999709302E+00 0.  0.
    1000022    2    1    0    0    0 -0.61307493924E+02  0.60418291839E+01 -0.33372783123E+01  0.62499999540E+02  0.10000000242E+02 0.  0.
    3000022    2    5    5    0    0 -0.11432420370E+02  0.24169672134E+01 -0.43556275796E+01  0.12473010608E+02  0.25007199286E+00 0.  0.
        -13    1    4    4    0    0  0.14344593180E+01 -0.12904035548E+01  0.98684204918E+00  0.21697228162E+01  0.10500000000E+00 0. -1.
         13    1    4    4    0    0  0.44602135017E+00 -0.40852169652E+00  0.34165207459E+00  0.70254975724E+00  0.10500000000E+00 0.  1.
    3000001    1    5    5    0    0 -0.49875073554E+02  0.36248619705E+01  0.10183492673E+01  0.50026988931E+02  0.10000000000E+01 0.  1.
        -13    1    6    6    0    0 -0.34564075755E+01  0.70399436995E+00 -0.12742605226E+01  0.37519496639E+01  0.10500000000E+00 0. -1.
         13    1    6    6    0    0 -0.79760127944E+01  0.17129728434E+01 -0.30813670569E+01  0.87210609446E+01  0.10500000000E+00 0.  1.
</event>
<event>
11    0  0.3396091E-009  0.9118800E+02  0.7816531E-02  0.1126479E+00
         25   -1    0    0    0    0  0.00000000000E+00  0.00000000000E+00  0.99999998245E-14  0.12500000000E+03  0.12500000000E+03 0.  0.
    3000001    1    3    3    0    0  0.15870157803E+02 -0.24479152030E+02 -0.87396021537E+00  0.29203674414E+02  0.10000000000E+01 0. -1.
    1000022    2    1    0    0    0  0.41478362393E+02 -0.45449861063E+02 -0.44839742873E+01  0.62500002753E+02  0.99999950625E+01 0.  0.
    3000022    2    3    3    0    0  0.25608204590E+02 -0.20970709033E+02 -0.36100140719E+01  0.33296328339E+02  0.24999921618E+00 0.  0.
    1000022    2    1    0    0    0 -0.41478362393E+02  0.45449861063E+02  0.44839742873E+01  0.62499997247E+02  0.99999606519E+01 0.  0.
    3000022    2    5    5    0    0 -0.92402081870E+01  0.11474757442E+02  0.52641007247E+01  0.15646877288E+02  0.25001345719E+00 0.  0.
        -13    1    4    4    0    0  0.17150058843E+02 -0.14006146445E+02 -0.23706296771E+01  0.22269431215E+02  0.10500000000E+00 0. -1.
         13    1    4    4    0    0  0.84581457467E+01 -0.69645625877E+01 -0.12393843948E+01  0.11026897124E+02  0.10500000000E+00 0.  1.
    3000001    1    5    5    0    0 -0.32238154206E+02  0.33975103620E+02 -0.78012643745E+00  0.46853119959E+02  0.10000000000E+01 0. -1.
        -13    1    6    6    0    0 -0.34632104171E+01  0.43034610457E+01  0.19100241330E+01  0.58457523514E+01  0.10500000000E+00 0.  1.
         13    1    6    6    0    0 -0.57769977699E+01  0.71712963967E+01  0.33540765917E+01  0.98011249367E+01  0.10500000000E+00 0. -1.
</event>
<event>
11    0  0.3396091E-009  0.9118800E+02  0.7816531E-02  0.1126479E+00
         25   -1    0    0    0    0  0.00000000000E+00  0.00000000000E+00  0.99999998245E-14  0.12500000000E+03  0.12500000000E+03 0.  0.
    3000001    1    3    3    0    0 -0.16975232011E+02  0.35430785234E+02 -0.44356702894E+02  0.59262265698E+02  0.10000000000E+01 0. -1.
    1000022    2    1    0    0    0 -0.18337409494E+02  0.38333851488E+02 -0.44727013251E+02  0.62500004494E+02  0.10000004526E+02 0.  0.
    3000022    2    3    3    0    0 -0.13621774824E+01  0.29030662548E+01 -0.37031035710E+00  0.32377387955E+01  0.25000314835E+00 0.  0.
    1000022    2    1    0    0    0  0.18337409494E+02 -0.38333851488E+02  0.44727013251E+02  0.62499995506E+02  0.99999483514E+01 0.  0.
    3000022    2    5    5    0    0  0.10676611763E+02 -0.18628016563E+02  0.15812626245E+02  0.26666358683E+02  0.24999376123E+00 0.  0.
        -13    1    4    4    0    0 -0.90497957741E+00  0.18575479217E+01 -0.28751207176E+00  0.20888179691E+01  0.10500000000E+00 0.  1.
         13    1    4    4    0    0 -0.45719790499E+00  0.10455183331E+01 -0.82798285340E-01  0.11489208264E+01  0.10500000000E+00 0. -1.
    3000001    1    5    5    0    0  0.76607977308E+01 -0.19705834926E+02  0.28914387006E+02  0.35833636823E+02  0.10000000000E+01 0.  1.
        -13    1    6    6    0    0  0.32161090291E+01 -0.55284494712E+01  0.46875214107E+01  0.79303841533E+01  0.10500000000E+00 0.  1.
         13    1    6    6    0    0  0.74605027338E+01 -0.13099567092E+02  0.11125104834E+02  0.18735974530E+02  0.10500000000E+00 0. -1.
</event>
<event>
11    0  0.3396091E-009  0.9118800E+02  0.7816531E-02  0.1126479E+00
         25   -1    0    0    0    0  0.00000000000E+00  0.00000000000E+00  0.99999998245E-14  0.12500000000E+03  0.12500000000E+03 0.  0.
    3000001    1    3    3    0    0  0.97200600881E+01 -0.45021972219E+01 -0.12418568211E+02  0.16430769438E+02  0.10000000000E+01 0.  1.
    1000022    2    1    0    0    0  0.47912040669E+02 -0.94536688070E+01 -0.37700323956E+02  0.62500001279E+02  0.10000011928E+02 0.  0.
    3000022    2    3    3    0    0  0.38191980581E+02 -0.49514715851E+01 -0.25281755745E+02  0.46069231841E+02  0.24999456814E+00 0.  0.
    1000022    2    1    0    0    0 -0.47912040669E+02  0.94536688070E+01  0.37700323956E+02  0.62499998721E+02  0.99999959384E+01 0.  0.
    3000022    2    5    5    0    0 -0.32135687805E+02  0.35587602428E+01  0.19858943925E+02  0.37944793609E+02  0.25000616624E+00 0.  0.
        -13    1    4    4    0    0  0.27686156212E+02 -0.36206444947E+01 -0.18303558079E+02  0.33386577778E+02  0.10500000000E+00 0.  1.
         13    1    4    4    0    0  0.10505824369E+02 -0.13308270904E+01 -0.69781976663E+01  0.12682654063E+02  0.10500000000E+00 0. -1.
    3000001    1    5    5    0    0 -0.15776352864E+02  0.58949085642E+01  0.17841380031E+02  0.24555205112E+02  0.10000000000E+01 0. -1.
        -13    1    6    6    0    0 -0.24174315250E+02  0.27020333303E+01  0.14937300955E+02  0.28545270830E+02  0.10500000000E+00 0. -1.
         13    1    6    6    0    0 -0.79613725547E+01  0.85672691247E+00  0.49216429700E+01  0.93995227794E+01  0.10500000000E+00 0.  1.
</event>
<event>
11    0  0.3396091E-009  0.9118800E+02  0.7816531E-02  0.1126479E+00
         25   -1    0    0    0    0  0.00000000000E+00  0.00000000000E+00  0.99999998245E-14  0.12500000000E+03  0.12500000000E+03 0.  0.
    3000001    1    3    3    0    0 -0.45875021050E+01 -0.53858039043E+01  0.22095655266E+02  0.23222188547E+02  0.10000000000E+01 0.  1.
    1000022    2    1    0    0    0 -0.23488957226E+02 -0.89750900197E+01  0.56337968097E+02  0.62499999643E+02  0.99999976843E+01 0.  0.
    3000022    2    3    3    0    0 -0.18901455121E+02 -0.35892861154E+01  0.34242312831E+02  0.39277811096E+02  0.24995204794E+00 0.  0.
    1000022    2    1    0    0    0  0.23488957226E+02  0.89750900197E+01 -0.56337968097E+02  0.62500000357E+02  0.10000002147E+02 0.  0.
    3000022    2    5    5    0    0  0.15682446355E+02  0.12019975856E+01 -0.28654879879E+02  0.32688661050E+02  0.24999706247E+00 0.  0.
        -13    1    4    4    0    0 -0.12829605448E+02 -0.23847914174E+01  0.23238830568E+02  0.26652209612E+02  0.10500000000E+00 0. -1.
         13    1    4    4    0    0 -0.60718496730E+01 -0.12044946980E+01  0.11003482263E+02  0.12625601484E+02  0.10500000000E+00 0.  1.
    3000001    1    5    5    0    0  0.78065108708E+01  0.77730924341E+01 -0.27683088218E+02  0.29811339306E+02  0.10000000000E+01 0. -1.
        -13    1    6    6    0    0  0.11961215535E+02  0.92478954453E+00 -0.21823710648E+02  0.24904041524E+02  0.10500000000E+00 0. -1.
         13    1    6    6    0    0  0.37212308196E+01  0.27720804109E+00 -0.68311692307E+01  0.77846195263E+01  0.10500000000E+00 0.  1.
</event>
<event>
11    0  0.3396091E-009  0.9118800E+02  0.7816531E-02  0.1126479E+00
         25   -1    0    0    0    0  0.00000000000E+00  0.00000000000E+00  0.99999998245E-14  0.12500000000E+03  0.12500000000E+03 0.  0.
    3000001    1    3    3    0    0 -0.14751872028E+01  0.98001248857E+00  0.44233632937E+01  0.48685464554E+01  0.10000000000E+01 0.  1.
    1000022    2    1    0    0    0  0.52377241597E+01  0.33113608415E+02  0.51790976269E+02  0.62499999936E+02  0.99999976219E+01 0.  0.
    3000022    2    3    3    0    0  0.67129113625E+01  0.32133595926E+02  0.47367612975E+02  0.57631453480E+02  0.25001030182E+00 0.  0.
    1000022    2    1    0    0    0 -0.52377241597E+01 -0.33113608415E+02 -0.51790976269E+02  0.62500000064E+02  0.99999984273E+01 0.  0.
    3000022    2    5    5    0    0 -0.62413222411E+01 -0.20561781373E+02 -0.25613885114E+02  0.33434631109E+02  0.24998039323E+00 0.  0.
        -13    1    4    4    0    0  0.33644517464E+01  0.16330911921E+02  0.23972036567E+02  0.29200818172E+02  0.10500000000E+00 0.  1.
         13    1    4    4    0    0  0.33484596161E+01  0.15802684005E+02  0.23395576408E+02  0.28430635308E+02  0.10500000000E+00 0. -1.
    3000001    1    5    5    0    0  0.10035980814E+01 -0.12551827042E+02 -0.26177091155E+02  0.29065368956E+02  0.10000000000E+01 0. -1.
        -13    1    6    6    0    0 -0.42104797431E+01 -0.13900983954E+02 -0.17391935547E+02  0.22659566228E+02  0.10500000000E+00 0. -1.
         13    1    6    6    0    0 -0.20308424980E+01 -0.66607974193E+01 -0.82219495668E+01  0.10775064881E+02  0.10500000000E+00 0.  1.
</event>
<event>
11    0  0.3396091E-009  0.9118800E+02  0.7816531E-02  0.1126479E+00
         25   -1    0    0    0    0  0.00000000000E+00  0.00000000000E+00  0.99999998245E-14  0.12500000000E+03  0.12500000000E+03 0.  0.
    3000001    1    3    3    0    0 -0.19761096522E+01 -0.49599847313E+00 -0.96564641016E+00  0.24664745756E+01  0.10000000000E+01 0. -1.
    1000022    2    1    0    0    0 -0.35433706588E+02 -0.49627428253E+02 -0.93712434857E+01  0.62500004790E+02  0.10000059837E+02 0.  0.
    3000022    2    3    3    0    0 -0.33457596936E+02 -0.49131429780E+02 -0.84055970755E+01  0.60033530215E+02  0.25000578995E+00 0.  0.
    1000022    2    1    0    0    0  0.35433706588E+02  0.49627428253E+02  0.93712434857E+01  0.62499995210E+02  0.99999999561E+01 0.  0.
    3000022    2    5    5    0    0  0.32266503369E+02  0.42439186654E+02  0.52434070924E+01  0.53570212076E+02  0.25000089975E+00 0.  0.
        -13    1    4    4    0    0 -0.17017835718E+02 -0.25051022998E+02 -0.43416011188E+01  0.30594460463E+02  0.10500000000E+00 0.  1.
         13    1    4    4    0    0 -0.16439761218E+02 -0.24080406782E+02 -0.40639959567E+01  0.29439069751E+02  0.10500000000E+00 0. -1.
    3000001    1    5    5    0    0  0.31672032200E+01  0.71882415990E+01  0.41278363933E+01  0.89297831335E+01  0.10000000000E+01 0. -1.
        -13    1    6    6    0    0  0.10466713059E+02  0.13850645846E+02  0.17180217502E+01  0.17445775889E+02  0.10500000000E+00 0.  1.
         13    1    6    6    0    0  0.21799790309E+02  0.28588540808E+02  0.35253853421E+01  0.36124436187E+02  0.10500000000E+00 0. -1.
</event>
<event>
11    0  0.3396091E-009  0.9118800E+02  0.7816531E-02  0.1126479E+00
         25   -1    0    0    0    0  0.00000000000E+00  0.00000000000E+00  0.99999998245E-14  0.12500000000E+03  0.12500000000E+03 0.  0.
    3000001    1    3    3    0    0  0.45966825038E+00 -0.99552539375E+00 -0.44552982183E-01  0.14847055864E+01  0.10000000000E+01 0. -1.
    1000022    2    1    0    0    0  0.23529868679E+02 -0.29465712347E+02 -0.48829980574E+02  0.62499999866E+02  0.10000002812E+02 0.  0.
    3000022    2    3    3    0    0  0.23070200429E+02 -0.28470186954E+02 -0.48785427592E+02  0.61015294280E+02  0.24999550809E+00 0.  0.
    1000022    2    1    0    0    0 -0.23529868679E+02  0.29465712347E+02  0.48829980574E+02  0.62500000134E+02  0.10000004483E+02 0.  0.
    3000022    2    5    5    0    0 -0.65957742695E+01  0.10294482569E+02  0.23478307061E+02  0.26472136547E+02  0.25000271006E+00 0.  0.
        -13    1    4    4    0    0  0.77082771986E+01 -0.94457950257E+01 -0.16176821112E+02  0.20256879013E+02  0.10500000000E+00 0. -1.
         13    1    4    4    0    0  0.15361923230E+02 -0.19024391928E+02 -0.32608606479E+02  0.40758415267E+02  0.10500000000E+00 0.  1.
    3000001    1    5    5    0    0 -0.16934094410E+02  0.19171229778E+02  0.25351673513E+02  0.36027863586E+02  0.10000000000E+01 0.  1.
        -13    1    6    6    0    0 -0.50691491170E+01  0.78926670998E+01  0.18022990898E+02  0.20318210862E+02  0.10500000000E+00 0. -1.
         13    1    6    6    0    0 -0.15266251525E+01  0.24018154692E+01  0.54553161626E+01  0.61539256851E+01  0.10500000000E+00 0.  1.
</event>
<event>
11    0  0.3396091E-009  0.9118800E+02  0.7816531E-02  0.1126479E+00
         25   -1    0    0    0    0  0.00000000000E+00  0.00000000000E+00  0.99999998245E-14  0.12500000000E+03  0.12500000000E+03 0.  0.
    3000001    1    3    3    0    0  0.45605490308E+02  0.27256532714E+02  0.26738093201E+01  0.53206471206E+02  0.10000000000E+01 0.  1.
    1000022    2    1    0    0    0  0.51027410364E+02  0.34655550565E+02  0.12025869040E+01  0.62499999983E+02  0.99999994626E+01 0.  0.
    3000022    2    3    3    0    0  0.54219200552E+01  0.73990178507E+01 -0.14712224161E+01  0.92935287775E+01  0.24999900098E+00 0.  0.
    1000022    2    1    0    0    0 -0.51027410364E+02 -0.34655550565E+02 -0.12025869040E+01  0.62500000017E+02  0.99999996737E+01 0.  0.
    3000022    2    5    5    0    0 -0.44967675841E+02 -0.31060377513E+02  0.20153571399E+01  0.54689698126E+02  0.24998984102E+00 0.  0.
        -13    1    4    4    0    0  0.26242440533E+01  0.35069751559E+01 -0.65042192796E+00  0.44294023615E+01  0.10500000000E+00 0.  1.
         13    1    4    4    0    0  0.27976760018E+01  0.38920426948E+01 -0.82080048816E+00  0.48641264160E+01  0.10500000000E+00 0. -1.
    3000001    1    5    5    0    0 -0.60597345222E+01 -0.35951730524E+01 -0.32179440439E+01  0.78103018908E+01  0.10000000000E+01 0. -1.
        -13    1    6    6    0    0 -0.18974547498E+02 -0.13179507710E+02  0.87624659293E+00  0.23119509279E+02  0.10500000000E+00 0.  1.
         13    1    6    6    0    0 -0.25993128344E+02 -0.17880869803E+02  0.11391105469E+01  0.31570188847E+02  0.10500000000E+00 0. -1.
</event>
<event>
11    0  0.3396091E-009  0.9118800E+02  0.7816531E-02  0.1126479E+00
         25   -1    0    0    0    0  0.00000000000E+00  0.00000000000E+00  0.99999998245E-14  0.12500000000E+03  0.12500000000E+03 0.  0.
    3000001    1    3    3    0    0 -0.31017549766E+01 -0.55366708608E+02 -0.56058087508E+01  0.55745119946E+02  0.10000000000E+01 0. -1.
    1000022    2    1    0    0    0 -0.54199532079E+01 -0.61355115137E+02 -0.35247400367E+01  0.62499999806E+02  0.10000006858E+02 0.  0.
    3000022    2    3    3    0    0 -0.23181982313E+01 -0.59884065293E+01  0.20810687141E+01  0.67548798604E+01  0.24999827211E+00 0.  0.
    1000022    2    1    0    0    0  0.54199532079E+01  0.61355115137E+02  0.35247400367E+01  0.62500000194E+02  0.10000009282E+02 0.  0.
    3000022    2    5    5    0    0  0.21102544141E+01  0.15280165928E+02  0.51579840360E+01  0.16266651443E+02  0.25001076296E+00 0.  0.
        -13    1    4    4    0    0 -0.15301439915E+01 -0.40806647188E+01  0.13888564739E+01  0.45752718484E+01  0.10500000000E+00 0. -1.
         13    1    4    4    0    0 -0.78805423979E+00 -0.19077418104E+01  0.69221224028E+00  0.21796080120E+01  0.10500000000E+00 0.  1.
    3000001    1    5    5    0    0  0.33096987938E+01  0.46074949209E+02 -0.16332439993E+01  0.46233348751E+02  0.10000000000E+01 0. -1.
        -13    1    6    6    0    0  0.11518777448E+01  0.85280785416E+01  0.28130465419E+01  0.90542366767E+01  0.10500000000E+00 0.  1.
         13    1    6    6    0    0  0.95837666928E+00  0.67520873864E+01  0.23449374941E+01  0.72124147666E+01  0.10500000000E+00 0. -1.
</event>
<event>
11    0  0.3396091E-009  0.9118800E+02  0.7816531E-02  0.1126479E+00
         25   -1    0    0    0    0  0.00000000000E+00  0.00000000000E+00  0.99999998245E-14  0.12500000000E+03  0.12500000000E+03 0.  0.
    3000001    1    3    3    0    0 -0.76789527521E+01  0.72049836469E+01  0.15366640588E+02  0.18655072974E+02  0.10000000000E+01 0.  1.
    1000022    2    1    0    0    0 -0.26807921933E+02  0.36032106194E+02  0.42299793467E+02  0.62500000653E+02  0.10000009956E+02 0.  0.
    3000022    2    3    3    0    0 -0.19128969181E+02  0.28827122547E+02  0.26933152879E+02  0.43844927678E+02  0.25000572959E+00 0.  0.
    1000022    2    1    0    0    0  0.26807921933E+02 -0.36032106194E+02 -0.42299793467E+02  0.62499999347E+02  0.10000001798E+02 0.  0.
    3000022    2    5    5    0    0  0.88684912545E+01 -0.90507171056E+01 -0.17873952522E+02  0.21911328070E+02  0.25000356487E+00 0.  0.
        -13    1    4    4    0    0 -0.56102901128E+01  0.83833932695E+01  0.78300853561E+01  0.12770195752E+02  0.10500000000E+00 0.  1.
         13    1    4    4    0    0 -0.13518679068E+02  0.20443729277E+02  0.19103067523E+02  0.31074731926E+02  0.10500000000E+00 0. -1.
    3000001    1    5    5    0    0  0.17939430678E+02 -0.26981389088E+02 -0.24425840946E+02  0.40588671278E+02  0.10000000000E+01 0.  1.
        -13    1    6    6    0    0  0.64118375575E+01 -0.65183401284E+01 -0.12835313816E+02  0.15759337697E+02  0.10500000000E+00 0.  1.
         13    1    6    6    0    0  0.24566536970E+01 -0.25323769772E+01 -0.50386387055E+01  0.61519903727E+01  0.10500000000E+00 0. -1.
</event>
<event>
11    0  0.3396091E-009  0.9118800E+02  0.7816531E-02  0.1126479E+00
         25   -1    0    0    0    0  0.00000000000E+00  0.00000000000E+00  0.99999998245E-14  0.12500000000E+03  0.12500000000E+03 0.  0.
    3000001    1    3    3    0    0  0.84243525787E+01  0.31801443349E+02 -0.20245049510E+02  0.38641474417E+02  0.10000000000E+01 0. -1.
    1000022    2    1    0    0    0  0.15659479859E+02  0.46034285066E+02 -0.37972031542E+02  0.62500000028E+02  0.10000005655E+02 0.  0.
    3000022    2    3    3    0    0  0.72351272804E+01  0.14232841717E+02 -0.17726982032E+02  0.23858525611E+02  0.25000453887E+00 0.  0.
    1000022    2    1    0    0    0 -0.15659479859E+02 -0.46034285066E+02  0.37972031542E+02  0.62499999972E+02  0.10000005310E+02 0.  0.
    3000022    2    5    5    0    0 -0.18447465687E+01 -0.15692209565E+02  0.82577170045E+01  0.17829776222E+02  0.24999807090E+00 0.  0.
        -13    1    4    4    0    0  0.45059684169E+01  0.87621854787E+01 -0.10878855093E+02  0.14677879917E+02  0.10500000000E+00 0.  1.
         13    1    4    4    0    0  0.27291588636E+01  0.54706562379E+01 -0.68481269389E+01  0.91806456933E+01  0.10500000000E+00 0. -1.
    3000001    1    5    5    0    0 -0.13814733290E+02 -0.30342075500E+02  0.29714314537E+02  0.44670223751E+02  0.10000000000E+01 0. -1.
        -13    1    6    6    0    0 -0.10150146261E+01 -0.82444790018E+01  0.43975229301E+01  0.93995170952E+01  0.10500000000E+00 0.  1.
         13    1    6    6    0    0 -0.82973194264E+00 -0.74477305637E+01  0.38601940744E+01  0.84302591264E+01  0.10500000000E+00 0. -1.
</event>
<event>
11    0  0.3396091E-009  0.9118800E+02  0.7816531E-02  0.1126479E+00
         25   -1    0    0    0    0  0.00000000000E+00  0.00000000000E+00  0.99999998245E-14  0.12500000000E+03  0.12500000000E+03 0.  0.
    3000001    1    3    3    0    0 -0.33316178874E+01  0.14037769433E+02 -0.66559922082E+01  0.15920454789E+02  0.10000000000E+01 0.  1.
    1000022    2    1    0    0    0 -0.18021516413E+02  0.44807590109E+02 -0.38389515528E+02  0.62499999476E+02  0.99999923453E+01 0.  0.
    3000022    2    3    3    0    0 -0.14689898526E+02  0.30769820675E+02 -0.31733523320E+02  0.46579544687E+02  0.24999582946E+00 0.  0.
    1000022    2    1    0    0    0  0.18021516413E+02 -0.44807590109E+02  0.38389515528E+02  0.62500000524E+02  0.99999988904E+01 0.  0.
    3000022    2    5    5    0    0  0.90663361266E+01 -0.28155298984E+02  0.17775481054E+02  0.34510136806E+02  0.25000799189E+00 0.  0.
        -13    1    4    4    0    0 -0.10734412669E+02  0.22565205360E+02 -0.23258642491E+02  0.34137832149E+02  0.10500000000E+00 0.  1.
         13    1    4    4    0    0 -0.39554858561E+01  0.82046153152E+01 -0.84748808291E+01  0.12441712539E+02  0.10500000000E+00 0. -1.
    3000001    1    5    5    0    0  0.89551802863E+01 -0.16652291124E+02  0.20614034474E+02  0.27989863718E+02  0.10000000000E+01 0.  1.
        -13    1    6    6    0    0  0.44367614648E+01 -0.13998891024E+02  0.88309942638E+01  0.17136256501E+02  0.10500000000E+00 0.  1.
         13    1    6    6    0    0  0.46295746618E+01 -0.14156407961E+02  0.89444867906E+01  0.17373880305E+02  0.10500000000E+00 0. -1.
</event>
<event>
11    0  0.3396091E-009  0.9118800E+02  0.7816531E-02  0.1126479E+00
         25   -1    0    0    0    0  0.00000000000E+00  0.00000000000E+00  0.99999998245E-14  0.12500000000E+03  0.12500000000E+03 0.  0.
    3000001    1    3    3    0    0 -0.19010454696E+02 -0.17249894867E+02 -0.32473722308E+02  0.41406507957E+02  0.10000000000E+01 0.  1.
    1000022    2    1    0    0    0 -0.33405991997E+02 -0.27538175570E+02 -0.43953823957E+02  0.62500001057E+02  0.10000003832E+02 0.  0.
    3000022    2    3    3    0    0 -0.14395537301E+02 -0.10288280703E+02 -0.11480101649E+02  0.21093493100E+02  0.25000652034E+00 0.  0.
    1000022    2    1    0    0    0  0.33405991997E+02  0.27538175570E+02  0.43953823957E+02  0.62499998943E+02  0.99999906178E+01 0.  0.
    3000022    2    5    5    0    0  0.11604117039E+01  0.80786115103E+00 -0.39674911020E+00  0.14896679423E+01  0.25001151978E+00 0.  0.
        -13    1    4    4    0    0 -0.37029744955E+01 -0.26389056490E+01 -0.29859500061E+01  0.54408423592E+01  0.10500000000E+00 0. -1.
         13    1    4    4    0    0 -0.10692562806E+02 -0.76493750538E+01 -0.84941516428E+01  0.15652650740E+02  0.10500000000E+00 0.  1.
    3000001    1    5    5    0    0  0.32245580293E+02  0.26730314419E+02  0.44350573068E+02  0.61010331001E+02  0.10000000000E+01 0.  1.
        -13    1    6    6    0    0  0.48776479566E+00  0.35732110725E+00 -0.10429204331E+00  0.62249072272E+00  0.10500000000E+00 0. -1.
         13    1    6    6    0    0  0.67264690826E+00  0.45054004378E+00 -0.29245706689E+00  0.86717721961E+00  0.10500000000E+00 0.  1.
</event>
<event>
11    0  0.3396091E-009  0.9118800E+02  0.7816531E-02  0.1126479E+00
         25   -1    0    0    0    0  0.00000000000E+00  0.00000000000E+00  0.99999998245E-14  0.12500000000E+03  0.12500000000E+03 0.  0.
    3000001    1    3    3    0    0  0.25586676015E+02 -0.73791993163E+01 -0.16541244916E+02  0.31364683251E+02  0.10000000000E+01 0. -1.
    1000022    2    1    0    0    0  0.44099533733E+02 -0.17499562046E+02 -0.39436612461E+02  0.62500000768E+02  0.10000007317E+02 0.  0.
    3000022    2    3    3    0    0  0.18512857718E+02 -0.10120362730E+02 -0.22895367545E+02  0.31135317517E+02  0.24999842012E+00 0.  0.
    1000022    2    1    0    0    0 -0.44099533733E+02  0.17499562046E+02  0.39436612461E+02  0.62499999232E+02  0.99999977157E+01 0.  0.
    3000022    2    5    5    0    0 -0.16837288695E+02  0.10542741929E+02  0.12120967569E+02  0.23272817247E+02  0.24993959808E+00 0.  0.
        -13    1    4    4    0    0  0.44268265807E+01 -0.24408140128E+01 -0.54785480913E+01  0.74551915341E+01  0.10500000000E+00 0. -1.
         13    1    4    4    0    0  0.14086031137E+02 -0.76795487171E+01 -0.17416819454E+02  0.23680125983E+02  0.10500000000E+00 0.  1.
    3000001    1    5    5    0    0 -0.27262245038E+02  0.69568201173E+01  0.27315644892E+02  0.39227181985E+02  0.10000000000E+01 0.  1.
        -13    1    6    6    0    0 -0.76351039651E+01  0.48310474463E+01  0.54525165203E+01  0.10553425671E+02  0.10500000000E+00 0. -1.
         13    1    6    6    0    0 -0.92021847303E+01  0.57116944825E+01  0.66684510491E+01  0.12719391576E+02  0.10500000000E+00 0.  1.
</event>
<event>
11    0  0.3396091E-009  0.9118800E+02  0.7816531E-02  0.1126479E+00
         25   -1    0    0    0    0  0.00000000000E+00  0.00000000000E+00  0.99999998245E-14  0.12500000000E+03  0.12500000000E+03 0.  0.
    3000001    1    3    3    0    0  0.93561915301E+00 -0.63485636296E+01  0.12149288973E+02  0.13776242808E+02  0.10000000000E+01 0.  1.
    1000022    2    1    0    0    0  0.13993885413E+02 -0.13613128402E+02  0.58524387627E+02  0.62499999733E+02  0.99999962853E+01 0.  0.
    3000022    2    3    3    0    0  0.13058266260E+02 -0.72645647724E+01  0.46375098654E+02  0.48723756925E+02  0.24998937215E+00 0.  0.
    1000022    2    1    0    0    0 -0.13993885413E+02  0.13613128402E+02 -0.58524387627E+02  0.62500000267E+02  0.99999996195E+01 0.  0.
    3000022    2    5    5    0    0 -0.30962701870E+01 -0.82554570691E+00 -0.45857562482E+01  0.56000065703E+01  0.24999686937E+00 0.  0.
        -13    1    4    4    0    0  0.96709147497E+01 -0.53758127089E+01  0.34437302179E+02  0.36171325118E+02  0.10500000000E+00 0. -1.
         13    1    4    4    0    0  0.33873515102E+01 -0.18887520635E+01  0.11937796475E+02  0.12552431808E+02  0.10500000000E+00 0.  1.
    3000001    1    5    5    0    0 -0.10897615226E+02  0.14438674109E+02 -0.53938631379E+02  0.56899993696E+02  0.10000000000E+01 0. -1.
        -13    1    6    6    0    0 -0.86399723857E+00 -0.20098213476E+00 -0.13209451516E+01  0.15946178666E+01  0.10500000000E+00 0.  1.
         13    1    6    6    0    0 -0.22322729484E+01 -0.62456357215E+00 -0.32648110966E+01  0.40053887038E+01  0.10500000000E+00 0. -1.
</event>
<event>
11    0  0.3396091E-009  0.9118800E+02  0.7816531E-02  0.1126479E+00
         25   -1    0    0    0    0  0.00000000000E+00  0.00000000000E+00  0.99999998245E-14  0.12500000000E+03  0.12500000000E+03 0.  0.
    3000001    1    3    3    0    0 -0.23570558312E+02 -0.41619066608E+02  0.25823943612E+02  0.54365374901E+02  0.10000000000E+01 0. -1.
    1000022    2    1    0    0    0 -0.30061672497E+02 -0.45724545402E+02  0.28492304883E+02  0.62500002865E+02  0.10000035755E+02 0.  0.
    3000022    2    3    3    0    0 -0.64911141852E+01 -0.41054787938E+01  0.26683612701E+01  0.81346279639E+01  0.25000150604E+00 0.  0.
    1000022    2    1    0    0    0  0.30061672497E+02  0.45724545402E+02 -0.28492304883E+02  0.62499997135E+02  0.99999999417E+01 0.  0.
    3000022    2    5    5    0    0  0.54574126508E+01  0.13583654194E+02 -0.11376218086E+02  0.18541301551E+02  0.25002232457E+00 0.  0.
        -13    1    4    4    0    0 -0.17671938651E+01 -0.10761413434E+01  0.72646426836E+00  0.21954110506E+01  0.10500000000E+00 0. -1.
         13    1    4    4    0    0 -0.47239203200E+01 -0.30293374504E+01  0.19418970017E+01  0.59392169133E+01  0.10500000000E+00 0.  1.
    3000001    1    5    5    0    0  0.24604259846E+02  0.32140891207E+02 -0.17116086796E+02  0.43958695583E+02  0.10000000000E+01 0. -1.
        -13    1    6    6    0    0  0.33445694347E+01  0.81972245559E+01 -0.68280561556E+01  0.11180966460E+02  0.10500000000E+00 0. -1.
         13    1    6    6    0    0  0.21128432162E+01  0.53864296385E+01 -0.45481619307E+01  0.73603350912E+01  0.10500000000E+00 0.  1.
</event>
<event>
11    0  0.3396091E-009  0.9118800E+02  0.7816531E-02  0.1126479E+00
         25   -1    0    0    0    0  0.00000000000E+00  0.00000000000E+00  0.99999998245E-14  0.12500000000E+03  0.12500000000E+03 0.  0.
    3000001    1    3    3    0    0  0.23626029688E+01 -0.39686330512E+01  0.10197228334E+01  0.48344364449E+01  0.10000000000E+01 0.  1.
    1000022    2    1    0    0    0  0.52820851881E+02 -0.31875767607E+02  0.37800075373E+00  0.62500001026E+02  0.10000014485E+02 0.  0.
    3000022    2    3    3    0    0  0.50458248912E+02 -0.27907134556E+02 -0.64172207966E+00  0.57665564581E+02  0.24997762771E+00 0.  0.
    1000022    2    1    0    0    0 -0.52820851881E+02  0.31875767607E+02 -0.37800075373E+00  0.62499998974E+02  0.10000001660E+02 0.  0.
    3000022    2    5    5    0    0 -0.39723936470E+02  0.19442450510E+02  0.19151499095E+01  0.44268841378E+02  0.25001456862E+00 0.  0.
        -13    1    4    4    0    0  0.31448546704E+02 -0.17427900620E+02 -0.45239735681E+00  0.35957732105E+02  0.10500000000E+00 0.  1.
         13    1    4    4    0    0  0.19009702208E+02 -0.10479233937E+02 -0.18932472284E+00  0.21707832476E+02  0.10500000000E+00 0. -1.
    3000001    1    5    5    0    0 -0.13096915411E+02  0.12433317097E+02 -0.22931506633E+01  0.18231157596E+02  0.10000000000E+01 0. -1.
        -13    1    6    6    0    0 -0.15474824207E+02  0.76147669290E+01  0.79692696885E+00  0.17265600981E+02  0.10500000000E+00 0.  1.
         13    1    6    6    0    0 -0.24249112262E+02  0.11827683581E+02  0.11182229407E+01  0.27003240397E+02  0.10500000000E+00 0. -1.
</event>
<event>
11    0  0.3396091E-009  0.9118800E+02  0.7816531E-02  0.1126479E+00
         25   -1    0    0    0    0  0.00000000000E+00  0.00000000000E+00  0.99999998245E-14  0.12500000000E+03  0.12500000000E+03 0.  0.
    3000001    1    3    3    0    0 -0.34741388296E+02  0.34289138749E+01  0.11156773190E+02  0.36663266345E+02  0.10000000000E+01 0.  1.
    1000022    2    1    0    0    0 -0.55354449879E+02  0.85485157543E+01  0.25866148762E+02  0.62500001072E+02  0.10000011960E+02 0.  0.
    3000022    2    3    3    0    0 -0.20613061583E+02  0.51196018795E+01  0.14709375572E+02  0.25836734726E+02  0.25000074830E+00 0.  0.
    1000022    2    1    0    0    0  0.55354449879E+02 -0.85485157543E+01 -0.25866148762E+02  0.62499998928E+02  0.99999985645E+01 0.  0.
    3000022    2    5    5    0    0  0.10556512411E+02 -0.53044734321E+01 -0.72898660021E+01  0.13884597119E+02  0.24999628525E+00 0.  0.
        -13    1    4    4    0    0 -0.59909962011E+01  0.15184297037E+01  0.43190414642E+01  0.75407432270E+01  0.10500000000E+00 0.  1.
         13    1    4    4    0    0 -0.14622065381E+02  0.36011721758E+01  0.10390334108E+02  0.18295991499E+02  0.10500000000E+00 0. -1.
    3000001    1    5    5    0    0  0.44797937467E+02 -0.32440423222E+01 -0.18576282760E+02  0.48615401810E+02  0.10000000000E+01 0. -1.
        -13    1    6    6    0    0  0.41285168214E+01 -0.21051415386E+01 -0.27941253064E+01  0.54124332116E+01  0.10500000000E+00 0. -1.
         13    1    6    6    0    0  0.64279955898E+01 -0.31993318936E+01 -0.44957406957E+01  0.84721639072E+01  0.10500000000E+00 0.  1.
</event>
<event>
11    0  0.3396091E-009  0.9118800E+02  0.7816531E-02  0.1126479E+00
         25   -1    0    0    0    0  0.00000000000E+00  0.00000000000E+00  0.99999998245E-14  0.12500000000E+03  0.12500000000E+03 0.  0.
    3000001    1    3    3    0    0  0.43102898380E+01  0.83987257073E+00  0.89892727919E+01  0.10054402506E+02  0.10000000000E+01 0.  1.
    1000022    2    1    0    0    0  0.26882926634E+02  0.26216274753E+02  0.48951661205E+02  0.62500000101E+02  0.10000003577E+02 0.  0.
    3000022    2    3    3    0    0  0.22572636796E+02  0.25376402182E+02  0.39962388413E+02  0.52445597595E+02  0.24999956618E+00 0.  0.
    1000022    2    1    0    0    0 -0.26882926634E+02 -0.26216274753E+02 -0.48951661205E+02  0.62499999899E+02  0.10000002316E+02 0.  0.
    3000022    2    5    5    0    0 -0.51695213760E+01 -0.27371433050E+01 -0.32056529067E+01  0.66749261716E+01  0.25004821356E+00 0.  0.
        -13    1    4    4    0    0  0.85521349177E+01  0.95251571279E+01  0.15044497813E+02  0.19753874795E+02  0.10500000000E+00 0. -1.
         13    1    4    4    0    0  0.14020501878E+02  0.15851245054E+02  0.24917890601E+02  0.32691722801E+02  0.10500000000E+00 0.  1.
    3000001    1    5    5    0    0 -0.21713405258E+02 -0.23479131448E+02 -0.45746008298E+02  0.55825073727E+02  0.10000000000E+01 0. -1.
        -13    1    6    6    0    0 -0.14725610078E+01 -0.73469066408E+00 -0.90994642687E+00  0.18834101501E+01  0.10500000000E+00 0. -1.
         13    1    6    6    0    0 -0.36969603681E+01 -0.20024526409E+01 -0.22957064799E+01  0.47915160215E+01  0.10500000000E+00 0.  1.
</event>
<event>
11    0  0.3396091E-009  0.9118800E+02  0.7816531E-02  0.1126479E+00
         25   -1    0    0    0    0  0.00000000000E+00  0.00000000000E+00  0.99999998245E-14  0.12500000000E+03  0.12500000000E+03 0.  0.
    3000001    1    3    3    0    0  0.60940144496E+01  0.56783474180E+01  0.85246630133E+01  0.11960372946E+02  0.10000000000E+01 0.  1.
    1000022    2    1    0    0    0  0.19179002272E+02  0.44023569960E+02  0.38734237403E+02  0.62499999951E+02  0.10000000328E+02 0.  0.
    3000022    2    3    3    0    0  0.13084987822E+02  0.38345222542E+02  0.30209574390E+02  0.50539627005E+02  0.25002989145E+00 0.  0.
    1000022    2    1    0    0    0 -0.19179002272E+02 -0.44023569960E+02 -0.38734237403E+02  0.62500000049E+02  0.10000000938E+02 0.  0.
    3000022    2    5    5    0    0 -0.16859881872E+02 -0.30336186409E+02 -0.31219171828E+02  0.46682320115E+02  0.24999816282E+00 0.  0.
        -13    1    4    4    0    0  0.65602524763E+01  0.19377204766E+02  0.15195259206E+02  0.25483718419E+02  0.10500000000E+00 0. -1.
         13    1    4    4    0    0  0.65247353457E+01  0.18968017776E+02  0.15014315183E+02  0.25055908586E+02  0.10500000000E+00 0.  1.
    3000001    1    5    5    0    0 -0.23191203991E+01 -0.13687383551E+02 -0.75150655746E+01  0.15817679934E+02  0.10000000000E+01 0.  1.
        -13    1    6    6    0    0 -0.70528900348E+01 -0.12675235760E+02 -0.13134359463E+02  0.19568527868E+02  0.10500000000E+00 0.  1.
         13    1    6    6    0    0 -0.98069918377E+01 -0.17660950649E+02 -0.18084812365E+02  0.27113792247E+02  0.10500000000E+00 0. -1.
</event>
<event>
11    0  0.3396091E-009  0.9118800E+02  0.7816531E-02  0.1126479E+00
         25   -1    0    0    0    0  0.00000000000E+00  0.00000000000E+00  0.99999998245E-14  0.12500000000E+03  0.12500000000E+03 0.  0.
    3000001    1    3    3    0    0 -0.23224839948E+02  0.11641607954E+02 -0.14237848716E+01  0.26037422871E+02  0.10000000000E+01 0.  1.
    1000022    2    1    0    0    0 -0.55991641777E+02  0.24703367280E+02  0.78057405521E+01  0.62499999617E+02  0.10000003135E+02 0.  0.
    3000022    2    3    3    0    0 -0.32766801829E+02  0.13061759326E+02  0.92295254237E+01  0.36462576746E+02  0.25000934234E+00 0.  0.
    1000022    2    1    0    0    0  0.55991641777E+02 -0.24703367280E+02 -0.78057405521E+01  0.62500000383E+02  0.10000007924E+02 0.  0.
    3000022    2    5    5    0    0  0.55425267064E+02 -0.23246595550E+02 -0.71283982149E+01  0.60524713865E+02  0.24998699397E+00 0.  0.
        -13    1    4    4    0    0 -0.20833017982E+02  0.83089250941E+01  0.59290079566E+01  0.23199505055E+02  0.10500000000E+00 0. -1.
         13    1    4    4    0    0 -0.11933783847E+02  0.47528342318E+01  0.33005174671E+01  0.13263071691E+02  0.10500000000E+00 0.  1.
    3000001    1    5    5    0    0  0.56637471291E+00 -0.14567717299E+01 -0.67734233720E+00  0.19752865185E+01  0.10000000000E+01 0. -1.
        -13    1    6    6    0    0  0.40687209647E+02 -0.17040298070E+02 -0.52059677479E+01  0.44417720702E+02  0.10500000000E+00 0.  1.
         13    1    6    6    0    0  0.14738057417E+02 -0.62062974795E+01 -0.19224304670E+01  0.16106993163E+02  0.10500000000E+00 0. -1.
</event>
<event>
11    0  0.3396091E-009  0.9118800E+02  0.7816531E-02  0.1126479E+00
         25   -1    0    0    0    0  0.00000000000E+00  0.00000000000E+00  0.99999998245E-14  0.12500000000E+03  0.12500000000E+03 0.  0.
    3000001    1    3    3    0    0  0.15320729695E+02 -0.22082637547E+02  0.29960186869E+02  0.40261401325E+02  0.10000000000E+01 0.  1.
    1000022    2    1    0    0    0  0.30031197761E+02 -0.31671340605E+02  0.43603932692E+02  0.62500002771E+02  0.10000037271E+02 0.  0.
    3000022    2    3    3    0    0  0.14710468067E+02 -0.95887030585E+01  0.13643745823E+02  0.22238601446E+02  0.24999422487E+00 0.  0.
    1000022    2    1    0    0    0 -0.30031197761E+02  0.31671340605E+02 -0.43603932692E+02  0.62499997229E+02  0.10000002637E+02 0.  0.
    3000022    2    5    5    0    0 -0.23449143734E+02  0.24004429367E+02 -0.38701404827E+02  0.51224371188E+02  0.24999381826E+00 0.  0.
        -13    1    4    4    0    0  0.48296036968E+01 -0.30860543987E+01  0.44484316977E+01  0.72559198720E+01  0.10500000000E+00 0. -1.
         13    1    4    4    0    0  0.98808643700E+01 -0.65026486598E+01  0.91953141250E+01  0.14982681574E+02  0.10500000000E+00 0.  1.
    3000001    1    5    5    0    0 -0.65820540276E+01  0.76669112385E+01 -0.49025278644E+01  0.11275626041E+02  0.10000000000E+01 0. -1.
        -13    1    6    6    0    0 -0.95844009822E+01  0.98632167727E+01 -0.15780993039E+02  0.20933097085E+02  0.10500000000E+00 0. -1.
         13    1    6    6    0    0 -0.13864742752E+02  0.14141212594E+02 -0.22920411789E+02  0.30291274103E+02  0.10500000000E+00 0.  1.
</event>
<event>
11    0  0.3396091E-009  0.9118800E+02  0.7816531E-02  0.1126479E+00
         25   -1    0    0    0    0  0.00000000000E+00  0.00000000000E+00  0.99999998245E-14  0.12500000000E+03  0.12500000000E+03 0.  0.
    3000001    1    3    3    0    0  0.78629959136E+00 -0.36356191616E-01  0.27288525594E+00  0.13015587512E+01  0.10000000000E+01 0. -1.
    1000022    2    1    0    0    0  0.37592693069E+02 -0.48889909411E+02 -0.16781318782E+01  0.62500000175E+02  0.10000004047E+02 0.  0.
    3000022    2    3    3    0    0  0.36806393477E+02 -0.48853553219E+02 -0.19510171341E+01  0.61198441424E+02  0.25000381778E+00 0.  0.
    1000022    2    1    0    0    0 -0.37592693069E+02  0.48889909411E+02  0.16781318782E+01  0.62499999825E+02  0.10000001857E+02 0.  0.
    3000022    2    5    5    0    0 -0.58207750431E+01  0.60298446494E+01 -0.30670311957E+01  0.89280248847E+01  0.24999877575E+00 0.  0.
        -13    1    4    4    0    0  0.18351671112E+02 -0.24254590798E+02 -0.99658633614E+00  0.30431451111E+02  0.10500000000E+00 0.  1.
         13    1    4    4    0    0  0.18454722365E+02 -0.24598962422E+02 -0.95443079797E+00  0.30766990313E+02  0.10500000000E+00 0. -1.
    3000001    1    5    5    0    0 -0.31771918026E+02  0.42860064761E+02  0.47451630738E+01  0.53571974940E+02  0.10000000000E+01 0. -1.
        -13    1    6    6    0    0 -0.39670353155E+01  0.40533046664E+01 -0.21107153827E+01  0.60525029814E+01  0.10500000000E+00 0.  1.
         13    1    6    6    0    0 -0.18537397276E+01  0.19765399830E+01 -0.95631581302E+00  0.28755219033E+01  0.10500000000E+00 0. -1.
</event>
<event>
11    0  0.3396091E-009  0.9118800E+02  0.7816531E-02  0.1126479E+00
         25   -1    0    0    0    0  0.00000000000E+00  0.00000000000E+00  0.99999998245E-14  0.12500000000E+03  0.12500000000E+03 0.  0.
    3000001    1    3    3    0    0 -0.39112988134E+01  0.39504109685E+01  0.20545098081E+01  0.60104089527E+01  0.10000000000E+01 0.  1.
    1000022    2    1    0    0    0 -0.56620696112E+02  0.17159994620E+02  0.17489462110E+02  0.62500000233E+02  0.10000005032E+02 0.  0.
    3000022    2    3    3    0    0 -0.52709397299E+02  0.13209583652E+02  0.15434952302E+02  0.56489591280E+02  0.25001321088E+00 0.  0.
    1000022    2    1    0    0    0  0.56620696112E+02 -0.17159994620E+02 -0.17489462110E+02  0.62499999767E+02  0.10000002118E+02 0.  0.
    3000022    2    5    5    0    0  0.27003575238E+01 -0.75950511247E+00  0.12737848927E+01  0.30909229547E+01  0.24999597381E+00 0.  0.
        -13    1    4    4    0    0 -0.14755103295E+02  0.37279863071E+01  0.42949988571E+01  0.15813569975E+02  0.10500000000E+00 0. -1.
         13    1    4    4    0    0 -0.37954294004E+02  0.94815973447E+01  0.11139953445E+02  0.40676021306E+02  0.10500000000E+00 0.  1.
    3000001    1    5    5    0    0  0.53920338588E+02 -0.16400489508E+02 -0.18763247003E+02  0.59409076812E+02  0.10000000000E+01 0. -1.
        -13    1    6    6    0    0  0.16680188511E+01 -0.51943585983E+00  0.75182653543E+00  0.19048277191E+01  0.10500000000E+00 0. -1.
         13    1    6    6    0    0  0.10323386727E+01 -0.24006925264E+00  0.52195835728E+00  0.11860952356E+01  0.10500000000E+00 0.  1.
</event>
<event>
11    0  0.3396091E-009  0.9118800E+02  0.7816531E-02  0.1126479E+00
         25   -1    0    0    0    0  0.00000000000E+00  0.00000000000E+00  0.99999998245E-14  0.12500000000E+03  0.12500000000E+03 0.  0.
    3000001    1    3    3    0    0  0.12473266948E+02  0.97689509078E+01 -0.16290746158E+01  0.15958341840E+02  0.10000000000E+01 0.  1.
    1000022    2    1    0    0    0  0.52755520406E+02  0.30931196319E+02  0.81465481237E+01  0.62499999286E+02  0.99999912668E+01 0.  0.
    3000022    2    3    3    0    0  0.40282253458E+02  0.21162245411E+02  0.97756227395E+01  0.46541657445E+02  0.25000657951E+00 0.  0.
    1000022    2    1    0    0    0 -0.52755520406E+02 -0.30931196319E+02 -0.81465481237E+01  0.62500000714E+02  0.10000000198E+02 0.  0.
    3000022    2    5    5    0    0 -0.35721320075E+02 -0.20086508270E+02 -0.80465190542E+00  0.40990126706E+02  0.25000055946E+00 0.  0.
        -13    1    4    4    0    0  0.22185547683E+02  0.11579873815E+02  0.53746574604E+01  0.25596678913E+02  0.10500000000E+00 0. -1.
         13    1    4    4    0    0  0.18096705775E+02  0.95823715960E+01  0.44009652791E+01  0.20944978532E+02  0.10500000000E+00 0.  1.
    3000001    1    5    5    0    0 -0.17034200330E+02 -0.10844688049E+02 -0.73418962183E+01  0.21509874008E+02  0.10000000000E+01 0.  1.
        -13    1    6    6    0    0 -0.18837887373E+02 -0.10656451587E+02 -0.46328060448E+00  0.21648362872E+02  0.10500000000E+00 0. -1.
         13    1    6    6    0    0 -0.16883432702E+02 -0.94300566828E+01 -0.34137130095E+00  0.19341763834E+02  0.10500000000E+00 0.  1.
</event>
<event>
11    0  0.3396091E-009  0.9118800E+02  0.7816531E-02  0.1126479E+00
         25   -1    0    0    0    0  0.00000000000E+00  0.00000000000E+00  0.99999998245E-14  0.12500000000E+03  0.12500000000E+03 0.  0.
    3000001    1    3    3    0    0 -0.42101869077E+01  0.24579232273E+02  0.45038602912E+01  0.25360384273E+02  0.10000000000E+01 0. -1.
    1000022    2    1    0    0    0 -0.14562636375E+02  0.59951436945E+02 -0.70266111613E-01  0.62500002068E+02  0.10000007564E+02 0.  0.
    3000022    2    3    3    0    0 -0.10352449467E+02  0.35372204672E+02 -0.45741264028E+01  0.37139617796E+02  0.25000871776E+00 0.  0.
    1000022    2    1    0    0    0  0.14562636375E+02 -0.59951436945E+02  0.70266111613E-01  0.62499997932E+02  0.99999817095E+01 0.  0.
    3000022    2    5    5    0    0  0.12161044936E+02 -0.57859259432E+02 -0.42201905539E+00  0.59125506434E+02  0.24999003932E+00 0.  0.
        -13    1    4    4    0    0 -0.74636973334E+01  0.25595192095E+02 -0.32803943910E+01  0.26862476591E+02  0.10500000000E+00 0.  1.
         13    1    4    4    0    0 -0.28887521335E+01  0.97770125770E+01 -0.12937320117E+01  0.10277141204E+02  0.10500000000E+00 0. -1.
    3000001    1    5    5    0    0  0.24015914386E+01 -0.20921775132E+01  0.49228516700E+00  0.33744914980E+01  0.10000000000E+01 0. -1.
        -13    1    6    6    0    0  0.64970491214E+01 -0.30718480088E+02 -0.27856498201E+00  0.31399447283E+02  0.10500000000E+00 0. -1.
         13    1    6    6    0    0  0.56639958146E+01 -0.27140779344E+02 -0.14345407337E+00  0.27726059151E+02  0.10500000000E+00 0.  1.
</event>
<event>
11    0  0.3396091E-009  0.9118800E+02  0.7816531E-02  0.1126479E+00
         25   -1    0    0    0    0  0.00000000000E+00  0.00000000000E+00  0.99999998245E-14  0.12500000000E+03  0.12500000000E+03 0.  0.
    3000001    1    3    3    0    0 -0.29755322429E+02  0.53072292313E+01 -0.11156588464E+02  0.32233761201E+02  0.10000000000E+01 0.  1.
    1000022    2    1    0    0    0 -0.59131730244E+02  0.17523508773E+01 -0.17510504523E+02  0.62500000472E+02  0.10000001753E+02 0.  0.
    3000022    2    3    3    0    0 -0.29376407815E+02 -0.35548783540E+01 -0.63539160596E+01  0.30266239271E+02  0.24998823698E+00 0.  0.
    1000022    2    1    0    0    0  0.59131730244E+02 -0.17523508773E+01  0.17510504523E+02  0.62499999528E+02  0.99999958560E+01 0.  0.
    3000022    2    5    5    0    0  0.44673438287E+01  0.24390783609E+01  0.23309707715E+01  0.56037653282E+01  0.24999396273E+00 0.  0.
        -13    1    4    4    0    0 -0.16835629213E+02 -0.19772229216E+01 -0.36670908121E+01  0.17343771259E+02  0.10500000000E+00 0.  1.
         13    1    4    4    0    0 -0.12540778602E+02 -0.15776554324E+01 -0.26868252475E+01  0.12922468012E+02  0.10500000000E+00 0. -1.
    3000001    1    5    5    0    0  0.54664386415E+02 -0.41914292382E+01  0.15179533752E+02  0.56896234200E+02  0.10000000000E+01 0. -1.
        -13    1    6    6    0    0  0.33350114594E+01  0.18043141968E+01  0.17631121739E+01  0.41829942257E+01  0.10500000000E+00 0. -1.
         13    1    6    6    0    0  0.11323323693E+01  0.63476416416E+00  0.56785859761E+00  0.14207711024E+01  0.10500000000E+00 0.  1.
</event>
<event>
11    0  0.3396091E-009  0.9118800E+02  0.7816531E-02  0.1126479E+00
         25   -1    0    0    0    0  0.00000000000E+00  0.00000000000E+00  0.99999998245E-14  0.12500000000E+03  0.12500000000E+03 0.  0.
    3000001    1    3    3    0    0 -0.18249965118E+00  0.28805853830E+01 -0.28399181113E+01  0.41708767844E+01  0.10000000000E+01 0. -1.
    1000022    2    1    0    0    0 -0.98630479254E+01  0.13891513828E+02 -0.59295834981E+02  0.62499999961E+02  0.10000003907E+02 0.  0.
    3000022    2    3    3    0    0 -0.96805482742E+01  0.11010928445E+02 -0.56455916870E+02  0.58329123176E+02  0.25000154207E+00 0.  0.
    1000022    2    1    0    0    0  0.98630479254E+01 -0.13891513828E+02  0.59295834981E+02  0.62500000039E+02  0.10000004398E+02 0.  0.
    3000022    2    5    5    0    0  0.91888134725E+01 -0.44377222936E+01  0.29364745774E+02  0.31088236835E+02  0.25000588164E+00 0.  0.
        -13    1    4    4    0    0 -0.49605740970E+01  0.56190962661E+01 -0.29124844320E+02  0.30074060582E+02  0.10500000000E+00 0.  1.
         13    1    4    4    0    0 -0.47199741772E+01  0.53918321790E+01 -0.27331072550E+02  0.28255062594E+02  0.10500000000E+00 0. -1.
    3000001    1    5    5    0    0  0.67423445285E+00 -0.94537915345E+01  0.29931089207E+02  0.31411763204E+02  0.10000000000E+01 0.  1.
        -13    1    6    6    0    0  0.26710112175E+01 -0.13160376142E+01  0.86836176297E+01  0.91805498781E+01  0.10500000000E+00 0.  1.
         13    1    6    6    0    0  0.65178022550E+01 -0.31216846795E+01  0.20681128145E+02  0.21907686957E+02  0.10500000000E+00 0. -1.
</event>
<event>
11    0  0.3396091E-009  0.9118800E+02  0.7816531E-02  0.1126479E+00
         25   -1    0    0    0    0  0.00000000000E+00  0.00000000000E+00  0.99999998245E-14  0.12500000000E+03  0.12500000000E+03 0.  0.
    3000001    1    3    3    0    0 -0.97375037998E+01  0.12219507916E+01  0.20871068739E+02  0.23084922662E+02  0.10000000000E+01 0. -1.
    1000022    2    1    0    0    0 -0.18239227474E+02  0.13263344712E+02  0.57425291869E+02  0.62499998846E+02  0.99999988856E+01 0.  0.
    3000022    2    3    3    0    0 -0.85017236744E+01  0.12041393921E+02  0.36554223130E+02  0.39415076185E+02  0.25005798465E+00 0.  0.
    1000022    2    1    0    0    0  0.18239227474E+02 -0.13263344712E+02 -0.57425291869E+02  0.62500001154E+02  0.10000013306E+02 0.  0.
    3000022    2    5    5    0    0  0.36286266325E+01 -0.32131966307E+01 -0.25580199762E+02  0.26036525939E+02  0.24999856267E+00 0.  0.
        -13    1    4    4    0    0 -0.36544179084E+01  0.52330391452E+01  0.15981255260E+02  0.17209038719E+02  0.10500000000E+00 0. -1.
         13    1    4    4    0    0 -0.48473057660E+01  0.68083547755E+01  0.20572967870E+02  0.22206037466E+02  0.10500000000E+00 0.  1.
    3000001    1    5    5    0    0  0.14610600842E+02 -0.10050148082E+02 -0.31845092108E+02  0.36463475215E+02  0.10000000000E+01 0. -1.
        -13    1    6    6    0    0  0.10583113224E+01 -0.88252302121E+00 -0.73104580532E+01  0.74399389571E+01  0.10500000000E+00 0. -1.
         13    1    6    6    0    0  0.25703153101E+01 -0.23306736095E+01 -0.18269741708E+02  0.18596586981E+02  0.10500000000E+00 0.  1.
</event>
<event>
11    0  0.3396091E-009  0.9118800E+02  0.7816531E-02  0.1126479E+00
         25   -1    0    0    0    0  0.00000000000E+00  0.00000000000E+00  0.99999998245E-14  0.12500000000E+03  0.12500000000E+03 0.  0.
    3000001    1    3    3    0    0 -0.13443860331E+01 -0.29443578332E+02 -0.35038726814E+02  0.45797860818E+02  0.10000000000E+01 0.  1.
    1000022    2    1    0    0    0  0.38944677320E+01 -0.40746521799E+02 -0.46160633876E+02  0.62499999514E+02  0.99999950858E+01 0.  0.
    3000022    2    3    3    0    0  0.52388537651E+01 -0.11302943467E+02 -0.11121907062E+02  0.16702138695E+02  0.25000100407E+00 0.  0.
    1000022    2    1    0    0    0 -0.38944677320E+01  0.40746521799E+02  0.46160633876E+02  0.62500000486E+02  0.10000001167E+02 0.  0.
    3000022    2    5    5    0    0 -0.64389034014E+01  0.30110342077E+02  0.30230673453E+02  0.43151457620E+02  0.25000068904E+00 0.  0.
        -13    1    4    4    0    0  0.23312391743E+01 -0.50649667355E+01 -0.48909859674E+01  0.74176366083E+01  0.10500000000E+00 0. -1.
         13    1    4    4    0    0  0.29076145908E+01 -0.62379767316E+01 -0.62309210947E+01  0.92845020868E+01  0.10500000000E+00 0.  1.
    3000001    1    5    5    0    0  0.25444356694E+01  0.10636179722E+02  0.15929960423E+02  0.19348542866E+02  0.10000000000E+01 0. -1.
        -13    1    6    6    0    0 -0.22791812349E+01  0.10435710538E+02  0.10443814191E+02  0.14939310606E+02  0.10500000000E+00 0. -1.
         13    1    6    6    0    0 -0.41597221666E+01  0.19674631540E+02  0.19786859262E+02  0.28212147014E+02  0.10500000000E+00 0.  1.
</event>
<event>
11    0  0.3396091E-009  0.9118800E+02  0.7816531E-02  0.1126479E+00
         25   -1    0    0    0    0  0.00000000000E+00  0.00000000000E+00  0.99999998245E-14  0.12500000000E+03  0.12500000000E+03 0.  0.
    3000001    1    3    3    0    0  0.14370339027E+02 -0.14846394491E+02  0.16749262222E+02  0.26616909252E+02  0.10000000000E+01 0. -1.
    1000022    2    1    0    0    0  0.27231095860E+02 -0.43106537823E+02  0.34735340403E+02  0.62500001061E+02  0.10000003743E+02 0.  0.
    3000022    2    3    3    0    0  0.12860756832E+02 -0.28260143332E+02  0.17986078181E+02  0.35883091809E+02  0.25000394288E+00 0.  0.
    1000022    2    1    0    0    0 -0.27231095860E+02  0.43106537823E+02 -0.34735340403E+02  0.62499998939E+02  0.99999904824E+01 0.  0.
    3000022    2    5    5    0    0 -0.16631808153E+01  0.43196521429E+01 -0.69678008870E+01  0.83688892953E+01  0.24998754993E+00 0.  0.
        -13    1    4    4    0    0  0.97010754740E+01 -0.21368227101E+02  0.13602934740E+02  0.27124948909E+02  0.10500000000E+00 0. -1.
         13    1    4    4    0    0  0.31596813585E+01 -0.68919162318E+01  0.43831434402E+01  0.87581428997E+01  0.10500000000E+00 0.  1.
    3000001    1    5    5    0    0 -0.25567915045E+02  0.38786885680E+02 -0.27767539516E+02  0.54131109644E+02  0.10000000000E+01 0. -1.
        -13    1    6    6    0    0 -0.59505053006E+00  0.14127756266E+01 -0.22677605230E+01  0.27393033593E+01  0.10500000000E+00 0.  1.
         13    1    6    6    0    0 -0.10681302852E+01  0.29068765163E+01 -0.47000403640E+01  0.56295859360E+01  0.10500000000E+00 0. -1.
</event>
<event>
11    0  0.3396091E-009  0.9118800E+02  0.7816531E-02  0.1126479E+00
         25   -1    0    0    0    0  0.00000000000E+00  0.00000000000E+00  0.99999998245E-14  0.12500000000E+03  0.12500000000E+03 0.  0.
    3000001    1    3    3    0    0 -0.11339586479E+01  0.30457200851E+01  0.93087204545E+00  0.35254497326E+01  0.10000000000E+01 0.  1.
    1000022    2    1    0    0    0 -0.46102885987E+02  0.40518503618E+02 -0.62469568625E+01  0.62500000725E+02  0.10000019442E+02 0.  0.
    3000022    2    3    3    0    0 -0.44968927339E+02  0.37472783533E+02 -0.71778289079E+01  0.58974550992E+02  0.25001045144E+00 0.  0.
    1000022    2    1    0    0    0  0.46102885987E+02 -0.40518503618E+02  0.62469568625E+01  0.62499999275E+02  0.10000010379E+02 0.  0.
    3000022    2    5    5    0    0  0.37550285730E+02 -0.28743362269E+02  0.21064894465E+01  0.47336081728E+02  0.25000530726E+00 0.  0.
        -13    1    4    4    0    0 -0.12644615550E+02  0.10589051400E+02 -0.20187445659E+01  0.16616277158E+02  0.10500000000E+00 0.  1.
         13    1    4    4    0    0 -0.32324311788E+02  0.26883732133E+02 -0.51590843420E+01  0.42358273835E+02  0.10500000000E+00 0. -1.
    3000001    1    5    5    0    0  0.85526002563E+01 -0.11775141349E+02  0.41404674160E+01  0.15163917547E+02  0.10000000000E+01 0.  1.
        -13    1    6    6    0    0  0.16467103198E+02 -0.12672946384E+02  0.88740606652E+00  0.20798258876E+02  0.10500000000E+00 0. -1.
         13    1    6    6    0    0  0.21083182533E+02 -0.16070415885E+02  0.12190833800E+01  0.26537822852E+02  0.10500000000E+00 0.  1.
</event>
<event>
11    0  0.3396091E-009  0.9118800E+02  0.7816531E-02  0.1126479E+00
         25   -1    0    0    0    0  0.00000000000E+00  0.00000000000E+00  0.99999998245E-14  0.12500000000E+03  0.12500000000E+03 0.  0.
    3000001    1    3    3    0    0  0.89681865816E+01 -0.10134847792E+01 -0.57139869454E+01  0.10728707693E+02  0.10000000000E+01 0. -1.
    1000022    2    1    0    0    0  0.59953711394E+02  0.66329328044E+00 -0.14538315516E+02  0.62499999651E+02  0.99999935231E+01 0.  0.
    3000022    2    3    3    0    0  0.50985524812E+02  0.16767780597E+01 -0.88243285706E+01  0.51771291958E+02  0.25014233824E+00 0.  0.
    1000022    2    1    0    0    0 -0.59953711394E+02 -0.66329328044E+00  0.14538315516E+02  0.62500000349E+02  0.99999978855E+01 0.  0.
    3000022    2    5    5    0    0 -0.19342211100E+02 -0.32792523986E+01  0.83567173740E+01  0.21325380086E+02  0.24996800802E+00 0.  0.
        -13    1    4    4    0    0  0.15101383366E+02  0.50995409100E+00 -0.25702376381E+01  0.15327393101E+02  0.10500000000E+00 0.  1.
         13    1    4    4    0    0  0.35884141446E+02  0.11668239687E+01 -0.62540909325E+01  0.36443898857E+02  0.10500000000E+00 0. -1.
    3000001    1    5    5    0    0 -0.40611500294E+02  0.26159591182E+01  0.61815981420E+01  0.41174620263E+02  0.10000000000E+01 0.  1.
        -13    1    6    6    0    0 -0.52082468207E+01 -0.85001502052E+00  0.22637052563E+01  0.57431478275E+01  0.10500000000E+00 0.  1.
         13    1    6    6    0    0 -0.14133964279E+02 -0.24292373781E+01  0.60930121177E+01  0.15582232258E+02  0.10500000000E+00 0. -1.
</event>
<event>
11    0  0.3396091E-009  0.9118800E+02  0.7816531E-02  0.1126479E+00
         25   -1    0    0    0    0  0.00000000000E+00  0.00000000000E+00  0.99999998245E-14  0.12500000000E+03  0.12500000000E+03 0.  0.
    3000001    1    3    3    0    0 -0.10112947825E+02 -0.23098772954E+01 -0.64627718736E+01  0.12262734895E+02  0.10000000000E+01 0.  1.
    1000022    2    1    0    0    0 -0.58969531187E+02 -0.11392038286E+01 -0.18098243205E+02  0.62500000831E+02  0.10000015153E+02 0.  0.
    3000022    2    3    3    0    0 -0.48856583362E+02  0.11706734668E+01 -0.11635471331E+02  0.50237265936E+02  0.24996287247E+00 0.  0.
    1000022    2    1    0    0    0  0.58969531187E+02  0.11392038286E+01  0.18098243205E+02  0.62499999169E+02  0.10000004762E+02 0.  0.
    3000022    2    5    5    0    0  0.47193400513E+02 -0.29086193289E+01  0.13309169089E+02  0.49121009788E+02  0.25000476151E+00 0.  0.
        -13    1    4    4    0    0 -0.18036202045E+02  0.39921174286E+00 -0.43460498968E+01  0.18557023709E+02  0.10500000000E+00 0.  1.
         13    1    4    4    0    0 -0.30820381317E+02  0.77146172392E+00 -0.72894214342E+01  0.31680242227E+02  0.10500000000E+00 0. -1.
    3000001    1    5    5    0    0  0.11776130674E+02  0.40478231575E+01  0.47890741160E+01  0.13378989381E+02  0.10000000000E+01 0. -1.
        -13    1    6    6    0    0  0.28692503903E+02 -0.18236404429E+01  0.80626913679E+01  0.29859729767E+02  0.10500000000E+00 0. -1.
         13    1    6    6    0    0  0.18500896610E+02 -0.10849788860E+01  0.52464777206E+01  0.19261280020E+02  0.10500000000E+00 0.  1.
</event>
<event>
11    0  0.3396091E-009  0.9118800E+02  0.7816531E-02  0.1126479E+00
         25   -1    0    0    0    0  0.00000000000E+00  0.00000000000E+00  0.99999998245E-14  0.12500000000E+03  0.12500000000E+03 0.  0.
    3000001    1    3    3    0    0 -0.53963980225E+01  0.17868809764E+02  0.23481548665E+01  0.18839567545E+02  0.10000000000E+01 0.  1.
    1000022    2    1    0    0    0 -0.20239523043E+02  0.54115419273E+02  0.21636384307E+02  0.62499999925E+02  0.99999984349E+01 0.  0.
    3000022    2    3    3    0    0 -0.14843125021E+02  0.36246609509E+02  0.19288229441E+02  0.43660432381E+02  0.24999887311E+00 0.  0.
    1000022    2    1    0    0    0  0.20239523043E+02 -0.54115419273E+02 -0.21636384307E+02  0.62500000075E+02  0.99999993694E+01 0.  0.
    3000022    2    5    5    0    0  0.11888373214E+02 -0.40915979679E+02 -0.18894406036E+02  0.46610212351E+02  0.25001041030E+00 0.  0.
        -13    1    4    4    0    0 -0.82071567473E+01  0.20167087547E+02  0.10773716555E+02  0.24293061466E+02  0.10500000000E+00 0.  1.
         13    1    4    4    0    0 -0.66359682736E+01  0.16079521962E+02  0.85145128861E+01  0.19367370915E+02  0.10500000000E+00 0. -1.
    3000001    1    5    5    0    0  0.83511498298E+01 -0.13199439594E+02 -0.27419782713E+01  0.15889787724E+02  0.10000000000E+01 0.  1.
        -13    1    6    6    0    0  0.42865836524E+01 -0.14963515430E+02 -0.69072285304E+01  0.17029457549E+02  0.10500000000E+00 0. -1.
         13    1    6    6    0    0  0.76017895611E+01 -0.25952464249E+02 -0.11987177505E+02  0.29580754802E+02  0.10500000000E+00 0.  1.
</event>
<event>
11    0  0.3396091E-009  0.9118800E+02  0.7816531E-02  0.1126479E+00
         25   -1    0    0    0    0  0.00000000000E+00  0.00000000000E+00  0.99999998245E-14  0.12500000000E+03  0.12500000000E+03 0.  0.
    3000001    1    3    3    0    0  0.25148645220E+02 -0.35555145139E+02 -0.27535811465E+02  0.51534877658E+02  0.10000000000E+01 0.  1.
    1000022    2    1    0    0    0  0.33126571666E+02 -0.42765846693E+02 -0.29664165070E+02  0.62500000349E+02  0.99999980341E+01 0.  0.
    3000022    2    3    3    0    0  0.79779264462E+01 -0.72107015546E+01 -0.21283536048E+01  0.10965122691E+02  0.24999855518E+00 0.  0.
    1000022    2    1    0    0    0 -0.33126571666E+02  0.42765846693E+02  0.29664165070E+02  0.62499999651E+02  0.99999936666E+01 0.  0.
    3000022    2    5    5    0    0 -0.70239264108E+01  0.63731796891E+01  0.15548775174E+01  0.96142137750E+01  0.25000168897E+00 0.  0.
        -13    1    4    4    0    0  0.31047980638E+01 -0.28623316164E+01 -0.78863531668E+00  0.42971716235E+01  0.10500000000E+00 0. -1.
         13    1    4    4    0    0  0.48731283824E+01 -0.43483699382E+01 -0.13397182881E+01  0.66679510678E+01  0.10500000000E+00 0.  1.
    3000001    1    5    5    0    0 -0.26102645255E+02  0.36392667004E+02  0.28109287552E+02  0.52885785876E+02  0.10000000000E+01 0. -1.
        -13    1    6    6    0    0 -0.49488865158E+01  0.44285531492E+01  0.10888243236E+01  0.67305366910E+01  0.10500000000E+00 0. -1.
         13    1    6    6    0    0 -0.20750398950E+01  0.19446265399E+01  0.46605319385E+00  0.28836770840E+01  0.10500000000E+00 0.  1.
</event>
<event>
11    0  0.3396091E-009  0.9118800E+02  0.7816531E-02  0.1126479E+00
         25   -1    0    0    0    0  0.00000000000E+00  0.00000000000E+00  0.99999998245E-14  0.12500000000E+03  0.12500000000E+03 0.  0.
    3000001    1    3    3    0    0  0.60758521968E+01  0.46023407421E+02  0.26166744398E+02  0.53298860428E+02  0.10000000000E+01 0. -1.
    1000022    2    1    0    0    0  0.41055473592E+01  0.52104034487E+02  0.32780544240E+02  0.62500000595E+02  0.10000003232E+02 0.  0.
    3000022    2    3    3    0    0 -0.19703048376E+01  0.60806270669E+01  0.66137998418E+01  0.92011401664E+01  0.25001066985E+00 0.  0.
    1000022    2    1    0    0    0 -0.41055473592E+01 -0.52104034487E+02 -0.32780544240E+02  0.62499999405E+02  0.99999958003E+01 0.  0.
    3000022    2    5    5    0    0  0.23882422048E+00 -0.31073910567E+02 -0.24059340055E+02  0.39300881341E+02  0.24995071964E+00 0.  0.
        -13    1    4    4    0    0 -0.59683069316E+00  0.20078793701E+01  0.21521847969E+01  0.30051141145E+01  0.10500000000E+00 0.  1.
         13    1    4    4    0    0 -0.13734741445E+01  0.40727476967E+01  0.44616150449E+01  0.61960260519E+01  0.10500000000E+00 0. -1.
    3000001    1    5    5    0    0 -0.43443715797E+01 -0.21030123921E+02 -0.87212041856E+01  0.23199118065E+02  0.10000000000E+01 0.  1.
        -13    1    6    6    0    0  0.75248203601E-01 -0.18106888829E+02 -0.14030396283E+02  0.22906945021E+02  0.10500000000E+00 0. -1.
         13    1    6    6    0    0  0.16357601688E+00 -0.12967021738E+02 -0.10028943772E+02  0.16393936319E+02  0.10500000000E+00 0.  1.
</event>
<event>
11    0  0.3396091E-009  0.9118800E+02  0.7816531E-02  0.1126479E+00
         25   -1    0    0    0    0  0.00000000000E+00  0.00000000000E+00  0.99999998245E-14  0.12500000000E+03  0.12500000000E+03 0.  0.
    3000001    1    3    3    0    0 -0.23464613277E+02  0.65889602021E+01  0.26567139938E+02  0.36066818508E+02  0.10000000000E+01 0.  1.
    1000022    2    1    0    0    0 -0.33427209723E+02  0.12326505215E+02  0.50367934494E+02  0.62499999866E+02  0.10000003868E+02 0.  0.
    3000022    2    3    3    0    0 -0.99625964459E+01  0.57375450125E+01  0.23800794557E+02  0.26433181359E+02  0.25000898180E+00 0.  0.
    1000022    2    1    0    0    0  0.33427209723E+02 -0.12326505215E+02 -0.50367934494E+02  0.62500000134E+02  0.10000005539E+02 0.  0.
    3000022    2    5    5    0    0  0.10936503620E+02  0.41911051476E+00 -0.17946021666E+02  0.21021535688E+02  0.25000795229E+00 0.  0.
        -13    1    4    4    0    0 -0.30059467111E+01  0.17170493167E+01  0.70666239222E+01  0.78696996540E+01  0.10500000000E+00 0. -1.
         13    1    4    4    0    0 -0.69566497348E+01  0.40204956958E+01  0.16734170635E+02  0.18563481705E+02  0.10500000000E+00 0.  1.
    3000001    1    5    5    0    0  0.22490706103E+02 -0.12745615729E+02 -0.32421912829E+02  0.41478464446E+02  0.10000000000E+01 0. -1.
        -13    1    6    6    0    0  0.60131634265E+01  0.29474466523E+00 -0.99048302502E+01  0.11591449266E+02  0.10500000000E+00 0.  1.
         13    1    6    6    0    0  0.49233401936E+01  0.12436584953E+00 -0.80411914157E+01  0.94300864212E+01  0.10500000000E+00 0. -1.
</event>
<event>
11    0  0.3396091E-009  0.9118800E+02  0.7816531E-02  0.1126479E+00
         25   -1    0    0    0    0  0.00000000000E+00  0.00000000000E+00  0.99999998245E-14  0.12500000000E+03  0.12500000000E+03 0.  0.
    3000001    1    3    3    0    0  0.22943593014E+02 -0.93532006545E+01 -0.29006799726E+02  0.38161305707E+02  0.10000000000E+01 0. -1.
    1000022    2    1    0    0    0  0.36085357955E+02 -0.22554438521E+02 -0.44669838372E+02  0.62499998116E+02  0.99999774279E+01 0.  0.
    3000022    2    3    3    0    0  0.13141764941E+02 -0.13201237867E+02 -0.15663038646E+02  0.24338692409E+02  0.25000319601E+00 0.  0.
    1000022    2    1    0    0    0 -0.36085357955E+02  0.22554438521E+02  0.44669838372E+02  0.62500001884E+02  0.10000000978E+02 0.  0.
    3000022    2    5    5    0    0 -0.27774050499E+02  0.12772241648E+02  0.28167072412E+02  0.41568912767E+02  0.25000508496E+00 0.  0.
        -13    1    4    4    0    0  0.45015399005E+01 -0.45938335917E+01 -0.53783977686E+01  0.83848289250E+01  0.10500000000E+00 0. -1.
         13    1    4    4    0    0  0.86402250405E+01 -0.86074042750E+01 -0.10284640877E+02  0.15953863484E+02  0.10500000000E+00 0.  1.
    3000001    1    5    5    0    0 -0.83113074564E+01  0.97821968728E+01  0.16502765959E+02  0.20931089117E+02  0.10000000000E+01 0. -1.
        -13    1    6    6    0    0 -0.15673208084E+02  0.71397054539E+01  0.15900762486E+02  0.23440778960E+02  0.10500000000E+00 0. -1.
         13    1    6    6    0    0 -0.12100842415E+02  0.56325361945E+01  0.12266309927E+02  0.18128133808E+02  0.10500000000E+00 0.  1.
</event>
<event>
11    0  0.3396091E-009  0.9118800E+02  0.7816531E-02  0.1126479E+00
         25   -1    0    0    0    0  0.00000000000E+00  0.00000000000E+00  0.99999998245E-14  0.12500000000E+03  0.12500000000E+03 0.  0.
    3000001    1    3    3    0    0 -0.60732763316E+01 -0.49528216471E+02 -0.27804996166E+02  0.57131836344E+02  0.10000000000E+01 0. -1.
    1000022    2    1    0    0    0 -0.47579710672E+01 -0.52481071257E+02 -0.32083461669E+02  0.62499997101E+02  0.99999998009E+01 0.  0.
    3000022    2    3    3    0    0  0.13153052643E+01 -0.29528547860E+01 -0.42784655030E+01  0.53681607575E+01  0.25000706628E+00 0.  0.
    1000022    2    1    0    0    0  0.47579710672E+01  0.52481071257E+02  0.32083461669E+02  0.62500002899E+02  0.10000036034E+02 0.  0.
    3000022    2    5    5    0    0 -0.46758169325E+00  0.40408514753E+02  0.25105418683E+02  0.47575321792E+02  0.24999849368E+00 0.  0.
        -13    1    4    4    0    0  0.56792084958E+00 -0.13737949105E+01 -0.18789397436E+01  0.23981839186E+01  0.10500000000E+00 0.  1.
         13    1    4    4    0    0  0.74738441474E+00 -0.15790598755E+01 -0.23995257594E+01  0.29699768389E+01  0.10500000000E+00 0. -1.
    3000001    1    5    5    0    0  0.52255527605E+01  0.12072556505E+02  0.69780429859E+01  0.14924681106E+02  0.10000000000E+01 0.  1.
        -13    1    6    6    0    0 -0.34967139411E+00  0.26205077697E+02  0.16319564651E+02  0.30873412228E+02  0.10500000000E+00 0.  1.
         13    1    6    6    0    0 -0.11791029914E+00  0.14203437055E+02  0.87858540321E+01  0.16701909564E+02  0.10500000000E+00 0. -1.
</event>
<event>
11    0  0.3396091E-009  0.9118800E+02  0.7816531E-02  0.1126479E+00
         25   -1    0    0    0    0  0.00000000000E+00  0.00000000000E+00  0.99999998245E-14  0.12500000000E+03  0.12500000000E+03 0.  0.
    3000001    1    3    3    0    0  0.12441372070E+02  0.35532028254E+02  0.17605789879E+02  0.41572546327E+02  0.10000000000E+01 0.  1.
    1000022    2    1    0    0    0  0.12063877061E+02  0.53219306071E+02  0.28782257604E+02  0.62499997796E+02  0.99999851669E+01 0.  0.
    3000022    2    3    3    0    0 -0.37749500930E+00  0.17687277816E+02  0.11176467725E+02  0.20927451469E+02  0.24999028496E+00 0.  0.
    1000022    2    1    0    0    0 -0.12063877061E+02 -0.53219306071E+02 -0.28782257604E+02  0.62500002204E+02  0.10000012719E+02 0.  0.
    3000022    2    5    5    0    0 -0.96198868011E+01 -0.34719365170E+02 -0.13923134647E+02  0.38625027089E+02  0.24999869675E+00 0.  0.
        -13    1    4    4    0    0 -0.11522319474E+00  0.84305218685E+01  0.53494054200E+01  0.99856967062E+01  0.10500000000E+00 0. -1.
         13    1    4    4    0    0 -0.26227181456E+00  0.92567559476E+01  0.58270623052E+01  0.10941754763E+02  0.10500000000E+00 0.  1.
    3000001    1    5    5    0    0 -0.24439902596E+01 -0.18499940901E+02 -0.14859122957E+02  0.23874975115E+02  0.10000000000E+01 0. -1.
        -13    1    6    6    0    0 -0.39472477873E+01 -0.14010004079E+02 -0.56175535850E+01  0.15602208583E+02  0.10500000000E+00 0.  1.
         13    1    6    6    0    0 -0.56726390137E+01 -0.20709361091E+02 -0.83055810622E+01  0.23022818506E+02  0.10500000000E+00 0. -1.
</event>
<event>
11    0  0.3396091E-009  0.9118800E+02  0.7816531E-02  0.1126479E+00
         25   -1    0    0    0    0  0.00000000000E+00  0.00000000000E+00  0.99999998245E-14  0.12500000000E+03  0.12500000000E+03 0.  0.
    3000001    1    3    3    0    0 -0.10731102388E+02  0.24761569482E+02 -0.15673093840E+02  0.31223993213E+02  0.10000000000E+01 0.  1.
    1000022    2    1    0    0    0 -0.15729738401E+02  0.45642031707E+02 -0.38413937381E+02  0.62499998881E+02  0.99999773248E+01 0.  0.
    3000022    2    3    3    0    0 -0.49986360132E+01  0.20880462226E+02 -0.22740843541E+02  0.31276005668E+02  0.25000169840E+00 0.  0.
    1000022    2    1    0    0    0  0.15729738401E+02 -0.45642031707E+02  0.38413937381E+02  0.62500001119E+02  0.99999913109E+01 0.  0.
    3000022    2    5    5    0    0  0.88410379711E+01 -0.32181866254E+02  0.21073948114E+02  0.39471638706E+02  0.25001004034E+00 0.  0.
        -13    1    4    4    0    0 -0.27736352254E+01  0.11669755743E+02 -0.12796567066E+02  0.17539652367E+02  0.10500000000E+00 0. -1.
         13    1    4    4    0    0 -0.22250007878E+01  0.92107064827E+01 -0.99442764744E+01  0.13736353301E+02  0.10500000000E+00 0.  1.
    3000001    1    5    5    0    0  0.68887004297E+01 -0.13460165453E+02  0.17339989267E+02  0.23028362413E+02  0.10000000000E+01 0.  1.
        -13    1    6    6    0    0  0.46633419984E+01 -0.16738702405E+02  0.10941552068E+02  0.20534349356E+02  0.10500000000E+00 0.  1.
         13    1    6    6    0    0  0.41776959728E+01 -0.15443163849E+02  0.10132396046E+02  0.18937289351E+02  0.10500000000E+00 0. -1.
</event>
<event>
11    0  0.3396091E-009  0.9118800E+02  0.7816531E-02  0.1126479E+00
         25   -1    0    0    0    0  0.00000000000E+00  0.00000000000E+00  0.99999998245E-14  0.12500000000E+03  0.12500000000E+03 0.  0.
    3000001    1    3    3    0    0  0.37456672589E+01 -0.69091423293E+01  0.11708849985E+02  0.14137306635E+02  0.10000000000E+01 0. -1.
    1000022    2    1    0    0    0  0.22126518462E+02 -0.13853606135E+02  0.55899417343E+02  0.62499998919E+02  0.99999891682E+01 0.  0.
    3000022    2    3    3    0    0  0.18380851204E+02 -0.69444638058E+01  0.44190567358E+02  0.48362692284E+02  0.24998587836E+00 0.  0.
    1000022    2    1    0    0    0 -0.22126518462E+02  0.13853606135E+02 -0.55899417343E+02  0.62500001081E+02  0.10000002682E+02 0.  0.
    3000022    2    5    5    0    0 -0.75065860342E+01 -0.30259969808E+00 -0.16993730398E+02  0.18581974436E+02  0.25000121831E+00 0.  0.
        -13    1    4    4    0    0  0.11830033694E+02 -0.44154429167E+01  0.28465626739E+02  0.31140789392E+02  0.10500000000E+00 0.  1.
         13    1    4    4    0    0  0.65508175093E+01 -0.25290208892E+01  0.15724940620E+02  0.17221902891E+02  0.10500000000E+00 0. -1.
    3000001    1    5    5    0    0 -0.14619932428E+02  0.14156205833E+02 -0.38905686945E+02  0.43918026645E+02  0.10000000000E+01 0.  1.
        -13    1    6    6    0    0 -0.25495204535E+01 -0.73352221267E-01 -0.58860660780E+01  0.64157800746E+01  0.10500000000E+00 0.  1.
         13    1    6    6    0    0 -0.49570655807E+01 -0.22924747681E+00 -0.11107664320E+02  0.12166194361E+02  0.10500000000E+00 0. -1.
</event>
<event>
11    0  0.3396091E-009  0.9118800E+02  0.7816531E-02  0.1126479E+00
         25   -1    0    0    0    0  0.00000000000E+00  0.00000000000E+00  0.99999998245E-14  0.12500000000E+03  0.12500000000E+03 0.  0.
    3000001    1    3    3    0    0  0.85890741333E+01  0.35139731989E+01 -0.21991833497E+02  0.23890603648E+02  0.10000000000E+01 0. -1.
    1000022    2    1    0    0    0  0.22090958288E+02  0.21093825746E+02 -0.53603079736E+02  0.62499999937E+02  0.99999956114E+01 0.  0.
    3000022    2    3    3    0    0  0.13501884155E+02  0.17579852547E+02 -0.31611246239E+02  0.38609396288E+02  0.25000338169E+00 0.  0.
    1000022    2    1    0    0    0 -0.22090958288E+02 -0.21093825746E+02  0.53603079736E+02  0.62500000063E+02  0.99999964051E+01 0.  0.
    3000022    2    5    5    0    0 -0.70024181377E+01 -0.13283046831E+02  0.27621331536E+02  0.31440000858E+02  0.25001049744E+00 0.  0.
        -13    1    4    4    0    0  0.90743802223E+01  0.11816477983E+02 -0.21337522123E+02  0.26024496223E+02  0.10500000000E+00 0.  1.
         13    1    4    4    0    0  0.44275039322E+01  0.57633745639E+01 -0.10273724116E+02  0.12584900065E+02  0.10500000000E+00 0. -1.
    3000001    1    5    5    0    0 -0.15088540150E+02 -0.78107789147E+01  0.25981748200E+02  0.31059999206E+02  0.10000000000E+01 0. -1.
        -13    1    6    6    0    0 -0.53335042409E+01 -0.10075906720E+02  0.20957426613E+02  0.23857806248E+02  0.10500000000E+00 0. -1.
         13    1    6    6    0    0 -0.16689138968E+01 -0.32071401107E+01  0.66639049221E+01  0.75821946095E+01  0.10500000000E+00 0.  1.
</event>
<event>
11    0  0.3396091E-009  0.9118800E+02  0.7816531E-02  0.1126479E+00
         25   -1    0    0    0    0  0.00000000000E+00  0.00000000000E+00  0.99999998245E-14  0.12500000000E+03  0.12500000000E+03 0.  0.
    3000001    1    3    3    0    0 -0.17978201025E+02 -0.71927502801E+01  0.27494602560E+02  0.33643789005E+02  0.10000000000E+01 0. -1.
    1000022    2    1    0    0    0 -0.39379284644E+02 -0.16087347075E+02  0.44684663764E+02  0.62500000408E+02  0.10000004017E+02 0.  0.
    3000022    2    3    3    0    0 -0.21401083619E+02 -0.88945967952E+01  0.17190061205E+02  0.28856211404E+02  0.25000028973E+00 0.  0.
    1000022    2    1    0    0    0  0.39379284644E+02  0.16087347075E+02 -0.44684663764E+02  0.62499999592E+02  0.99999989127E+01 0.  0.
    3000022    2    5    5    0    0  0.63875562207E+00  0.24762269329E+01 -0.34175395575E+01  0.42757201138E+01  0.24999459412E+00 0.  0.
        -13    1    4    4    0    0 -0.16294276813E+02 -0.67783454283E+01  0.13067986169E+02  0.21959797611E+02  0.10500000000E+00 0.  1.
         13    1    4    4    0    0 -0.51068068058E+01 -0.21162513669E+01  0.41220750356E+01  0.68964137926E+01  0.10500000000E+00 0. -1.
    3000001    1    5    5    0    0  0.38740529022E+02  0.13611120142E+02 -0.41267124207E+02  0.58224279478E+02  0.10000000000E+01 0. -1.
        -13    1    6    6    0    0  0.25130049055E+00  0.86023730087E+00 -0.11203642508E+01  0.14385413462E+01  0.10500000000E+00 0.  1.
         13    1    6    6    0    0  0.38745513152E+00  0.16159896320E+01 -0.22971753067E+01  0.28371787676E+01  0.10500000000E+00 0. -1.
</event>
<event>
11    0  0.3396091E-009  0.9118800E+02  0.7816531E-02  0.1126479E+00
         25   -1    0    0    0    0  0.00000000000E+00  0.00000000000E+00  0.99999998245E-14  0.12500000000E+03  0.12500000000E+03 0.  0.
    3000001    1    3    3    0    0 -0.66955140375E+01  0.63723246941E+01  0.48268083000E+01  0.10475424030E+02  0.10000000000E+01 0. -1.
    1000022    2    1    0    0    0 -0.40583978616E+02  0.45663487258E+02  0.86044547544E+01  0.62500000941E+02  0.10000004360E+02 0.  0.
    3000022    2    3    3    0    0 -0.33888464578E+02  0.39291162564E+02  0.37776464544E+01  0.52024576912E+02  0.25000604086E+00 0.  0.
    1000022    2    1    0    0    0  0.40583978616E+02 -0.45663487258E+02 -0.86044547544E+01  0.62499999059E+02  0.99999925963E+01 0.  0.
    3000022    2    5    5    0    0  0.26986999883E+02 -0.23269112355E+02 -0.62266767906E+01  0.36174352135E+02  0.24999203319E+00 0.  0.
        -13    1    4    4    0    0 -0.14929715688E+02  0.17334485737E+02  0.16012262768E+01  0.22933725316E+02  0.10500000000E+00 0. -1.
         13    1    4    4    0    0 -0.18958748890E+02  0.21956676827E+02  0.21764201777E+01  0.29090851595E+02  0.10500000000E+00 0.  1.
    3000001    1    5    5    0    0  0.13596978732E+02 -0.22394374903E+02 -0.23777779638E+01  0.26325646924E+02  0.10000000000E+01 0.  1.
        -13    1    6    6    0    0  0.19043015780E+02 -0.16419693198E+02 -0.44386263413E+01  0.25533413471E+02  0.10500000000E+00 0.  1.
         13    1    6    6    0    0  0.79439841035E+01 -0.68494191577E+01 -0.17880504493E+01  0.10640938664E+02  0.10500000000E+00 0. -1.
</event>
<event>
11    0  0.3396091E-009  0.9118800E+02  0.7816531E-02  0.1126479E+00
         25   -1    0    0    0    0  0.00000000000E+00  0.00000000000E+00  0.99999998245E-14  0.12500000000E+03  0.12500000000E+03 0.  0.
    3000001    1    3    3    0    0 -0.13981615581E+02  0.20341871781E+02  0.37986033594E+02  0.45312427324E+02  0.10000000000E+01 0.  1.
    1000022    2    1    0    0    0 -0.15152431876E+02  0.24190634798E+02  0.54694305276E+02  0.62499999937E+02  0.99999979418E+01 0.  0.
    3000022    2    3    3    0    0 -0.11708162955E+01  0.38487630173E+01  0.16708271681E+02  0.17187572613E+02  0.25004434745E+00 0.  0.
    1000022    2    1    0    0    0  0.15152431876E+02 -0.24190634798E+02 -0.54694305276E+02  0.62500000063E+02  0.99999987294E+01 0.  0.
    3000022    2    5    5    0    0  0.67513958869E+00 -0.68517250156E+01 -0.75920211743E+01  0.10251986206E+02  0.24997300971E+00 0.  0.
        -13    1    4    4    0    0 -0.77508727995E+00  0.27060018539E+01  0.11665068322E+02  0.12000335424E+02  0.10500000000E+00 0.  1.
         13    1    4    4    0    0 -0.39572901554E+00  0.11427611634E+01  0.50432033593E+01  0.51872371888E+01  0.10500000000E+00 0. -1.
    3000001    1    5    5    0    0  0.14477292288E+02 -0.17338909783E+02 -0.47102284101E+02  0.52248013857E+02  0.10000000000E+01 0.  1.
        -13    1    6    6    0    0  0.38653618703E+00 -0.33845123468E+01 -0.38192652234E+01  0.51188031703E+01  0.10500000000E+00 0. -1.
         13    1    6    6    0    0  0.28860340166E+00 -0.34672126688E+01 -0.37727559510E+01  0.51331830359E+01  0.10500000000E+00 0.  1.
</event>
<event>
11    0  0.3396091E-009  0.9118800E+02  0.7816531E-02  0.1126479E+00
         25   -1    0    0    0    0  0.00000000000E+00  0.00000000000E+00  0.99999998245E-14  0.12500000000E+03  0.12500000000E+03 0.  0.
    3000001    1    3    3    0    0  0.76471160427E+01  0.16520868759E+02  0.52794748205E+01  0.18981315621E+02  0.10000000000E+01 0. -1.
    1000022    2    1    0    0    0  0.23959361384E+02  0.56786176383E+02  0.27439290958E+01  0.62499999362E+02  0.99999973593E+01 0.  0.
    3000022    2    3    3    0    0  0.16312245341E+02  0.40265307625E+02 -0.25355457248E+01  0.43518683741E+02  0.24999251809E+00 0.  0.
    1000022    2    1    0    0    0 -0.23959361384E+02 -0.56786176383E+02 -0.27439290958E+01  0.62500000638E+02  0.10000005336E+02 0.  0.
    3000022    2    5    5    0    0 -0.14192864394E+02 -0.23049949106E+02 -0.38743097889E+01  0.27346120982E+02  0.25000587738E+00 0.  0.
        -13    1    4    4    0    0  0.95389005551E+01  0.23619224604E+02 -0.15448664469E+01  0.25519718495E+02  0.10500000000E+00 0. -1.
         13    1    4    4    0    0  0.67733447860E+01  0.16646083021E+02 -0.99067927795E+00  0.17998965247E+02  0.10500000000E+00 0.  1.
    3000001    1    5    5    0    0 -0.97664969902E+01 -0.33736227277E+02  0.11303806931E+01  0.35153879656E+02  0.10000000000E+01 0. -1.
        -13    1    6    6    0    0 -0.70814769342E+01 -0.11533833243E+02 -0.20033447143E+01  0.13682143103E+02  0.10500000000E+00 0.  1.
         13    1    6    6    0    0 -0.71113874594E+01 -0.11516115863E+02 -0.18709650746E+01  0.13663977879E+02  0.10500000000E+00 0. -1.
</event>
<event>
11    0  0.3396091E-009  0.9118800E+02  0.7816531E-02  0.1126479E+00
         25   -1    0    0    0    0  0.00000000000E+00  0.00000000000E+00  0.99999998245E-14  0.12500000000E+03  0.12500000000E+03 0.  0.
    3000001    1    3    3    0    0  0.27539898675E+02  0.20957753329E+01  0.36924127277E+02  0.46121897928E+02  0.10000000000E+01 0.  1.
    1000022    2    1    0    0    0  0.40722461241E+02  0.55231270762E+01  0.46015500878E+02  0.62500001391E+02  0.10000003532E+02 0.  0.
    3000022    2    3    3    0    0  0.13182562566E+02  0.34273517433E+01  0.90913736006E+01  0.16378103463E+02  0.25000667102E+00 0.  0.
    1000022    2    1    0    0    0 -0.40722461241E+02 -0.55231270762E+01 -0.46015500878E+02  0.62499998609E+02  0.99999861452E+01 0.  0.
    3000022    2    5    5    0    0 -0.12286419808E+02 -0.65433116587E+00 -0.76613704771E+01  0.14496322242E+02  0.24999995660E+00 0.  0.
        -13    1    4    4    0    0  0.80169080849E+01  0.20920371157E+01  0.56040677278E+01  0.10003201219E+02  0.10500000000E+00 0.  1.
         13    1    4    4    0    0  0.51656544806E+01  0.13353146276E+01  0.34873058728E+01  0.63749022438E+01  0.10500000000E+00 0. -1.
    3000001    1    5    5    0    0 -0.28436041432E+02 -0.48687959104E+01 -0.38354130401E+02  0.48003676367E+02  0.10000000000E+01 0.  1.
        -13    1    6    6    0    0 -0.76357793486E+01 -0.45967094150E+00 -0.47279892787E+01  0.89934048755E+01  0.10500000000E+00 0. -1.
         13    1    6    6    0    0 -0.46506404596E+01 -0.19466022437E+00 -0.29333811984E+01  0.55029173665E+01  0.10500000000E+00 0.  1.
</event>
<event>
11    0  0.3396091E-009  0.9118800E+02  0.7816531E-02  0.1126479E+00
         25   -1    0    0    0    0  0.00000000000E+00  0.00000000000E+00  0.99999998245E-14  0.12500000000E+03  0.12500000000E+03 0.  0.
    3000001    1    3    3    0    0  0.12251382255E+02  0.61655092353E+01  0.27458903740E+01  0.14023187414E+02  0.10000000000E+01 0.  1.
    1000022    2    1    0    0    0  0.59742274734E+02  0.15395226733E+02 -0.31470782512E+00  0.62500009868E+02  0.99999898010E+01 0.  0.
    3000022    2    3    3    0    0  0.47490892478E+02  0.92297174974E+01 -0.30605981992E+01  0.48476822455E+02  0.25000095398E+00 0.  0.
    1000022    2    1    0    0    0 -0.59742274734E+02 -0.15395226733E+02  0.31470782512E+00  0.62499990132E+02  0.99998664467E+01 0.  0.
    3000022    2    5    5    0    0 -0.45292337211E+02 -0.11232468347E+02 -0.39653042633E+01  0.46833217801E+02  0.24999299132E+00 0.  0.
        -13    1    4    4    0    0  0.35279145340E+02  0.68489737640E+01 -0.23029019584E+01  0.36011677550E+02  0.10500000000E+00 0. -1.
         13    1    4    4    0    0  0.12211747138E+02  0.23807437335E+01 -0.75769624077E+00  0.12465144905E+02  0.10500000000E+00 0.  1.
    3000001    1    5    5    0    0 -0.14449937523E+02 -0.41627583857E+01  0.42800120884E+01  0.15666772331E+02  0.10000000000E+01 0.  1.
        -13    1    6    6    0    0 -0.14046062717E+02 -0.35313080615E+01 -0.12445854103E+01  0.14536919629E+02  0.10500000000E+00 0.  1.
         13    1    6    6    0    0 -0.31246274494E+02 -0.77011602856E+01 -0.27207188530E+01  0.32296298172E+02  0.10500000000E+00 0. -1.
</event>
<event>
11    0  0.3396091E-009  0.9118800E+02  0.7816531E-02  0.1126479E+00
         25   -1    0    0    0    0  0.00000000000E+00  0.00000000000E+00  0.99999998245E-14  0.12500000000E+03  0.12500000000E+03 0.  0.
    3000001    1    3    3    0    0  0.11414760730E+02  0.21717223355E+02  0.70556934375E+00  0.24564860694E+02  0.10000000000E+01 0.  1.
    1000022    2    1    0    0    0  0.36452550551E+02  0.48911837722E+02  0.92246217118E+01  0.62499999174E+02  0.99999969981E+01 0.  0.
    3000022    2    3    3    0    0  0.25037789821E+02  0.27194614367E+02  0.85190523681E+01  0.37935138480E+02  0.25001718492E+00 0.  0.
    1000022    2    1    0    0    0 -0.36452550551E+02 -0.48911837722E+02 -0.92246217118E+01  0.62500000826E+02  0.10000007328E+02 0.  0.
    3000022    2    5    5    0    0 -0.18904966146E+02 -0.24530787047E+02  0.29477298527E+00  0.30972675759E+02  0.24998893879E+00 0.  0.
        -13    1    4    4    0    0  0.15464568875E+02  0.16881642936E+02  0.52555075128E+01  0.23489873200E+02  0.10500000000E+00 0. -1.
         13    1    4    4    0    0  0.95732209455E+01  0.10312971431E+02  0.32635448553E+01  0.14445265280E+02  0.10500000000E+00 0.  1.
    3000001    1    5    5    0    0 -0.17547584405E+02 -0.24381050675E+02 -0.95193946971E+01  0.31527325067E+02  0.10000000000E+01 0.  1.
        -13    1    6    6    0    0 -0.90512702712E+01 -0.11756393821E+02  0.73976769764E-01  0.14837613917E+02  0.10500000000E+00 0.  1.
         13    1    6    6    0    0 -0.98536958748E+01 -0.12774393226E+02  0.22079621550E+00  0.16135061842E+02  0.10500000000E+00 0. -1.
</event>
<event>
11    0  0.3396091E-009  0.9118800E+02  0.7816531E-02  0.1126479E+00
         25   -1    0    0    0    0  0.00000000000E+00  0.00000000000E+00  0.99999998245E-14  0.12500000000E+03  0.12500000000E+03 0.  0.
    3000001    1    3    3    0    0 -0.24948208810E+02 -0.43229645735E+02  0.26788047541E+02  0.56655228217E+02  0.10000000000E+01 0.  1.
    1000022    2    1    0    0    0 -0.29871563279E+02 -0.46054885471E+02  0.28158251590E+02  0.62499999805E+02  0.10000003732E+02 0.  0.
    3000022    2    3    3    0    0 -0.49233544688E+01 -0.28252397352E+01  0.13702040489E+01  0.58447715886E+01  0.24999400112E+00 0.  0.
    1000022    2    1    0    0    0  0.29871563279E+02  0.46054885471E+02 -0.28158251590E+02  0.62500000195E+02  0.10000006167E+02 0.  0.
    3000022    2    5    5    0    0  0.74830242261E-01  0.44188834768E+01 -0.36038333169E+01  0.57080868762E+01  0.25002092664E+00 0.  0.
        -13    1    4    4    0    0 -0.20993410223E+01 -0.11532661894E+01  0.52972397700E+00  0.24553794256E+01  0.10500000000E+00 0. -1.
         13    1    4    4    0    0 -0.28240134465E+01 -0.16719735458E+01  0.84048007188E+00  0.33893921630E+01  0.10500000000E+00 0.  1.
    3000001    1    5    5    0    0  0.29796733036E+02  0.41636001994E+02 -0.24554418273E+02  0.56791913319E+02  0.10000000000E+01 0.  1.
        -13    1    6    6    0    0  0.50652727201E-01  0.32571747599E+01 -0.26112364360E+01  0.41762822989E+01  0.10500000000E+00 0. -1.
         13    1    6    6    0    0  0.24177515060E-01  0.11617087169E+01 -0.99259688094E+00  0.15318045773E+01  0.10500000000E+00 0.  1.
</event>
<event>
11    0  0.3396091E-009  0.9118800E+02  0.7816531E-02  0.1126479E+00
         25   -1    0    0    0    0  0.00000000000E+00  0.00000000000E+00  0.99999998245E-14  0.12500000000E+03  0.12500000000E+03 0.  0.
    3000001    1    3    3    0    0 -0.11355550266E+02  0.68593757252E+01 -0.79474706094E+01  0.15497156070E+02  0.10000000000E+01 0. -1.
    1000022    2    1    0    0    0 -0.54278649365E+02  0.23192502526E+02 -0.17949547241E+02  0.62500001800E+02  0.10000001428E+02 0.  0.
    3000022    2    3    3    0    0 -0.42923099099E+02  0.16333126801E+02 -0.10002076632E+02  0.47002845730E+02  0.25000479125E+00 0.  0.
    1000022    2    1    0    0    0  0.54278649365E+02 -0.23192502526E+02  0.17949547241E+02  0.62499998200E+02  0.99999789236E+01 0.  0.
    3000022    2    5    5    0    0  0.31996549478E+02 -0.12186810440E+02  0.15248704596E+02  0.37481769153E+02  0.24999946138E+00 0.  0.
        -13    1    4    4    0    0 -0.31401605342E+02  0.11911364155E+02 -0.73094634002E+01  0.34371218981E+02  0.10500000000E+00 0. -1.
         13    1    4    4    0    0 -0.11521493758E+02  0.44217626459E+01 -0.26926132315E+01  0.12631626749E+02  0.10500000000E+00 0.  1.
    3000001    1    5    5    0    0  0.22282099887E+02 -0.11005692086E+02  0.27008426449E+01  0.25018229047E+02  0.10000000000E+01 0. -1.
        -13    1    6    6    0    0  0.21028755249E+02 -0.79898795526E+01  0.99613667278E+01  0.24602572522E+02  0.10500000000E+00 0. -1.
         13    1    6    6    0    0  0.10967794229E+02 -0.41969308878E+01  0.52873378683E+01  0.12879196631E+02  0.10500000000E+00 0.  1.
</event>
<event>
11    0  0.3396091E-009  0.9118800E+02  0.7816531E-02  0.1126479E+00
         25   -1    0    0    0    0  0.00000000000E+00  0.00000000000E+00  0.99999998245E-14  0.12500000000E+03  0.12500000000E+03 0.  0.
    3000001    1    3    3    0    0 -0.27250266950E+00 -0.21509346555E+01 -0.61831575327E+00  0.24663925008E+01  0.10000000000E+01 0.  1.
    1000022    2    1    0    0    0 -0.23805477357E+02 -0.51902086974E+02  0.23360706517E+02  0.62500000279E+02  0.10000002071E+02 0.  0.
    3000022    2    3    3    0    0 -0.23532974688E+02 -0.49751152318E+02  0.23979022270E+02  0.60033607778E+02  0.24999826564E+00 0.  0.
    1000022    2    1    0    0    0  0.23805477357E+02  0.51902086974E+02 -0.23360706517E+02  0.62499999721E+02  0.99999985857E+01 0.  0.
    3000022    2    5    5    0    0  0.74193156776E+01  0.20889886770E+02 -0.43525161079E+01  0.22592930689E+02  0.25001255910E+00 0.  0.
        -13    1    4    4    0    0 -0.14670972023E+02 -0.30881185003E+02  0.14916620681E+02  0.37301496013E+02  0.10500000000E+00 0.  1.
         13    1    4    4    0    0 -0.88620026647E+01 -0.18869967316E+02  0.90624015888E+01  0.22732111765E+02  0.10500000000E+00 0. -1.
    3000001    1    5    5    0    0  0.16386161680E+02  0.31012200204E+02 -0.19008190409E+02  0.39907069032E+02  0.10000000000E+01 0.  1.
        -13    1    6    6    0    0  0.21141431113E+01  0.60400749581E+01 -0.12880203766E+01  0.65285624822E+01  0.10500000000E+00 0. -1.
         13    1    6    6    0    0  0.53051725663E+01  0.14849811812E+02 -0.30644957313E+01  0.16064368207E+02  0.10500000000E+00 0.  1.
</event>
<event>
11    0  0.3396091E-009  0.9118800E+02  0.7816531E-02  0.1126479E+00
         25   -1    0    0    0    0  0.00000000000E+00  0.00000000000E+00  0.99999998245E-14  0.12500000000E+03  0.12500000000E+03 0.  0.
    3000001    1    3    3    0    0 -0.33886180732E+01 -0.30745736152E+01  0.43793234102E+01  0.64120362517E+01  0.10000000000E+01 0. -1.
    1000022    2    1    0    0    0 -0.30007306304E+02 -0.49068847910E+02  0.22317253772E+02  0.62500000015E+02  0.99999959539E+01 0.  0.
    3000022    2    3    3    0    0 -0.26618688231E+02 -0.45994274295E+02  0.17937930362E+02  0.56087963763E+02  0.25000477505E+00 0.  0.
    1000022    2    1    0    0    0  0.30007306304E+02  0.49068847910E+02 -0.22317253772E+02  0.62499999985E+02  0.99999957686E+01 0.  0.
    3000022    2    5    5    0    0  0.19305973453E+02  0.38660575891E+02 -0.18826051978E+02  0.47136434605E+02  0.24999005059E+00 0.  0.
        -13    1    4    4    0    0 -0.65140449507E+01 -0.11253036955E+02  0.44132460174E+01  0.13731401521E+02  0.10500000000E+00 0.  1.
         13    1    4    4    0    0 -0.20104643280E+02 -0.34741237340E+02  0.13524684344E+02  0.42356562242E+02  0.10500000000E+00 0. -1.
    3000001    1    5    5    0    0  0.10701332852E+02  0.10408272019E+02 -0.34912017941E+01  0.15363565380E+02  0.10000000000E+01 0. -1.
        -13    1    6    6    0    0  0.58569240618E+01  0.11669510043E+02 -0.56468067520E+01  0.14225978898E+02  0.10500000000E+00 0. -1.
         13    1    6    6    0    0  0.13449049391E+02  0.26991065848E+02 -0.13179245226E+02  0.32910455707E+02  0.10500000000E+00 0.  1.
</event>
<event>
11    0  0.3396091E-009  0.9118800E+02  0.7816531E-02  0.1126479E+00
         25   -1    0    0    0    0  0.00000000000E+00  0.00000000000E+00  0.99999998245E-14  0.12500000000E+03  0.12500000000E+03 0.  0.
    3000001    1    3    3    0    0  0.23476361602E+02  0.21481386421E+02  0.14634418759E+02  0.35039345442E+02  0.10000000000E+01 0. -1.
    1000022    2    1    0    0    0  0.43512729239E+02  0.31079333018E+02  0.30772835066E+02  0.62500000755E+02  0.10000008487E+02 0.  0.
    3000022    2    3    3    0    0  0.20036367637E+02  0.95979465970E+01  0.16138416307E+02  0.27460655313E+02  0.25000466346E+00 0.  0.
    1000022    2    1    0    0    0 -0.43512729239E+02 -0.31079333018E+02 -0.30772835066E+02  0.62499999245E+02  0.99999990478E+01 0.  0.
    3000022    2    5    5    0    0 -0.22807624420E+02 -0.20055892318E+02 -0.12924972137E+02  0.33008240709E+02  0.25000318620E+00 0.  0.
        -13    1    4    4    0    0  0.10489436859E+02  0.50038124963E+01  0.85223867280E+01  0.14412096504E+02  0.10500000000E+00 0.  1.
         13    1    4    4    0    0  0.95469307785E+01  0.45941341007E+01  0.76160295792E+01  0.13048558808E+02  0.10500000000E+00 0. -1.
    3000001    1    5    5    0    0 -0.20705104819E+02 -0.11023440700E+02 -0.17847862928E+02  0.29491758536E+02  0.10000000000E+01 0. -1.
        -13    1    6    6    0    0 -0.14756654328E+02 -0.13026367393E+02 -0.84227659689E+01  0.21410257028E+02  0.10500000000E+00 0. -1.
         13    1    6    6    0    0 -0.80509700921E+01 -0.70295249245E+01 -0.45022061686E+01  0.11597983681E+02  0.10500000000E+00 0.  1.
</event>
<event>
11    0  0.3396091E-009  0.9118800E+02  0.7816531E-02  0.1126479E+00
         25   -1    0    0    0    0  0.00000000000E+00  0.00000000000E+00  0.99999998245E-14  0.12500000000E+03  0.12500000000E+03 0.  0.
    3000001    1    3    3    0    0 -0.23487788587E+01 -0.19073916390E+01  0.19065364805E+01  0.37134601577E+01  0.10000000000E+01 0. -1.
    1000022    2    1    0    0    0 -0.25612567484E+02 -0.55531799251E+02  0.81526504068E+01  0.62500000970E+02  0.10000003570E+02 0.  0.
    3000022    2    3    3    0    0 -0.23263788626E+02 -0.53624407612E+02  0.62461139263E+01  0.58786540812E+02  0.24997707907E+00 0.  0.
    1000022    2    1    0    0    0  0.25612567484E+02  0.55531799251E+02 -0.81526504068E+01  0.62499999030E+02  0.99999914479E+01 0.  0.
    3000022    2    5    5    0    0  0.24854751124E+02  0.52908877838E+02 -0.57695740389E+01  0.58740603421E+02  0.24999625548E+00 0.  0.
        -13    1    4    4    0    0 -0.13465024783E+02 -0.30946733485E+02  0.35520321525E+01  0.33935750518E+02  0.10500000000E+00 0. -1.
         13    1    4    4    0    0 -0.97987638423E+01 -0.22677674126E+02  0.26940817738E+01  0.24850790294E+02  0.10500000000E+00 0.  1.
    3000001    1    5    5    0    0  0.75781636015E+00  0.26229214127E+01 -0.23830763678E+01  0.37593956094E+01  0.10000000000E+01 0.  1.
        -13    1    6    6    0    0  0.14984976324E+02  0.31921879836E+02 -0.34182847435E+01  0.35429530384E+02  0.10500000000E+00 0. -1.
         13    1    6    6    0    0  0.98697748002E+01  0.20986998002E+02 -0.23512892955E+01  0.23311073036E+02  0.10500000000E+00 0.  1.
</event>
<event>
11    0  0.3396091E-009  0.9118800E+02  0.7816531E-02  0.1126479E+00
         25   -1    0    0    0    0  0.00000000000E+00  0.00000000000E+00  0.99999998245E-14  0.12500000000E+03  0.12500000000E+03 0.  0.
    3000001    1    3    3    0    0 -0.15575361273E+01  0.44913253766E+01 -0.12843984268E+01  0.50246991696E+01  0.10000000000E+01 0. -1.
    1000022    2    1    0    0    0  0.12088187073E+02  0.57482424298E+02 -0.18865215098E+02  0.62499998007E+02  0.10000002013E+02 0.  0.
    3000022    2    3    3    0    0  0.13645723200E+02  0.52991098921E+02 -0.17580816671E+02  0.57475298837E+02  0.25007005621E+00 0.  0.
    1000022    2    1    0    0    0 -0.12088187073E+02 -0.57482424298E+02  0.18865215098E+02  0.62500001993E+02  0.10000026929E+02 0.  0.
    3000022    2    5    5    0    0 -0.13666489374E+02 -0.48063748036E+02  0.16302615557E+02  0.52561721604E+02  0.24999382924E+00 0.  0.
        -13    1    4    4    0    0  0.47342775339E+01  0.18269271872E+02 -0.60135404142E+01  0.19807911849E+02  0.10500000000E+00 0.  1.
         13    1    4    4    0    0  0.89114456664E+01  0.34721827050E+02 -0.11567276257E+02  0.37667386988E+02  0.10500000000E+00 0. -1.
    3000001    1    5    5    0    0  0.15783023014E+01 -0.94186762621E+01  0.25625995410E+01  0.99382803891E+01  0.10000000000E+01 0.  1.
        -13    1    6    6    0    0 -0.50202120765E+01 -0.17752559947E+02  0.59631098172E+01  0.19388801346E+02  0.10500000000E+00 0. -1.
         13    1    6    6    0    0 -0.86462772977E+01 -0.30311188089E+02  0.10339505740E+02  0.33172920258E+02  0.10500000000E+00 0.  1.
</event>
<event>
11    0  0.3396091E-009  0.9118800E+02  0.7816531E-02  0.1126479E+00
         25   -1    0    0    0    0  0.00000000000E+00  0.00000000000E+00  0.99999998245E-14  0.12500000000E+03  0.12500000000E+03 0.  0.
    3000001    1    3    3    0    0  0.15093780751E+02 -0.31127854836E+02 -0.15858950551E+02  0.38069303601E+02  0.10000000000E+01 0.  1.
    1000022    2    1    0    0    0  0.26578009809E+02 -0.45798057341E+02 -0.31660660364E+02  0.62499999260E+02  0.99999915607E+01 0.  0.
    3000022    2    3    3    0    0  0.11484229058E+02 -0.14670202505E+02 -0.15801709812E+02  0.24430695660E+02  0.24999762882E+00 0.  0.
    1000022    2    1    0    0    0 -0.26578009809E+02  0.45798057341E+02  0.31660660364E+02  0.62500000740E+02  0.10000000809E+02 0.  0.
    3000022    2    5    5    0    0 -0.17269006334E+02  0.24542864291E+02  0.22603592344E+02  0.37570675470E+02  0.25000207968E+00 0.  0.
        -13    1    4    4    0    0  0.53518804885E+01 -0.67322323899E+01 -0.72691561053E+01  0.11261315784E+02  0.10500000000E+00 0.  1.
         13    1    4    4    0    0  0.61323485695E+01 -0.79379701155E+01 -0.85325537069E+01  0.13169379875E+02  0.10500000000E+00 0. -1.
    3000001    1    5    5    0    0 -0.93090034751E+01  0.21255193050E+02  0.90570680198E+01  0.24929325270E+02  0.10000000000E+01 0. -1.
        -13    1    6    6    0    0 -0.61036584888E+01  0.85934170278E+01  0.79796835839E+01  0.13220735163E+02  0.10500000000E+00 0.  1.
         13    1    6    6    0    0 -0.11165347845E+02  0.15949447263E+02  0.14623908760E+02  0.24349940306E+02  0.10500000000E+00 0. -1.
</event>
<event>
11    0  0.3396091E-009  0.9118800E+02  0.7816531E-02  0.1126479E+00
         25   -1    0    0    0    0  0.00000000000E+00  0.00000000000E+00  0.99999998245E-14  0.12500000000E+03  0.12500000000E+03 0.  0.
    3000001    1    3    3    0    0 -0.52439192625E+01 -0.68606599401E+01 -0.42849411177E+02  0.43722298456E+02  0.10000000000E+01 0.  1.
    1000022    2    1    0    0    0 -0.11803571958E+02 -0.50249996679E+01 -0.60346294335E+02  0.62500000949E+02  0.99999973069E+01 0.  0.
    3000022    2    3    3    0    0 -0.65596526950E+01  0.18356602722E+01 -0.17496883158E+02  0.18777702494E+02  0.24999718481E+00 0.  0.
    1000022    2    1    0    0    0  0.11803571958E+02  0.50249996679E+01  0.60346294335E+02  0.62499999051E+02  0.99999854399E+01 0.  0.
    3000022    2    5    5    0    0  0.29630363319E+01  0.21363164500E+01  0.39280367164E+02  0.39450642260E+02  0.24999590374E+00 0.  0.
        -13    1    4    4    0    0 -0.44053852268E+01  0.12369403231E+01 -0.11893790783E+02  0.12744046632E+02  0.10500000000E+00 0. -1.
         13    1    4    4    0    0 -0.21542674683E+01  0.59871994906E+00 -0.56030923743E+01  0.60336558617E+01  0.10500000000E+00 0.  1.
    3000001    1    5    5    0    0  0.88405356257E+01  0.28886832179E+01  0.21065927171E+02  0.23049356790E+02  0.10000000000E+01 0.  1.
        -13    1    6    6    0    0  0.18522095543E+01  0.13917152483E+01  0.25286329099E+02  0.25392459823E+02  0.10500000000E+00 0.  1.
         13    1    6    6    0    0  0.11108267776E+01  0.74460120174E+00  0.13994038065E+02  0.14058182437E+02  0.10500000000E+00 0. -1.
</event>
<event>
11    0  0.3396091E-009  0.9118800E+02  0.7816531E-02  0.1126479E+00
         25   -1    0    0    0    0  0.00000000000E+00  0.00000000000E+00  0.99999998245E-14  0.12500000000E+03  0.12500000000E+03 0.  0.
    3000001    1    3    3    0    0  0.14874235217E+02 -0.90536059373E+01  0.30407370382E+02  0.35054512225E+02  0.10000000000E+01 0. -1.
    1000022    2    1    0    0    0  0.18872815238E+02 -0.13127708082E+02  0.57251461603E+02  0.62499997833E+02  0.99999999493E+01 0.  0.
    3000022    2    3    3    0    0  0.39985800208E+01 -0.40741021451E+01  0.26844091220E+02  0.27445485608E+02  0.24999268584E+00 0.  0.
    1000022    2    1    0    0    0 -0.18872815238E+02  0.13127708082E+02 -0.57251461603E+02  0.62500002167E+02  0.10000027036E+02 0.  0.
    3000022    2    5    5    0    0 -0.59048240029E+01 -0.52323926292E+00 -0.10032478589E+02  0.11655636531E+02  0.25002093559E+00 0.  0.
        -13    1    4    4    0    0  0.14644481413E+01 -0.15197821333E+01  0.96608176874E+01  0.98892249181E+01  0.10500000000E+00 0.  1.
         13    1    4    4    0    0  0.25341318795E+01 -0.25543200117E+01  0.17183273533E+02  0.17556260690E+02  0.10500000000E+00 0. -1.
    3000001    1    5    5    0    0 -0.12967991235E+02  0.13650947345E+02 -0.47218983014E+02  0.50844365636E+02  0.10000000000E+01 0.  1.
        -13    1    6    6    0    0 -0.15851783913E+01 -0.13813721584E+00 -0.27665213495E+01  0.31932018101E+01  0.10500000000E+00 0.  1.
         13    1    6    6    0    0 -0.43196456117E+01 -0.38510204707E+00 -0.72659572395E+01  0.84624347208E+01  0.10500000000E+00 0. -1.
</event>
<event>
11    0  0.3396091E-009  0.9118800E+02  0.7816531E-02  0.1126479E+00
         25   -1    0    0    0    0  0.00000000000E+00  0.00000000000E+00  0.99999998245E-14  0.12500000000E+03  0.12500000000E+03 0.  0.
    3000001    1    3    3    0    0  0.41214136359E+02 -0.34031336248E+02 -0.21757621366E+02  0.57715950742E+02  0.10000000000E+01 0. -1.
    1000022    2    1    0    0    0  0.45856233477E+02 -0.34383297584E+02 -0.22830784842E+02  0.62499999674E+02  0.99999960676E+01 0.  0.
    3000022    2    3    3    0    0  0.46420971182E+01 -0.35196133575E+00 -0.10731634756E+01  0.47840489314E+01  0.25000379300E+00 0.  0.
    1000022    2    1    0    0    0 -0.45856233477E+02  0.34383297584E+02  0.22830784842E+02  0.62500000326E+02  0.10000000144E+02 0.  0.
    3000022    2    5    5    0    0 -0.42106863355E+01  0.33453665006E+01  0.55993881502E+01  0.77676899918E+01  0.25000742338E+00 0.  0.
        -13    1    4    4    0    0  0.17847557873E+01 -0.16823289319E+00 -0.36021679905E+00  0.18315121264E+01  0.10500000000E+00 0.  1.
         13    1    4    4    0    0  0.28573413308E+01 -0.18372844256E+00 -0.71294667660E+00  0.29525368051E+01  0.10500000000E+00 0. -1.
    3000001    1    5    5    0    0 -0.41645547141E+02  0.31037931083E+02  0.17231396691E+02  0.54732310334E+02  0.10000000000E+01 0. -1.
        -13    1    6    6    0    0 -0.21983144219E+01  0.16626683336E+01  0.28929121855E+01  0.39971262424E+01  0.10500000000E+00 0.  1.
         13    1    6    6    0    0 -0.20123719137E+01  0.16826981671E+01  0.27064759647E+01  0.37705637494E+01  0.10500000000E+00 0. -1.
</event>
<event>
11    0  0.3396091E-009  0.9118800E+02  0.7816531E-02  0.1126479E+00
         25   -1    0    0    0    0  0.00000000000E+00  0.00000000000E+00  0.99999998245E-14  0.12500000000E+03  0.12500000000E+03 0.  0.
    3000001    1    3    3    0    0 -0.21276577287E+01 -0.21598045453E+01 -0.36711989337E+01  0.48651191861E+01  0.10000000000E+01 0. -1.
    1000022    2    1    0    0    0 -0.33755496714E+02 -0.46701557535E+02 -0.22040439203E+02  0.62499999624E+02  0.99999979085E+01 0.  0.
    3000022    2    3    3    0    0 -0.31627838986E+02 -0.44541752989E+02 -0.18369240270E+02  0.57634880438E+02  0.24999355569E+00 0.  0.
    1000022    2    1    0    0    0  0.33755496714E+02  0.46701557535E+02  0.22040439203E+02  0.62500000376E+02  0.10000002604E+02 0.  0.
    3000022    2    5    5    0    0  0.48587117872E+00  0.17736312497E+00 -0.73094423634E+00  0.92967836490E+00  0.24998780993E+00 0.  0.
        -13    1    4    4    0    0 -0.74724062824E+01 -0.10530649251E+02 -0.43257130742E+01  0.13618158756E+02  0.10500000000E+00 0. -1.
         13    1    4    4    0    0 -0.24155432703E+02 -0.34011103738E+02 -0.14043527195E+02  0.44016721682E+02  0.10500000000E+00 0.  1.
    3000001    1    5    5    0    0  0.33269625536E+02  0.46524194410E+02  0.22771383440E+02  0.61570322011E+02  0.10000000000E+01 0.  1.
        -13    1    6    6    0    0  0.30084066994E+00  0.16246674825E+00 -0.40689256396E+00  0.54174450766E+00  0.10500000000E+00 0. -1.
         13    1    6    6    0    0  0.18503050879E+00  0.14896376721E-01 -0.32405167238E+00  0.38793385724E+00  0.10500000000E+00 0.  1.
</event>
<event>
11    0  0.3396091E-009  0.9118800E+02  0.7816531E-02  0.1126479E+00
         25   -1    0    0    0    0  0.00000000000E+00  0.00000000000E+00  0.99999998245E-14  0.12500000000E+03  0.12500000000E+03 0.  0.
    3000001    1    3    3    0    0 -0.30430196626E+01  0.13994607822E+02 -0.14550988304E+02  0.20441141782E+02  0.10000000000E+01 0. -1.
    1000022    2    1    0    0    0  0.13189760421E+01  0.35592736494E+02 -0.50375266147E+02  0.62500000044E+02  0.99999988642E+01 0.  0.
    3000022    2    3    3    0    0  0.43619957047E+01  0.21598128672E+02 -0.35824277843E+02  0.42058858262E+02  0.25001334467E+00 0.  0.
    1000022    2    1    0    0    0 -0.13189760421E+01 -0.35592736494E+02  0.50375266147E+02  0.62499999956E+02  0.99999983104E+01 0.  0.
    3000022    2    5    5    0    0 -0.22885450889E+01 -0.64003759249E+01  0.46738794297E+01  0.82528735104E+01  0.25004330046E+00 0.  0.
        -13    1    4    4    0    0  0.25813333986E+01  0.13048043653E+02 -0.21560151884E+02  0.25333098893E+02  0.10500000000E+00 0.  1.
         13    1    4    4    0    0  0.17806623061E+01  0.85500850190E+01 -0.14264125959E+02  0.16725759369E+02  0.10500000000E+00 0. -1.
    3000001    1    5    5    0    0  0.96956904678E+00 -0.29192360569E+02  0.45701386717E+02  0.54247126445E+02  0.10000000000E+01 0.  1.
        -13    1    6    6    0    0 -0.10744323071E+01 -0.31882803968E+01  0.22789841853E+01  0.40650129874E+01  0.10500000000E+00 0. -1.
         13    1    6    6    0    0 -0.12141127818E+01 -0.32120955281E+01  0.23948952444E+01  0.41878605230E+01  0.10500000000E+00 0.  1.
</event>
<event>
11    0  0.3396091E-009  0.9118800E+02  0.7816531E-02  0.1126479E+00
         25   -1    0    0    0    0  0.00000000000E+00  0.00000000000E+00  0.99999998245E-14  0.12500000000E+03  0.12500000000E+03 0.  0.
    3000001    1    3    3    0    0 -0.29224564884E+01  0.91457666211E+01 -0.12942994106E+02  0.16146420515E+02  0.10000000000E+01 0.  1.
    1000022    2    1    0    0    0 -0.15080681376E+02  0.46173152764E+02 -0.38037654760E+02  0.62499999149E+02  0.99999863563E+01 0.  0.
    3000022    2    3    3    0    0 -0.12158224888E+02  0.37027386143E+02 -0.25094660654E+02  0.46353578635E+02  0.25000385303E+00 0.  0.
    1000022    2    1    0    0    0  0.15080681376E+02 -0.46173152764E+02  0.38037654760E+02  0.62500000851E+02  0.99999969885E+01 0.  0.
    3000022    2    5    5    0    0  0.13130277566E+02 -0.39269764096E+02  0.27478928858E+02  0.49695800649E+02  0.25001973005E+00 0.  0.
        -13    1    4    4    0    0 -0.69660165048E+01  0.21091224555E+02 -0.14239228761E+02  0.26384309729E+02  0.10500000000E+00 0. -1.
         13    1    4    4    0    0 -0.51922083829E+01  0.15936161588E+02 -0.10855431893E+02  0.19969268906E+02  0.10500000000E+00 0.  1.
    3000001    1    5    5    0    0  0.19504038100E+01 -0.69033886678E+01  0.10558725902E+02  0.12804200202E+02  0.10000000000E+01 0. -1.
        -13    1    6    6    0    0  0.46503816478E+01 -0.14003142235E+02  0.97332493144E+01  0.17676572325E+02  0.10500000000E+00 0.  1.
         13    1    6    6    0    0  0.84798959184E+01 -0.25266621861E+02  0.17745679543E+02  0.32019228324E+02  0.10500000000E+00 0. -1.
</event>
<event>
11    0  0.3396091E-009  0.9118800E+02  0.7816531E-02  0.1126479E+00
         25   -1    0    0    0    0  0.00000000000E+00  0.00000000000E+00  0.99999998245E-14  0.12500000000E+03  0.12500000000E+03 0.  0.
    3000001    1    3    3    0    0 -0.10848872699E+02 -0.54725394705E+01 -0.32314064109E+01  0.12613037480E+02  0.10000000000E+01 0. -1.
    1000022    2    1    0    0    0 -0.50545819061E+02 -0.35353148275E+02  0.12349389581E+01  0.62500000466E+02  0.10000003323E+02 0.  0.
    3000022    2    3    3    0    0 -0.39696946363E+02 -0.29880608805E+02  0.44663453690E+01  0.49886962986E+02  0.25000380422E+00 0.  0.
    1000022    2    1    0    0    0  0.50545819061E+02  0.35353148275E+02 -0.12349389581E+01  0.62499999534E+02  0.99999974983E+01 0.  0.
    3000022    2    5    5    0    0  0.49531017233E+02  0.32344879721E+02 -0.12814215829E+01  0.59171086336E+02  0.25000923344E+00 0.  0.
        -13    1    4    4    0    0 -0.10707166425E+02 -0.80406464552E+01  0.11710971332E+01  0.13441648030E+02  0.10500000000E+00 0. -1.
         13    1    4    4    0    0 -0.28989779937E+02 -0.21839962350E+02  0.32952482357E+01  0.36445314955E+02  0.10500000000E+00 0.  1.
    3000001    1    5    5    0    0  0.10148018285E+01  0.30082685543E+01  0.46482624799E-01  0.33289131981E+01  0.10000000000E+01 0. -1.
        -13    1    6    6    0    0  0.36554360063E+02  0.23831978452E+02 -0.94162468454E+00  0.43647246404E+02  0.10500000000E+00 0. -1.
         13    1    6    6    0    0  0.12976657170E+02  0.85129012691E+01 -0.33979689835E+00  0.15523839932E+02  0.10500000000E+00 0.  1.
</event>
<event>
11    0  0.3396091E-009  0.9118800E+02  0.7816531E-02  0.1126479E+00
         25   -1    0    0    0    0  0.00000000000E+00  0.00000000000E+00  0.99999998245E-14  0.12500000000E+03  0.12500000000E+03 0.  0.
    3000001    1    3    3    0    0  0.24126109412E+02 -0.67872571666E+01 -0.15039789571E+02  0.29246047349E+02  0.10000000000E+01 0. -1.
    1000022    2    1    0    0    0  0.44630798791E+02 -0.20530993882E+02 -0.37320504462E+02  0.62499999551E+02  0.99999990052E+01 0.  0.
    3000022    2    3    3    0    0  0.20504689379E+02 -0.13743736716E+02 -0.22280714891E+02  0.33253952202E+02  0.24999116038E+00 0.  0.
    1000022    2    1    0    0    0 -0.44630798791E+02  0.20530993882E+02  0.37320504462E+02  0.62500000449E+02  0.10000004615E+02 0.  0.
    3000022    2    5    5    0    0 -0.44078095654E+02  0.19111860715E+02  0.34521547762E+02  0.59160303110E+02  0.24993540385E+00 0.  0.
        -13    1    4    4    0    0  0.83640970435E+01 -0.56795362349E+01 -0.91518517387E+01  0.13637546203E+02  0.10500000000E+00 0.  1.
         13    1    4    4    0    0  0.12140592335E+02 -0.80642004807E+01 -0.13128863152E+02  0.19616405999E+02  0.10500000000E+00 0. -1.
    3000001    1    5    5    0    0 -0.55270313624E+00  0.14191331674E+01  0.27989567003E+01  0.33396973387E+01  0.10000000000E+01 0. -1.
        -13    1    6    6    0    0 -0.13607155194E+02  0.58718045405E+01  0.10599352697E+02  0.18220594491E+02  0.10500000000E+00 0. -1.
         13    1    6    6    0    0 -0.30470940461E+02  0.13240056174E+02  0.23922195065E+02  0.40939708619E+02  0.10500000000E+00 0.  1.
</event>
<event>
11    0  0.3396091E-009  0.9118800E+02  0.7816531E-02  0.1126479E+00
         25   -1    0    0    0    0  0.00000000000E+00  0.00000000000E+00  0.99999998245E-14  0.12500000000E+03  0.12500000000E+03 0.  0.
    3000001    1    3    3    0    0  0.28990336908E+01  0.53661776108E+02  0.18689794715E+01  0.53781815660E+02  0.10000000000E+01 0.  1.
    1000022    2    1    0    0    0 -0.55290839876E+00  0.61645256541E+02  0.24096907406E+01  0.62499999742E+02  0.99999998257E+01 0.  0.
    3000022    2    3    3    0    0 -0.34519420896E+01  0.79834804332E+01  0.54071126909E+00  0.87181840818E+01  0.25000198090E+00 0.  0.
    1000022    2    1    0    0    0  0.55290839876E+00 -0.61645256541E+02 -0.24096907406E+01  0.62500000258E+02  0.10000003057E+02 0.  0.
    3000022    2    5    5    0    0 -0.99973477688E+00 -0.59681773494E+02 -0.17101533310E+01  0.59715162903E+02  0.24999832239E+00 0.  0.
        -13    1    4    4    0    0 -0.19447797789E+01  0.45262044568E+01  0.37113735985E+00  0.49414029499E+01  0.10500000000E+00 0. -1.
         13    1    4    4    0    0 -0.15071623107E+01  0.34572759764E+01  0.16957390924E+00  0.37767811319E+01  0.10500000000E+00 0.  1.
    3000001    1    5    5    0    0  0.15526431756E+01 -0.19634830475E+01 -0.69953740956E+00  0.27848373554E+01  0.10000000000E+01 0. -1.
        -13    1    6    6    0    0 -0.61787758676E+00 -0.36827806994E+02 -0.99408120551E+00  0.36846551578E+02  0.10500000000E+00 0. -1.
         13    1    6    6    0    0 -0.38185719012E+00 -0.22853966499E+02 -0.71607212551E+00  0.22868611325E+02  0.10500000000E+00 0.  1.
</event>
<event>
11    0  0.3396091E-009  0.9118800E+02  0.7816531E-02  0.1126479E+00
         25   -1    0    0    0    0  0.00000000000E+00  0.00000000000E+00  0.99999998245E-14  0.12500000000E+03  0.12500000000E+03 0.  0.
    3000001    1    3    3    0    0 -0.14574156427E+02 -0.58099304225E+02 -0.52368916864E+01  0.60136180636E+02  0.10000000000E+01 0. -1.
    1000022    2    1    0    0    0 -0.16412432560E+02 -0.59308010107E+02 -0.44093197261E+01  0.62499999351E+02  0.99999906477E+01 0.  0.
    3000022    2    3    3    0    0 -0.18382761332E+01 -0.12087058822E+01  0.82757196033E+00  0.23638187143E+01  0.25006901569E+00 0.  0.
    1000022    2    1    0    0    0  0.16412432560E+02  0.59308010107E+02  0.44093197261E+01  0.62500000649E+02  0.99999987665E+01 0.  0.
    3000022    2    5    5    0    0  0.14290186366E+02  0.38220285136E+02 -0.11423488671E+00  0.40805332648E+02  0.25000126061E+00 0.  0.
        -13    1    4    4    0    0 -0.90245830789E+00 -0.65468970777E+00  0.46641277614E+00  0.12131015987E+01  0.10500000000E+00 0.  1.
         13    1    4    4    0    0 -0.93581782536E+00 -0.55401617443E+00  0.36115918420E+00  0.11507171156E+01  0.10500000000E+00 0. -1.
    3000001    1    5    5    0    0  0.21222461936E+01  0.21087724971E+02  0.45235546128E+01  0.21694668002E+02  0.10000000000E+01 0. -1.
        -13    1    6    6    0    0  0.41813284160E+01  0.11300508418E+02 -0.16515268258E-01  0.12049742553E+02  0.10500000000E+00 0. -1.
         13    1    6    6    0    0  0.10108857950E+02  0.26919776718E+02 -0.97719618450E-01  0.28755590095E+02  0.10500000000E+00 0.  1.
</event>
<event>
11    0  0.3396091E-009  0.9118800E+02  0.7816531E-02  0.1126479E+00
         25   -1    0    0    0    0  0.00000000000E+00  0.00000000000E+00  0.99999998245E-14  0.12500000000E+03  0.12500000000E+03 0.  0.
    3000001    1    3    3    0    0 -0.49472492990E+01 -0.14368509591E+02 -0.57132319363E+02  0.59127246336E+02  0.10000000000E+01 0. -1.
    1000022    2    1    0    0    0 -0.30477333165E+01 -0.14423873233E+02 -0.59907531175E+02  0.62500007167E+02  0.10000090349E+02 0.  0.
    3000022    2    3    3    0    0  0.18995159824E+01 -0.55363642679E-01 -0.27752118118E+01  0.33727608309E+01  0.24997784202E+00 0.  0.
    1000022    2    1    0    0    0  0.30477333165E+01  0.14423873233E+02  0.59907531175E+02  0.62499992833E+02  0.10000000763E+02 0.  0.
    3000022    2    5    5    0    0  0.43682366961E+01  0.11971771169E+02  0.56785316153E+02  0.58198276855E+02  0.25000313982E+00 0.  0.
        -13    1    4    4    0    0  0.92607223860E+00 -0.63625650554E-01 -0.14554014518E+01  0.17294150458E+01  0.10500000000E+00 0.  1.
         13    1    4    4    0    0  0.97344374382E+00  0.82620078752E-02 -0.13198103600E+01  0.16433457851E+01  0.10500000000E+00 0. -1.
    3000001    1    5    5    0    0 -0.13205033796E+01  0.24521020649E+01  0.31222150216E+01  0.43017159777E+01  0.10000000000E+01 0. -1.
        -13    1    6    6    0    0  0.26799152767E+01  0.74255102687E+01  0.35421157674E+02  0.36290351123E+02  0.10500000000E+00 0. -1.
         13    1    6    6    0    0  0.16883214194E+01  0.45462608998E+01  0.21364158479E+02  0.21907925733E+02  0.10500000000E+00 0.  1.
</event>
<event>
11    0  0.3396091E-009  0.9118800E+02  0.7816531E-02  0.1126479E+00
         25   -1    0    0    0    0  0.00000000000E+00  0.00000000000E+00  0.99999998245E-14  0.12500000000E+03  0.12500000000E+03 0.  0.
    3000001    1    3    3    0    0  0.17108643576E+02 -0.52776705868E+01 -0.48141893141E+02  0.51373158041E+02  0.10000000000E+01 0. -1.
    1000022    2    1    0    0    0  0.18487475697E+02 -0.24397986598E+01 -0.58809104436E+02  0.62499999230E+02  0.99999881984E+01 0.  0.
    3000022    2    3    3    0    0  0.13788321213E+01  0.28378719270E+01 -0.10667211295E+02  0.11126841189E+02  0.25000589142E+00 0.  0.
    1000022    2    1    0    0    0 -0.18487475697E+02  0.24397986598E+01  0.58809104436E+02  0.62500000770E+02  0.99999978244E+01 0.  0.
    3000022    2    5    5    0    0 -0.15677049080E+02  0.33700468584E+01  0.35152309835E+02  0.38637733688E+02  0.24998824949E+00 0.  0.
        -13    1    4    4    0    0  0.10252816889E+01  0.21598752570E+01 -0.80721499562E+01  0.84194354670E+01  0.10500000000E+00 0. -1.
         13    1    4    4    0    0  0.35355043243E+00  0.67799667001E+00 -0.25950613387E+01  0.27074057222E+01  0.10500000000E+00 0.  1.
    3000001    1    5    5    0    0 -0.28104266174E+01 -0.93024819866E+00  0.23656794602E+02  0.23862267082E+02  0.10000000000E+01 0. -1.
        -13    1    6    6    0    0 -0.79514390557E+01  0.16486234054E+01  0.17880412272E+02  0.19638317398E+02  0.10500000000E+00 0.  1.
         13    1    6    6    0    0 -0.77256100243E+01  0.17214234530E+01  0.17271897562E+02  0.18999416290E+02  0.10500000000E+00 0. -1.
</event>
<event>
11    0  0.3396091E-009  0.9118800E+02  0.7816531E-02  0.1126479E+00
         25   -1    0    0    0    0  0.00000000000E+00  0.00000000000E+00  0.99999998245E-14  0.12500000000E+03  0.12500000000E+03 0.  0.
    3000001    1    3    3    0    0  0.16574678099E+00 -0.11021518401E+01  0.84432476234E+00  0.17190389694E+01  0.10000000000E+01 0. -1.
    1000022    2    1    0    0    0  0.50319447166E+02 -0.23622183441E+02  0.26761834391E+02  0.62500000511E+02  0.99999985114E+01 0.  0.
    3000022    2    3    3    0    0  0.50153700385E+02 -0.22520031601E+02  0.25917509629E+02  0.60780961541E+02  0.24998978556E+00 0.  0.
    1000022    2    1    0    0    0 -0.50319447166E+02  0.23622183441E+02 -0.26761834391E+02  0.62499999489E+02  0.99999921274E+01 0.  0.
    3000022    2    5    5    0    0 -0.25965507425E+02  0.12006507299E+02 -0.82889529135E+01  0.29784778823E+02  0.25003154674E+00 0.  0.
        -13    1    4    4    0    0  0.32608753444E+02 -0.14622271332E+02  0.16787855033E+02  0.39483980570E+02  0.10500000000E+00 0.  1.
         13    1    4    4    0    0  0.17544946941E+02 -0.78977602695E+01  0.91296545964E+01  0.21296980971E+02  0.10500000000E+00 0. -1.
    3000001    1    5    5    0    0 -0.24353939741E+02  0.11615676142E+02 -0.18472881478E+02  0.32715220666E+02  0.10000000000E+01 0.  1.
        -13    1    6    6    0    0 -0.16107891047E+02  0.74990714637E+01 -0.51894008059E+01  0.18510568131E+02  0.10500000000E+00 0.  1.
         13    1    6    6    0    0 -0.98576163774E+01  0.45074358357E+01 -0.30995521075E+01  0.11274210692E+02  0.10500000000E+00 0. -1.
</event>
<event>
11    0  0.3396091E-009  0.9118800E+02  0.7816531E-02  0.1126479E+00
         25   -1    0    0    0    0  0.00000000000E+00  0.00000000000E+00  0.99999998245E-14  0.12500000000E+03  0.12500000000E+03 0.  0.
    3000001    1    3    3    0    0 -0.53778024867E+02 -0.12171352183E+02  0.20722085911E+01  0.55186156062E+02  0.10000000000E+01 0.  1.
    1000022    2    1    0    0    0 -0.60809698838E+02 -0.10332033223E+02  0.12961155493E+01  0.62500002823E+02  0.10000002703E+02 0.  0.
    3000022    2    3    3    0    0 -0.70316739711E+01  0.18393189591E+01 -0.77609304184E+00  0.73138467602E+01  0.25000190635E+00 0.  0.
    1000022    2    1    0    0    0  0.60809698838E+02  0.10332033223E+02 -0.12961155493E+01  0.62499997177E+02  0.99999674202E+01 0.  0.
    3000022    2    5    5    0    0  0.37380950086E+02  0.49488069001E+01 -0.53994849363E+01  0.38092559089E+02  0.25000260209E+00 0.  0.
        -13    1    4    4    0    0 -0.24323793513E+01  0.62337398371E+00 -0.21359625774E+00  0.25222436031E+01  0.10500000000E+00 0. -1.
         13    1    4    4    0    0 -0.45992946198E+01  0.12159449754E+01 -0.56249678410E+00  0.47916031571E+01  0.10500000000E+00 0.  1.
    3000001    1    5    5    0    0  0.23428748752E+02  0.53832263234E+01  0.41033693870E+01  0.24407438089E+02  0.10000000000E+01 0.  1.
        -13    1    6    6    0    0  0.27762529745E+02  0.36518145319E+01 -0.39901369759E+01  0.28284731311E+02  0.10500000000E+00 0.  1.
         13    1    6    6    0    0  0.96184203405E+01  0.12969923682E+01 -0.14093479604E+01  0.98078277780E+01  0.10500000000E+00 0. -1.
</event>
<event>
11    0  0.3396091E-009  0.9118800E+02  0.7816531E-02  0.1126479E+00
         25   -1    0    0    0    0  0.00000000000E+00  0.00000000000E+00  0.99999998245E-14  0.12500000000E+03  0.12500000000E+03 0.  0.
    3000001    1    3    3    0    0 -0.51226844931E+02 -0.22637793973E+02 -0.10742748745E+02  0.57035655586E+02  0.10000000000E+01 0. -1.
    1000022    2    1    0    0    0 -0.54479190663E+02 -0.25157935483E+02 -0.14329904720E+02  0.62499999646E+02  0.99999926695E+01 0.  0.
    3000022    2    3    3    0    0 -0.32523457325E+01 -0.25201415106E+01 -0.35871559743E+01  0.54643440602E+01  0.25000405412E+00 0.  0.
    1000022    2    1    0    0    0  0.54479190663E+02  0.25157935483E+02  0.14329904720E+02  0.62500000354E+02  0.99999970904E+01 0.  0.
    3000022    2    5    5    0    0  0.48921010798E+02  0.19168328495E+02  0.11427736549E+02  0.53771235528E+02  0.24998556943E+00 0.  0.
        -13    1    4    4    0    0 -0.18161098862E+01 -0.13285525624E+01 -0.19927721106E+01  0.30075692369E+01  0.10500000000E+00 0. -1.
         13    1    4    4    0    0 -0.14362358463E+01 -0.11915889482E+01 -0.15943838637E+01  0.24567748233E+01  0.10500000000E+00 0.  1.
    3000001    1    5    5    0    0  0.55581798652E+01  0.59896069879E+01  0.29021681711E+01  0.87287648254E+01  0.10000000000E+01 0.  1.
        -13    1    6    6    0    0  0.12561647002E+02  0.49502925964E+01  0.29514855170E+01  0.13821094890E+02  0.10500000000E+00 0. -1.
         13    1    6    6    0    0  0.36359363796E+02  0.14218035899E+02  0.84762510317E+01  0.39950140638E+02  0.10500000000E+00 0.  1.
</event>
<event>
11    0  0.3396091E-009  0.9118800E+02  0.7816531E-02  0.1126479E+00
         25   -1    0    0    0    0  0.00000000000E+00  0.00000000000E+00  0.99999998245E-14  0.12500000000E+03  0.12500000000E+03 0.  0.
    3000001    1    3    3    0    0  0.44670984447E+01 -0.49449137678E+01  0.73562678383E+01  0.99760622088E+01  0.10000000000E+01 0. -1.
    1000022    2    1    0    0    0  0.37137169724E+02 -0.10842768440E+02  0.48057410693E+02  0.62499997490E+02  0.99999980620E+01 0.  0.
    3000022    2    3    3    0    0  0.32670071279E+02 -0.58978546722E+01  0.40701142854E+02  0.52523935281E+02  0.25000132385E+00 0.  0.
    1000022    2    1    0    0    0 -0.37137169724E+02  0.10842768440E+02 -0.48057410693E+02  0.62500002510E+02  0.10000029437E+02 0.  0.
    3000022    2    5    5    0    0 -0.20808616055E+02  0.85498958223E+01 -0.20869525285E+02  0.30687111370E+02  0.24999584704E+00 0.  0.
        -13    1    4    4    0    0  0.15323484155E+02 -0.27964024739E+01  0.19001214101E+02  0.24570026368E+02  0.10500000000E+00 0.  1.
         13    1    4    4    0    0  0.17346587124E+02 -0.31014521983E+01  0.21699928754E+02  0.27953908913E+02  0.10500000000E+00 0. -1.
    3000001    1    5    5    0    0 -0.16328553669E+02  0.22928726177E+01 -0.27187885407E+02  0.31812891140E+02  0.10000000000E+01 0. -1.
        -13    1    6    6    0    0 -0.14005469944E+02  0.57071480681E+01 -0.14068315325E+02  0.20655586375E+02  0.10500000000E+00 0. -1.
         13    1    6    6    0    0 -0.68031461105E+01  0.28427477542E+01 -0.68012099602E+01  0.10031524995E+02  0.10500000000E+00 0.  1.
</event>
<event>
11    0  0.3396091E-009  0.9118800E+02  0.7816531E-02  0.1126479E+00
         25   -1    0    0    0    0  0.00000000000E+00  0.00000000000E+00  0.99999998245E-14  0.12500000000E+03  0.12500000000E+03 0.  0.
    3000001    1    3    3    0    0 -0.29370513969E+02 -0.37497189647E+02  0.18498899904E+02  0.51106512500E+02  0.10000000000E+01 0.  1.
    1000022    2    1    0    0    0 -0.38208907485E+02 -0.42035226684E+02  0.24070070351E+02  0.62499993716E+02  0.10000001710E+02 0.  0.
    3000022    2    3    3    0    0 -0.88383935162E+01 -0.45380370370E+01  0.55711704471E+01  0.11393481216E+02  0.24998795337E+00 0.  0.
    1000022    2    1    0    0    0  0.38208907485E+02  0.42035226684E+02 -0.24070070351E+02  0.62500006284E+02  0.10000080262E+02 0.  0.
    3000022    2    5    5    0    0  0.23298001068E+02  0.32287476195E+02 -0.15851326635E+02  0.42855630040E+02  0.24999439982E+00 0.  0.
        -13    1    4    4    0    0 -0.46352472756E+01 -0.23649115115E+01  0.28419269341E+01  0.59300841024E+01  0.10500000000E+00 0.  1.
         13    1    4    4    0    0 -0.42031462407E+01 -0.21731255255E+01  0.27292435129E+01  0.54633971138E+01  0.10500000000E+00 0.  1.
    3000001    1    5    5    0    0  0.14910906417E+02  0.97477504894E+01 -0.82187437154E+01  0.19644376245E+02  0.10000000000E+01 0. -1.
        -13    1    6    6    0    0  0.89072671968E+01  0.12331959320E+02 -0.59911221728E+01  0.16349960229E+02  0.10500000000E+00 0. -1.
         13    1    6    6    0    0  0.14390733872E+02  0.19955516874E+02 -0.98602044623E+01  0.26505669811E+02  0.10500000000E+00 0.  1.
</event>
<event>
11    0  0.3396091E-009  0.9118800E+02  0.7816531E-02  0.1126479E+00
         25   -1    0    0    0    0  0.00000000000E+00  0.00000000000E+00  0.99999998245E-14  0.12500000000E+03  0.12500000000E+03 0.  0.
    3000001    1    3    3    0    0  0.23976065932E+02  0.42795546639E+02  0.17562975932E+02  0.52113037460E+02  0.10000000000E+01 0.  1.
    1000022    2    1    0    0    0  0.32057789086E+02  0.48377278095E+02  0.20932918021E+02  0.62499999791E+02  0.10000002000E+02 0.  0.
    3000022    2    3    3    0    0  0.80817231544E+01  0.55817314563E+01  0.33699420898E+01  0.10386962332E+02  0.25000318701E+00 0.  0.
    1000022    2    1    0    0    0 -0.32057789086E+02 -0.48377278095E+02 -0.20932918021E+02  0.62500000209E+02  0.10000004608E+02 0.  0.
    3000022    2    5    5    0    0 -0.11002733221E+02 -0.10848132617E+02 -0.87812595768E+01  0.17774001720E+02  0.24999556679E+00 0.  0.
        -13    1    4    4    0    0  0.20323363076E+01  0.13874469270E+01  0.86929590406E+00  0.26119150467E+01  0.10500000000E+00 0.  1.
         13    1    4    4    0    0  0.60493868468E+01  0.41942845293E+01  0.25006461857E+01  0.77750472848E+01  0.10500000000E+00 0. -1.
    3000001    1    5    5    0    0 -0.21055055865E+02 -0.37529145479E+02 -0.12151658445E+02  0.44725998489E+02  0.10000000000E+01 0.  1.
        -13    1    6    6    0    0 -0.60840783054E+01 -0.60885012837E+01 -0.49112543213E+01  0.99104642028E+01  0.10500000000E+00 0.  1.
         13    1    6    6    0    0 -0.49186549158E+01 -0.47596313331E+01 -0.38700052556E+01  0.78635375173E+01  0.10500000000E+00 0. -1.
</event>
<event>
11    0  0.3396091E-009  0.9118800E+02  0.7816531E-02  0.1126479E+00
         25   -1    0    0    0    0  0.00000000000E+00  0.00000000000E+00  0.99999998245E-14  0.12500000000E+03  0.12500000000E+03 0.  0.
    3000001    1    3    3    0    0 -0.29536866522E+02  0.22576139413E+00 -0.65819205567E+01  0.30278691028E+02  0.10000000000E+01 0. -1.
    1000022    2    1    0    0    0 -0.57794037819E+02 -0.61172641701E+01 -0.20704546924E+02  0.62500000403E+02  0.10000002932E+02 0.  0.
    3000022    2    3    3    0    0 -0.28257171297E+02 -0.63430255642E+01 -0.14122626367E+02  0.32221309375E+02  0.24999859087E+00 0.  0.
    1000022    2    1    0    0    0  0.57794037819E+02  0.61172641701E+01  0.20704546924E+02  0.62499999597E+02  0.99999978952E+01 0.  0.
    3000022    2    5    5    0    0  0.29628994063E+02  0.73171622619E+01  0.13585072246E+02  0.33407107597E+02  0.24999463272E+00 0.  0.
        -13    1    4    4    0    0 -0.11229095164E+02 -0.25846741064E+01 -0.56266351060E+01  0.12823539529E+02  0.10500000000E+00 0.  1.
         13    1    4    4    0    0 -0.17028076134E+02 -0.37583514579E+01 -0.84959912612E+01  0.19397769846E+02  0.10500000000E+00 0. -1.
    3000001    1    5    5    0    0  0.28165043757E+02 -0.11998980918E+01  0.71194746777E+01  0.29092892000E+02  0.10000000000E+01 0.  1.
        -13    1    6    6    0    0  0.19063193785E+02  0.47217141445E+01  0.88031861763E+01  0.21522245552E+02  0.10500000000E+00 0.  1.
         13    1    6    6    0    0  0.10565800278E+02  0.25954481174E+01  0.47818860699E+01  0.11884862045E+02  0.10500000000E+00 0. -1.
</event>
<event>
11    0  0.3396091E-009  0.9118800E+02  0.7816531E-02  0.1126479E+00
         25   -1    0    0    0    0  0.00000000000E+00  0.00000000000E+00  0.99999998245E-14  0.12500000000E+03  0.12500000000E+03 0.  0.
    3000001    1    3    3    0    0  0.17644501858E+02 -0.53449172810E+02  0.10503444525E+02  0.57266612147E+02  0.10000000000E+01 0.  1.
    1000022    2    1    0    0    0  0.21530414644E+02 -0.56924143402E+02  0.10115973070E+02  0.62500002162E+02  0.10000025112E+02 0.  0.
    3000022    2    3    3    0    0  0.38859127861E+01 -0.34749705916E+01 -0.38747145440E+00  0.52333900144E+01  0.24999624329E+00 0.  0.
    1000022    2    1    0    0    0 -0.21530414644E+02  0.56924143402E+02 -0.10115973070E+02  0.62499997838E+02  0.99999980922E+01 0.  0.
    3000022    2    5    5    0    0 -0.14475892247E+02  0.45418688284E+02 -0.46207751157E+01  0.47893869526E+02  0.24994737208E+00 0.  0.
        -13    1    4    4    0    0  0.18934212993E+01 -0.17114525361E+01 -0.25628177474E+00  0.25672591119E+01  0.10500000000E+00 0.  1.
         13    1    4    4    0    0  0.19924914868E+01 -0.17635180555E+01 -0.13118967966E+00  0.26661309025E+01  0.10500000000E+00 0. -1.
    3000001    1    5    5    0    0 -0.70545223976E+01  0.11505455118E+02 -0.54951979547E+01  0.14606128313E+02  0.10000000000E+01 0. -1.
        -13    1    6    6    0    0 -0.58595787536E+01  0.18561667163E+02 -0.19212644310E+01  0.19559458915E+02  0.10500000000E+00 0. -1.
         13    1    6    6    0    0 -0.86163134930E+01  0.26857021122E+02 -0.26995106848E+01  0.28334410611E+02  0.10500000000E+00 0.  1.
</event>
<event>
11    0  0.3396091E-009  0.9118800E+02  0.7816531E-02  0.1126479E+00
         25   -1    0    0    0    0  0.00000000000E+00  0.00000000000E+00  0.99999998245E-14  0.12500000000E+03  0.12500000000E+03 0.  0.
    3000001    1    3    3    0    0 -0.22082350239E+01 -0.51509065582E+01 -0.22731096780E+02  0.23433115480E+02  0.10000000000E+01 0. -1.
    1000022    2    1    0    0    0 -0.15435578621E+02 -0.20779755297E+02 -0.56001736992E+02  0.62500000832E+02  0.10000012012E+02 0.  0.
    3000022    2    3    3    0    0 -0.13227343597E+02 -0.15628848739E+02 -0.33270640212E+02  0.39066885351E+02  0.24999878615E+00 0.  0.
    1000022    2    1    0    0    0  0.15435578621E+02  0.20779755297E+02  0.56001736992E+02  0.62499999168E+02  0.10000001618E+02 0.  0.
    3000022    2    5    5    0    0  0.12087353536E+02  0.11988816607E+02  0.26319101175E+02  0.31346346360E+02  0.25000861308E+00 0.  0.
        -13    1    4    4    0    0 -0.44521030000E+01 -0.51776175696E+01 -0.11101412484E+02  0.13033853189E+02  0.10500000000E+00 0.  1.
         13    1    4    4    0    0 -0.87752405970E+01 -0.10451231169E+02 -0.22169227729E+02  0.26033032162E+02  0.10500000000E+00 0. -1.
    3000001    1    5    5    0    0  0.33482250844E+01  0.87909386903E+01  0.29682635817E+02  0.31153652809E+02  0.10000000000E+01 0.  1.
        -13    1    6    6    0    0  0.53553033845E+01  0.52225335536E+01  0.11528681167E+02  0.13743203612E+02  0.10500000000E+00 0.  1.
         13    1    6    6    0    0  0.67320501520E+01  0.67662830531E+01  0.14790420007E+02  0.17603142748E+02  0.10500000000E+00 0. -1.
</event>
<event>
11    0  0.3396091E-009  0.9118800E+02  0.7816531E-02  0.1126479E+00
         25   -1    0    0    0    0  0.00000000000E+00  0.00000000000E+00  0.99999998245E-14  0.12500000000E+03  0.12500000000E+03 0.  0.
    3000001    1    3    3    0    0  0.15567303723E+02  0.11122689004E+02 -0.82437514149E+01  0.20857003458E+02  0.10000000000E+01 0. -1.
    1000022    2    1    0    0    0  0.41802959686E+02  0.27282975442E+02 -0.36254680010E+02  0.62499999563E+02  0.99999967659E+01 0.  0.
    3000022    2    3    3    0    0  0.26235655963E+02  0.16160286439E+02 -0.28010928595E+02  0.41642996105E+02  0.25000452015E+00 0.  0.
    1000022    2    1    0    0    0 -0.41802959686E+02 -0.27282975442E+02  0.36254680010E+02  0.62500000437E+02  0.10000002223E+02 0.  0.
    3000022    2    5    5    0    0 -0.16643051347E+02 -0.83213830140E+01  0.18872354620E+02  0.26504053290E+02  0.24999693339E+00 0.  0.
        -13    1    4    4    0    0  0.11564417901E+02  0.71470212574E+01 -0.12273143252E+02  0.18315478277E+02  0.10500000000E+00 0.  1.
         13    1    4    4    0    0  0.14671238062E+02  0.90132651813E+01 -0.15737785343E+02  0.23327517828E+02  0.10500000000E+00 0. -1.
    3000001    1    5    5    0    0 -0.25159908339E+02 -0.18961592428E+02  0.17382325389E+02  0.35995947146E+02  0.10000000000E+01 0.  1.
        -13    1    6    6    0    0 -0.11831249951E+02 -0.58882364925E+01  0.13352729508E+02  0.18787128964E+02  0.10500000000E+00 0. -1.
         13    1    6    6    0    0 -0.48118013967E+01 -0.24331465215E+01  0.55196251120E+01  0.77169243260E+01  0.10500000000E+00 0.  1.
</event>
<event>
11    0  0.3396091E-009  0.9118800E+02  0.7816531E-02  0.1126479E+00
         25   -1    0    0    0    0  0.00000000000E+00  0.00000000000E+00  0.99999998245E-14  0.12500000000E+03  0.12500000000E+03 0.  0.
    3000001    1    3    3    0    0  0.38329577217E+02 -0.14805686156E+02  0.36414358298E+02  0.54912387695E+02  0.10000000000E+01 0. -1.
    1000022    2    1    0    0    0  0.40625809377E+02 -0.18723161194E+02  0.42488077156E+02  0.62499999838E+02  0.10000006335E+02 0.  0.
    3000022    2    3    3    0    0  0.22962321603E+01 -0.39174750385E+01  0.60737188581E+01  0.75876121427E+01  0.25000890133E+00 0.  0.
    1000022    2    1    0    0    0 -0.40625809377E+02  0.18723161194E+02 -0.42488077156E+02  0.62500000162E+02  0.10000008358E+02 0.  0.
    3000022    2    5    5    0    0 -0.35815032292E+02  0.13187904083E+02 -0.37923169306E+02  0.53803964793E+02  0.25001015233E+00 0.  0.
        -13    1    4    4    0    0  0.94055026389E+00 -0.17036807677E+01  0.26736998600E+01  0.33086037687E+01  0.10500000000E+00 0. -1.
         13    1    4    4    0    0  0.13556818964E+01 -0.22137942708E+01  0.34000189981E+01  0.42790083740E+01  0.10500000000E+00 0.  1.
    3000001    1    5    5    0    0 -0.48107770851E+01  0.55352571116E+01 -0.45649078497E+01  0.86960353685E+01  0.10000000000E+01 0.  1.
        -13    1    6    6    0    0 -0.20212027043E+02  0.73723901789E+01 -0.21383196240E+02  0.30333649312E+02  0.10500000000E+00 0.  1.
         13    1    6    6    0    0 -0.15603005249E+02  0.58155139037E+01 -0.16539973066E+02  0.23470315481E+02  0.10500000000E+00 0. -1.
</event>
<event>
11    0  0.3396091E-009  0.9118800E+02  0.7816531E-02  0.1126479E+00
         25   -1    0    0    0    0  0.00000000000E+00  0.00000000000E+00  0.99999998245E-14  0.12500000000E+03  0.12500000000E+03 0.  0.
    3000001    1    3    3    0    0 -0.22775518854E+02  0.41952751883E+02 -0.39157312509E+02  0.61749921235E+02  0.10000000000E+01 0. -1.
    1000022    2    1    0    0    0 -0.22487778869E+02  0.41557157030E+02 -0.39668016626E+02  0.62499992249E+02  0.99999994569E+01 0.  0.
    3000022    2    3    3    0    0  0.28773998520E+00 -0.39559485224E+00 -0.51070411674E+00  0.75007101351E+00  0.24999648848E+00 0.  0.
    1000022    2    1    0    0    0  0.22487778869E+02 -0.41557157030E+02  0.39668016626E+02  0.62500007751E+02  0.10000096346E+02 0.  0.
    3000022    2    5    5    0    0  0.18998000769E+02 -0.34613056641E+02  0.37292993440E+02  0.54312223158E+02  0.25000285843E+00 0.  0.
        -13    1    4    4    0    0  0.23540360813E+00 -0.22631431978E+00 -0.30554509511E+00  0.45936459942E+00  0.10500000000E+00 0. -1.
         13    1    4    4    0    0  0.52336377072E-01 -0.16928053247E+00 -0.20515902163E+00  0.29070641409E+00  0.10500000000E+00 0.  1.
    3000001    1    5    5    0    0  0.34897781002E+01 -0.69441003899E+01  0.23750231865E+01  0.81877845936E+01  0.10000000000E+01 0. -1.
        -13    1    6    6    0    0  0.72769345464E+01 -0.13206363991E+02  0.14165248735E+02  0.20688816374E+02  0.10500000000E+00 0.  1.
         13    1    6    6    0    0  0.11721066222E+02 -0.21406692650E+02  0.23127744704E+02  0.33623406783E+02  0.10500000000E+00 0. -1.
</event>
<event>
11    0  0.3396091E-009  0.9118800E+02  0.7816531E-02  0.1126479E+00
         25   -1    0    0    0    0  0.00000000000E+00  0.00000000000E+00  0.99999998245E-14  0.12500000000E+03  0.12500000000E+03 0.  0.
    3000001    1    3    3    0    0  0.15154149858E+02  0.12924315083E+02 -0.16246459162E+02  0.25722239669E+02  0.10000000000E+01 0.  1.
    1000022    2    1    0    0    0  0.37957900341E+02  0.20586436313E+02 -0.44064109048E+02  0.62499994863E+02  0.10000004670E+02 0.  0.
    3000022    2    3    3    0    0  0.22803750483E+02  0.76621212293E+01 -0.27817649886E+02  0.36777755194E+02  0.24998828261E+00 0.  0.
    1000022    2    1    0    0    0 -0.37957900341E+02 -0.20586436313E+02  0.44064109048E+02  0.62500005137E+02  0.10000068880E+02 0.  0.
    3000022    2    5    5    0    0 -0.22561688283E+02 -0.81032040251E+01  0.28737282917E+02  0.37424398797E+02  0.25000441541E+00 0.  0.
        -13    1    4    4    0    0  0.10836246110E+02  0.35882062244E+01 -0.13130198104E+02  0.17398637329E+02  0.10500000000E+00 0. -1.
         13    1    4    4    0    0  0.11967504373E+02  0.40739150048E+01 -0.14687451782E+02  0.19379117865E+02  0.10500000000E+00 0.  1.
    3000001    1    5    5    0    0 -0.15396212057E+02 -0.12483232288E+02  0.15326826131E+02  0.25075606340E+02  0.10000000000E+01 0. -1.
        -13    1    6    6    0    0 -0.73240117672E+01 -0.26382028153E+01  0.94124449258E+01  0.12215007447E+02  0.10500000000E+00 0.  1.
         13    1    6    6    0    0 -0.15237676516E+02 -0.54650012098E+01  0.19324837991E+02  0.25209391350E+02  0.10500000000E+00 0. -1.
</event>
<event>
11    0  0.3396091E-009  0.9118800E+02  0.7816531E-02  0.1126479E+00
         25   -1    0    0    0    0  0.00000000000E+00  0.00000000000E+00  0.99999998245E-14  0.12500000000E+03  0.12500000000E+03 0.  0.
    3000001    1    3    3    0    0 -0.42511146523E+01 -0.69972988806E+01  0.29897590798E+02  0.31014514391E+02  0.10000000000E+01 0.  1.
    1000022    2    1    0    0    0 -0.13548241145E+02 -0.21694950949E+02  0.56142890847E+02  0.62500000114E+02  0.10000004343E+02 0.  0.
    3000022    2    3    3    0    0 -0.92971264924E+01 -0.14697652068E+02  0.26245300049E+02  0.31485485723E+02  0.24999844312E+00 0.  0.
    1000022    2    1    0    0    0  0.13548241145E+02  0.21694950949E+02 -0.56142890847E+02  0.62499999886E+02  0.10000002914E+02 0.  0.
    3000022    2    5    5    0    0  0.11712154660E+02  0.19984935561E+02 -0.54775509830E+02  0.59472608757E+02  0.24999799298E+00 0.  0.
        -13    1    4    4    0    0 -0.36860909490E+01 -0.58961209900E+01  0.10401368742E+02  0.12512034444E+02  0.10500000000E+00 0.  1.
         13    1    4    4    0    0 -0.56110355434E+01 -0.88015310783E+01  0.15843931307E+02  0.18973451279E+02  0.10500000000E+00 0. -1.
    3000001    1    5    5    0    0  0.18360864842E+01  0.17100153876E+01 -0.13673810168E+01  0.30273911291E+01  0.10000000000E+01 0.  1.
        -13    1    6    6    0    0  0.32605167355E+01  0.55059108952E+01 -0.15196636922E+02  0.16489233545E+02  0.10500000000E+00 0. -1.
         13    1    6    6    0    0  0.84516379249E+01  0.14479024666E+02 -0.39578872908E+02  0.42983375212E+02  0.10500000000E+00 0.  1.
</event>
<event>
11    0  0.3396091E-009  0.9118800E+02  0.7816531E-02  0.1126479E+00
         25   -1    0    0    0    0  0.00000000000E+00  0.00000000000E+00  0.99999998245E-14  0.12500000000E+03  0.12500000000E+03 0.  0.
    3000001    1    3    3    0    0 -0.30217636090E+02 -0.14279710783E+02  0.82519966938E+01  0.34439964000E+02  0.10000000000E+01 0.  1.
    1000022    2    1    0    0    0 -0.51366906594E+02 -0.25114032193E+02  0.23172751151E+02  0.62499999618E+02  0.99999925114E+01 0.  0.
    3000022    2    3    3    0    0 -0.21149270504E+02 -0.10834321410E+02  0.14920754458E+02  0.28060035617E+02  0.25004395366E+00 0.  0.
    1000022    2    1    0    0    0  0.51366906594E+02  0.25114032193E+02 -0.23172751151E+02  0.62500000382E+02  0.99999972892E+01 0.  0.
    3000022    2    5    5    0    0  0.51924190854E+01  0.15556418508E+01 -0.54944880616E+01  0.77222490766E+01  0.24998842989E+00 0.  0.
        -13    1    4    4    0    0 -0.12975633697E+02 -0.66169464904E+01  0.92110362194E+01  0.17233840661E+02  0.10500000000E+00 0.  1.
         13    1    4    4    0    0 -0.81736368076E+01 -0.42173749200E+01  0.57097182383E+01  0.10826194957E+02  0.10500000000E+00 0. -1.
    3000001    1    5    5    0    0  0.46174487509E+02  0.23558390342E+02 -0.17678263090E+02  0.54777751306E+02  0.10000000000E+01 0.  1.
        -13    1    6    6    0    0  0.19047531089E+01  0.54950527103E+00 -0.20897397629E+01  0.28823736270E+01  0.10500000000E+00 0. -1.
         13    1    6    6    0    0  0.32876659765E+01  0.10061365798E+01 -0.34047482986E+01  0.48398754495E+01  0.10500000000E+00 0.  1.
</event>
<event>
11    0  0.3396091E-009  0.9118800E+02  0.7816531E-02  0.1126479E+00
         25   -1    0    0    0    0  0.00000000000E+00  0.00000000000E+00  0.99999998245E-14  0.12500000000E+03  0.12500000000E+03 0.  0.
    3000001    1    3    3    0    0  0.34648024719E+02 -0.28155155453E+02 -0.10210730504E+02  0.45808922853E+02  0.10000000000E+01 0. -1.
    1000022    2    1    0    0    0  0.46810489986E+02 -0.35374788654E+02 -0.19069673460E+02  0.62499999467E+02  0.99999921196E+01 0.  0.
    3000022    2    3    3    0    0  0.12162465267E+02 -0.72196332018E+01 -0.88589429553E+01  0.16691076614E+02  0.25000661262E+00 0.  0.
    1000022    2    1    0    0    0 -0.46810489986E+02  0.35374788654E+02  0.19069673460E+02  0.62500000533E+02  0.99999987868E+01 0.  0.
    3000022    2    5    5    0    0 -0.20752149427E+02  0.18363951631E+02  0.43158294832E+01  0.28045949959E+02  0.24999920564E+00 0.  0.
        -13    1    4    4    0    0  0.57917238904E+01 -0.34474565979E+01 -0.41425486603E+01  0.79120640177E+01  0.10500000000E+00 0. -1.
         13    1    4    4    0    0  0.63707413762E+01 -0.37721766038E+01 -0.47163942951E+01  0.87790125960E+01  0.10500000000E+00 0.  1.
    3000001    1    5    5    0    0 -0.26058340559E+02  0.17010837023E+02  0.14753843977E+02  0.34454050574E+02  0.10000000000E+01 0. -1.
        -13    1    6    6    0    0 -0.59046310818E+01  0.51880946841E+01  0.11937801983E+01  0.79509201244E+01  0.10500000000E+00 0. -1.
         13    1    6    6    0    0 -0.14847518345E+02  0.13175856947E+02  0.31220492849E+01  0.20095029834E+02  0.10500000000E+00 0.  1.
</event>
<event>
11    0  0.3396091E-009  0.9118800E+02  0.7816531E-02  0.1126479E+00
         25   -1    0    0    0    0  0.00000000000E+00  0.00000000000E+00  0.99999998245E-14  0.12500000000E+03  0.12500000000E+03 0.  0.
    3000001    1    3    3    0    0  0.25442234717E+02 -0.15933509710E+02  0.25544038249E+02  0.39429455096E+02  0.10000000000E+01 0. -1.
    1000022    2    1    0    0    0  0.41655743605E+02 -0.17913655388E+02  0.41834795017E+02  0.62500001666E+02  0.10000005474E+02 0.  0.
    3000022    2    3    3    0    0  0.16213508889E+02 -0.19801456778E+01  0.16290756768E+02  0.23070546571E+02  0.25003120808E+00 0.  0.
    1000022    2    1    0    0    0 -0.41655743605E+02  0.17913655388E+02 -0.41834795017E+02  0.62499998334E+02  0.99999846482E+01 0.  0.
    3000022    2    5    5    0    0 -0.12933010434E+01  0.28449513675E+01 -0.15065189447E+01  0.34782865545E+01  0.25000430427E+00 0.  0.
        -13    1    4    4    0    0  0.11202475664E+02 -0.13317878846E+01  0.11205423569E+02  0.15900995639E+02  0.10500000000E+00 0.  1.
         13    1    4    4    0    0  0.50110332249E+01 -0.64835779317E+00  0.50853331990E+01  0.71695509311E+01  0.10500000000E+00 0. -1.
    3000001    1    5    5    0    0 -0.40362442562E+02  0.15068704020E+02 -0.40328276072E+02  0.59021711779E+02  0.10000000000E+01 0. -1.
        -13    1    6    6    0    0 -0.98018120751E+00  0.20726110707E+01 -0.11074947248E+01  0.25483409143E+01  0.10500000000E+00 0. -1.
         13    1    6    6    0    0 -0.31311983591E+00  0.77234029679E+00 -0.39902421986E+00  0.92994564019E+00  0.10500000000E+00 0.  1.
</event>
<event>
11    0  0.3396091E-009  0.9118800E+02  0.7816531E-02  0.1126479E+00
         25   -1    0    0    0    0  0.00000000000E+00  0.00000000000E+00  0.99999998245E-14  0.12500000000E+03  0.12500000000E+03 0.  0.
    3000001    1    3    3    0    0  0.11480774647E+02 -0.47023271306E+02 -0.15545432131E+02  0.50849352906E+02  0.10000000000E+01 0. -1.
    1000022    2    1    0    0    0  0.18313175972E+02 -0.55610947794E+02 -0.19449935794E+02  0.62499998521E+02  0.99999941993E+01 0.  0.
    3000022    2    3    3    0    0  0.68324013248E+01 -0.85876764874E+01 -0.39045036634E+01  0.11650645614E+02  0.24999812048E+00 0.  0.
    1000022    2    1    0    0    0 -0.18313175972E+02  0.55610947794E+02  0.19449935794E+02  0.62500001479E+02  0.10000012693E+02 0.  0.
    3000022    2    5    5    0    0 -0.11202660380E+02  0.34232137138E+02  0.68451894532E+01  0.36664123183E+02  0.24999501177E+00 0.  0.
        -13    1    4    4    0    0  0.32580748147E+01 -0.40060555936E+01 -0.17964267947E+01  0.54682453443E+01  0.10500000000E+00 0. -1.
         13    1    4    4    0    0  0.35743265102E+01 -0.45816208938E+01 -0.21080768686E+01  0.61824002701E+01  0.10500000000E+00 0.  1.
    3000001    1    5    5    0    0 -0.71105155918E+01  0.21378810656E+02  0.12604746341E+02  0.25835878296E+02  0.10000000000E+01 0.  1.
        -13    1    6    6    0    0 -0.57823869589E+01  0.17884125827E+02  0.35615211182E+01  0.19130431600E+02  0.10500000000E+00 0.  1.
         13    1    6    6    0    0 -0.54202734212E+01  0.16348011311E+02  0.32836683351E+01  0.17533691583E+02  0.10500000000E+00 0. -1.
</event>
<event>
11    0  0.3396091E-009  0.9118800E+02  0.7816531E-02  0.1126479E+00
         25   -1    0    0    0    0  0.00000000000E+00  0.00000000000E+00  0.99999998245E-14  0.12500000000E+03  0.12500000000E+03 0.  0.
    3000001    1    3    3    0    0  0.47499529828E+01 -0.17400997552E+02 -0.44235758341E+01  0.18599053533E+02  0.10000000000E+01 0.  1.
    1000022    2    1    0    0    0  0.13296823282E+02 -0.60244767028E+02 -0.11161086227E+00  0.62500000243E+02  0.10000005483E+02 0.  0.
    3000022    2    3    3    0    0  0.85468702995E+01 -0.42843769476E+02  0.43119649719E+01  0.43900946710E+02  0.25001057735E+00 0.  0.
    1000022    2    1    0    0    0 -0.13296823282E+02  0.60244767028E+02  0.11161086227E+00  0.62499999757E+02  0.10000002448E+02 0.  0.
    3000022    2    5    5    0    0 -0.13423746140E+02  0.39410061638E+02 -0.35246963539E+00  0.41635761721E+02  0.25000105770E+00 0.  0.
        -13    1    4    4    0    0  0.31820644707E+01 -0.16191467891E+02  0.15903410998E+01  0.16577978664E+02  0.10500000000E+00 0. -1.
         13    1    4    4    0    0  0.53648058288E+01 -0.26652301585E+02  0.27216238721E+01  0.27322968046E+02  0.10500000000E+00 0.  1.
    3000001    1    5    5    0    0  0.12692285734E+00  0.20834705391E+02  0.46408049765E+00  0.20864238036E+02  0.10000000000E+01 0.  1.
        -13    1    6    6    0    0 -0.92323789350E+01  0.27230913627E+02 -0.21740745743E+00  0.28754439114E+02  0.10500000000E+00 0. -1.
         13    1    6    6    0    0 -0.41913672046E+01  0.12179148011E+02 -0.13506217796E+00  0.12881322607E+02  0.10500000000E+00 0.  1.
</event>
<event>
11    0  0.3396091E-009  0.9118800E+02  0.7816531E-02  0.1126479E+00
         25   -1    0    0    0    0  0.00000000000E+00  0.00000000000E+00  0.99999998245E-14  0.12500000000E+03  0.12500000000E+03 0.  0.
    3000001    1    3    3    0    0 -0.68230169620E+00 -0.31256575506E+01  0.27514935068E+01  0.43365870505E+01  0.10000000000E+01 0.  1.
    1000022    2    1    0    0    0  0.17596325087E+02 -0.29087640109E+02  0.51483284165E+02  0.62500000424E+02  0.10000002045E+02 0.  0.
    3000022    2    3    3    0    0  0.18278626784E+02 -0.25961982559E+02  0.48731790658E+02  0.58163413373E+02  0.24999811104E+00 0.  0.
    1000022    2    1    0    0    0 -0.17596325087E+02  0.29087640109E+02 -0.51483284165E+02  0.62499999576E+02  0.99999967473E+01 0.  0.
    3000022    2    5    5    0    0 -0.91507806238E+01  0.16294600980E+02 -0.36675648499E+02  0.41163290705E+02  0.25000345519E+00 0.  0.
        -13    1    4    4    0    0  0.11836514798E+02 -0.16757029285E+02  0.31574594126E+02  0.37654576512E+02  0.10500000000E+00 0. -1.
         13    1    4    4    0    0  0.64421119854E+01 -0.92049532736E+01  0.17157196531E+02  0.20508836862E+02  0.10500000000E+00 0.  1.
    3000001    1    5    5    0    0 -0.84455444636E+01  0.12793039129E+02 -0.14807635666E+02  0.21336708871E+02  0.10000000000E+01 0. -1.
        -13    1    6    6    0    0 -0.50003730222E+01  0.88537293882E+01 -0.20091755145E+02  0.22518479172E+02  0.10500000000E+00 0. -1.
         13    1    6    6    0    0 -0.41504076017E+01  0.74408715918E+01 -0.16583893354E+02  0.18644811533E+02  0.10500000000E+00 0.  1.
</event>
<event>
11    0  0.3396091E-009  0.9118800E+02  0.7816531E-02  0.1126479E+00
         25   -1    0    0    0    0  0.00000000000E+00  0.00000000000E+00  0.99999998245E-14  0.12500000000E+03  0.12500000000E+03 0.  0.
    3000001    1    3    3    0    0 -0.28095734345E+02  0.34009887263E+02 -0.11034279738E+02  0.45484041700E+02  0.10000000000E+01 0.  1.
    1000022    2    1    0    0    0 -0.39995405777E+02  0.42732750192E+02 -0.19507166643E+02  0.62499999796E+02  0.10000000091E+02 0.  0.
    3000022    2    3    3    0    0 -0.11899671432E+02  0.87228629298E+01 -0.84728869052E+01  0.17015958097E+02  0.24999911362E+00 0.  0.
    1000022    2    1    0    0    0  0.39995405777E+02 -0.42732750192E+02  0.19507166643E+02  0.62500000204E+02  0.10000002637E+02 0.  0.
    3000022    2    5    5    0    0  0.12015168068E+02 -0.72901591660E+01  0.27372386548E+01  0.14320113885E+02  0.25000372780E+00 0.  0.
        -13    1    4    4    0    0 -0.32982717842E+01  0.23887587068E+01 -0.23741113553E+01  0.47151028249E+01  0.10500000000E+00 0. -1.
         13    1    4    4    0    0 -0.86013996480E+01  0.63341042230E+01 -0.60987755499E+01  0.12300855272E+02  0.10500000000E+00 0.  1.
    3000001    1    5    5    0    0  0.27980237709E+02 -0.35442591026E+02  0.16769927988E+02  0.48179886318E+02  0.10000000000E+01 0. -1.
        -13    1    6    6    0    0  0.64957985643E+01 -0.38699766813E+01  0.14439347602E+01  0.76985772123E+01  0.10500000000E+00 0. -1.
         13    1    6    6    0    0  0.55193695037E+01 -0.34201824847E+01  0.12933038946E+01  0.66215366729E+01  0.10500000000E+00 0.  1.
</event>
<event>
11    0  0.3396091E-009  0.9118800E+02  0.7816531E-02  0.1126479E+00
         25   -1    0    0    0    0  0.00000000000E+00  0.00000000000E+00  0.99999998245E-14  0.12500000000E+03  0.12500000000E+03 0.  0.
    3000001    1    3    3    0    0 -0.89102555213E+01  0.16403478839E+02 -0.10731941160E+02  0.21555540646E+02  0.10000000000E+01 0. -1.
    1000022    2    1    0    0    0 -0.13409640937E+02  0.47840420630E+02 -0.36574935697E+02  0.62499998595E+02  0.99999793450E+01 0.  0.
    3000022    2    3    3    0    0 -0.44993854155E+01  0.31436941792E+02 -0.25842994537E+02  0.40944457949E+02  0.24998346948E+00 0.  0.
    1000022    2    1    0    0    0  0.13409640937E+02 -0.47840420630E+02  0.36574935697E+02  0.62500001405E+02  0.99999969138E+01 0.  0.
    3000022    2    5    5    0    0  0.13678821016E+02 -0.46981536502E+02  0.33970933598E+02  0.59568966299E+02  0.24999988149E+00 0.  0.
        -13    1    4    4    0    0 -0.15702944525E+01  0.11373781715E+02 -0.93275797068E+01  0.14793360110E+02  0.10500000000E+00 0.  1.
         13    1    4    4    0    0 -0.29290909630E+01  0.20063160077E+02 -0.16515414830E+02  0.26151097839E+02  0.10500000000E+00 0. -1.
    3000001    1    5    5    0    0 -0.26918007919E+00 -0.85888412813E+00  0.26040020994E+01  0.29310351063E+01  0.10000000000E+01 0. -1.
        -13    1    6    6    0    0  0.51156303324E+01 -0.17493837998E+02  0.12585617138E+02  0.22149781609E+02  0.10500000000E+00 0. -1.
         13    1    6    6    0    0  0.85631906836E+01 -0.29487698504E+02  0.21385316460E+02  0.37419184690E+02  0.10500000000E+00 0.  1.
</event>
<event>
11    0  0.3396091E-009  0.9118800E+02  0.7816531E-02  0.1126479E+00
         25   -1    0    0    0    0  0.00000000000E+00  0.00000000000E+00  0.99999998245E-14  0.12500000000E+03  0.12500000000E+03 0.  0.
    3000001    1    3    3    0    0 -0.14869267760E+02  0.10186629931E+02 -0.53848880484E+02  0.56794053231E+02  0.10000000000E+01 0.  1.
    1000022    2    1    0    0    0 -0.13899559969E+02  0.13068114007E+02 -0.58670917575E+02  0.62499999753E+02  0.10000001450E+02 0.  0.
    3000022    2    3    3    0    0  0.96970779089E+00  0.28814840765E+01 -0.48220370913E+01  0.57059465219E+01  0.25000063789E+00 0.  0.
    1000022    2    1    0    0    0  0.13899559969E+02 -0.13068114007E+02  0.58670917575E+02  0.62500000247E+02  0.10000004535E+02 0.  0.
    3000022    2    5    5    0    0  0.55011954414E+01 -0.60581302401E+01  0.40067612175E+02  0.40895478244E+02  0.25000424024E+00 0.  0.
        -13    1    4    4    0    0  0.30291577867E+00  0.10837145577E+01 -0.18066055005E+01  0.21309724648E+01  0.10500000000E+00 0. -1.
         13    1    4    4    0    0  0.66679201222E+00  0.17977695187E+01 -0.30154315908E+01  0.35749740571E+01  0.10500000000E+00 0.  1.
    3000001    1    5    5    0    0  0.83983645273E+01 -0.70099837669E+01  0.18603305400E+02  0.21604522002E+02  0.10000000000E+01 0. -1.
        -13    1    6    6    0    0  0.21346240465E+01 -0.23597301474E+01  0.15891789573E+02  0.16207558330E+02  0.10500000000E+00 0. -1.
         13    1    6    6    0    0  0.33665713949E+01 -0.36984000927E+01  0.24175822602E+02  0.24687919914E+02  0.10500000000E+00 0.  1.
</event>
<event>
11    0  0.3396091E-009  0.9118800E+02  0.7816531E-02  0.1126479E+00
         25   -1    0    0    0    0  0.00000000000E+00  0.00000000000E+00  0.99999998245E-14  0.12500000000E+03  0.12500000000E+03 0.  0.
    3000001    1    3    3    0    0  0.25487792504E+02 -0.99833075748E+01  0.27389680000E+02  0.38736140326E+02  0.10000000000E+01 0. -1.
    1000022    2    1    0    0    0  0.36712269141E+02 -0.22494827783E+02  0.44186446244E+02  0.62499995959E+02  0.99999740337E+01 0.  0.
    3000022    2    3    3    0    0  0.11224476636E+02 -0.12511520208E+02  0.16796766245E+02  0.23763855632E+02  0.24992911274E+00 0.  0.
    1000022    2    1    0    0    0 -0.36712269141E+02  0.22494827783E+02 -0.44186446244E+02  0.62500004041E+02  0.10000024551E+02 0.  0.
    3000022    2    5    5    0    0 -0.31222693427E+02  0.19906415696E+02 -0.32391399823E+02  0.49197431406E+02  0.25000744454E+00 0.  0.
        -13    1    4    4    0    0  0.28303595413E+01 -0.31931853816E+01  0.42473278288E+01  0.60214771194E+01  0.10500000000E+00 0. -1.
         13    1    4    4    0    0  0.83941170949E+01 -0.93183348268E+01  0.12549438416E+02  0.17742378513E+02  0.10500000000E+00 0.  1.
    3000001    1    5    5    0    0 -0.54895757133E+01  0.25884120874E+01 -0.11795046421E+02  0.13302572635E+02  0.10000000000E+01 0. -1.
        -13    1    6    6    0    0 -0.15046627275E+02  0.96649690739E+01 -0.15683866087E+02  0.23786704269E+02  0.10500000000E+00 0. -1.
         13    1    6    6    0    0 -0.16176066152E+02  0.10241446622E+02 -0.16707533736E+02  0.25410727137E+02  0.10500000000E+00 0.  1.
</event>
<event>
11    0  0.3396091E-009  0.9118800E+02  0.7816531E-02  0.1126479E+00
         25   -1    0    0    0    0  0.00000000000E+00  0.00000000000E+00  0.99999998245E-14  0.12500000000E+03  0.12500000000E+03 0.  0.
    3000001    1    3    3    0    0 -0.14287166883E+02 -0.35667660340E+01 -0.24137714385E+02  0.28292652990E+02  0.10000000000E+01 0.  1.
    1000022    2    1    0    0    0 -0.24222994816E+02 -0.62787136548E+00 -0.56737134628E+02  0.62499998643E+02  0.99999842152E+01 0.  0.
    3000022    2    3    3    0    0 -0.99358279328E+01  0.29388946685E+01 -0.32599420243E+02  0.34207345653E+02  0.25003573920E+00 0.  0.
    1000022    2    1    0    0    0  0.24222994816E+02  0.62787136548E+00  0.56737134628E+02  0.62500001357E+02  0.10000001180E+02 0.  0.
    3000022    2    5    5    0    0  0.14752456621E+02  0.42870013040E+01  0.27054156190E+02  0.31112750211E+02  0.25000398238E+00 0.  0.
        -13    1    4    4    0    0 -0.46141028070E+01  0.12950720349E+01 -0.15054865433E+02  0.15799593491E+02  0.10500000000E+00 0.  1.
         13    1    4    4    0    0 -0.53217251258E+01  0.16438226335E+01 -0.17544554810E+02  0.18407752162E+02  0.10500000000E+00 0. -1.
    3000001    1    5    5    0    0  0.94705381951E+01 -0.36591299385E+01  0.29682978438E+02  0.31387251147E+02  0.10000000000E+01 0.  1.
        -13    1    6    6    0    0  0.10751466987E+02  0.30871957744E+01  0.19714763158E+02  0.22667327401E+02  0.10500000000E+00 0. -1.
         13    1    6    6    0    0  0.40009896338E+01  0.11998055296E+01  0.73393930315E+01  0.84454228094E+01  0.10500000000E+00 0.  1.
</event>
<event>
11    0  0.3396091E-009  0.9118800E+02  0.7816531E-02  0.1126479E+00
         25   -1    0    0    0    0  0.00000000000E+00  0.00000000000E+00  0.99999998245E-14  0.12500000000E+03  0.12500000000E+03 0.  0.
    3000001    1    3    3    0    0  0.18172545598E+02 -0.11814442610E+02  0.44738776239E+01  0.22154865124E+02  0.10000000000E+01 0. -1.
    1000022    2    1    0    0    0  0.56247059937E+02 -0.21086351572E+02  0.14067127224E+02  0.62499999660E+02  0.99999957509E+01 0.  0.
    3000022    2    3    3    0    0  0.38074514339E+02 -0.92719089622E+01  0.95932496003E+01  0.40345134536E+02  0.25000972056E+00 0.  0.
    1000022    2    1    0    0    0 -0.56247059937E+02  0.21086351572E+02 -0.14067127224E+02  0.62500000340E+02  0.10000000002E+02 0.  0.
    3000022    2    5    5    0    0 -0.53238462958E+01  0.50117067148E+01 -0.19542331832E+00  0.73185536025E+01  0.24998596530E+00 0.  0.
        -13    1    4    4    0    0  0.94950940341E+01 -0.23353461181E+01  0.24074809384E+01  0.10070632635E+02  0.10500000000E+00 0. -1.
         13    1    4    4    0    0  0.28579420305E+02 -0.69365628441E+01  0.71857686619E+01  0.30274501900E+02  0.10500000000E+00 0.  1.
    3000001    1    5    5    0    0 -0.50923213641E+02  0.16074644857E+02 -0.13871703906E+02  0.55181446738E+02  0.10000000000E+01 0. -1.
        -13    1    6    6    0    0 -0.24793183335E+01  0.22595518861E+01 -0.50182388209E-01  0.33565067253E+01  0.10500000000E+00 0. -1.
         13    1    6    6    0    0 -0.28445279623E+01  0.27521548288E+01 -0.14524093011E+00  0.39620468772E+01  0.10500000000E+00 0.  1.
</event>
<event>
11    0  0.3396091E-009  0.9118800E+02  0.7816531E-02  0.1126479E+00
         25   -1    0    0    0    0  0.00000000000E+00  0.00000000000E+00  0.99999998245E-14  0.12500000000E+03  0.12500000000E+03 0.  0.
    3000001    1    3    3    0    0  0.27769105726E+02 -0.28336820195E+02  0.36424398657E+01  0.39854309425E+02  0.10000000000E+01 0.  1.
    1000022    2    1    0    0    0  0.38478466763E+02 -0.48194765776E+02  0.17094603647E+01  0.62500000406E+02  0.99999971698E+01 0.  0.
    3000022    2    3    3    0    0  0.10709361036E+02 -0.19857945581E+02 -0.19329795010E+01  0.22645690980E+02  0.24998745733E+00 0.  0.
    1000022    2    1    0    0    0 -0.38478466763E+02  0.48194765776E+02 -0.17094603647E+01  0.62499999594E+02  0.99999920981E+01 0.  0.
    3000022    2    5    5    0    0 -0.35912907021E+02  0.41549644846E+02 -0.36772445061E+01  0.55042660700E+02  0.24998444778E+00 0.  0.
        -13    1    4    4    0    0  0.48742518056E+01 -0.91524160911E+01 -0.92796397857E+00  0.10411397270E+02  0.10500000000E+00 0. -1.
         13    1    4    4    0    0  0.58351092306E+01 -0.10705529490E+02 -0.10050155224E+01  0.12234293710E+02  0.10500000000E+00 0.  1.
    3000001    1    5    5    0    0 -0.25655597415E+01  0.66451209302E+01  0.19677841414E+01  0.74573388947E+01  0.10000000000E+01 0.  1.
        -13    1    6    6    0    0 -0.18703925624E+02  0.21548775136E+02 -0.19429624531E+01  0.28600221532E+02  0.10500000000E+00 0. -1.
         13    1    6    6    0    0 -0.17208981397E+02  0.20000869710E+02 -0.17342820530E+01  0.26442439167E+02  0.10500000000E+00 0.  1.
</event>
<event>
11    0  0.3396091E-009  0.9118800E+02  0.7816531E-02  0.1126479E+00
         25   -1    0    0    0    0  0.00000000000E+00  0.00000000000E+00  0.99999998245E-14  0.12500000000E+03  0.12500000000E+03 0.  0.
    3000001    1    3    3    0    0  0.15498331472E+02  0.26365060518E+02  0.33227036347E+02  0.45170240634E+02  0.10000000000E+01 0.  1.
    1000022    2    1    0    0    0  0.15452647686E+02  0.36428599037E+02  0.47333104942E+02  0.62500000180E+02  0.10000002537E+02 0.  0.
    3000022    2    3    3    0    0 -0.45683786637E-01  0.10063538519E+02  0.14106068595E+02  0.17329759546E+02  0.25000034223E+00 0.  0.
    1000022    2    1    0    0    0 -0.15452647686E+02 -0.36428599037E+02 -0.47333104942E+02  0.62499999820E+02  0.10000000291E+02 0.  0.
    3000022    2    5    5    0    0 -0.15096588702E+02 -0.31235485576E+02 -0.44693665212E+02  0.56578695276E+02  0.24999889608E+00 0.  0.
        -13    1    4    4    0    0  0.43758156539E-01  0.42513239106E+01  0.59864660271E+01  0.73433282824E+01  0.10500000000E+00 0.  1.
         13    1    4    4    0    0 -0.89441943176E-01  0.58122146080E+01  0.81196025682E+01  0.99864312633E+01  0.10500000000E+00 0. -1.
    3000001    1    5    5    0    0 -0.35605898338E+00 -0.51931134611E+01 -0.26394397299E+01  0.59213045443E+01  0.10000000000E+01 0. -1.
        -13    1    6    6    0    0 -0.10770792411E+02 -0.22360394139E+02 -0.32014706185E+02  0.40508636515E+02  0.10500000000E+00 0. -1.
         13    1    6    6    0    0 -0.43257962910E+01 -0.88750914372E+01 -0.12678959028E+02  0.16070058761E+02  0.10500000000E+00 0.  1.
</event>
<event>
11    0  0.3396091E-009  0.9118800E+02  0.7816531E-02  0.1126479E+00
         25   -1    0    0    0    0  0.00000000000E+00  0.00000000000E+00  0.99999998245E-14  0.12500000000E+03  0.12500000000E+03 0.  0.
    3000001    1    3    3    0    0  0.16708922809E+02 -0.45733045742E-01 -0.15370618833E+02  0.22725450849E+02  0.10000000000E+01 0. -1.
    1000022    2    1    0    0    0  0.36986518808E+02 -0.68913999533E+01 -0.48895358003E+02  0.62499999295E+02  0.99999955376E+01 0.  0.
    3000022    2    3    3    0    0  0.20277595998E+02 -0.68456669076E+01 -0.33524739170E+02  0.39774548446E+02  0.25002557809E+00 0.  0.
    1000022    2    1    0    0    0 -0.36986518808E+02  0.68913999533E+01  0.48895358003E+02  0.62500000705E+02  0.10000004352E+02 0.  0.
    3000022    2    5    5    0    0 -0.30178827753E+01 -0.21759160690E+01  0.54171229260E+01  0.65764691715E+01  0.24999756761E+00 0.  0.
        -13    1    4    4    0    0  0.12739138331E+02 -0.42920389400E+01 -0.20946461116E+02  0.24889204527E+02  0.10500000000E+00 0. -1.
         13    1    4    4    0    0  0.75384576670E+01 -0.25536279676E+01 -0.12578278054E+02  0.14885343919E+02  0.10500000000E+00 0.  1.
    3000001    1    5    5    0    0 -0.33968636032E+02  0.90673160223E+01  0.43478235077E+02  0.55923531534E+02  0.10000000000E+01 0. -1.
        -13    1    6    6    0    0 -0.10769861581E+01 -0.71884693415E+00  0.19427364809E+01  0.23370687054E+01  0.10500000000E+00 0.  1.
         13    1    6    6    0    0 -0.19408966172E+01 -0.14570691348E+01  0.34743864451E+01  0.42394004662E+01  0.10500000000E+00 0. -1.
</event>
<event>
11    0  0.3396091E-009  0.9118800E+02  0.7816531E-02  0.1126479E+00
         25   -1    0    0    0    0  0.00000000000E+00  0.00000000000E+00  0.99999998245E-14  0.12500000000E+03  0.12500000000E+03 0.  0.
    3000001    1    3    3    0    0  0.14139226465E+02 -0.24659463883E+01 -0.21843141911E+02  0.26155715726E+02  0.10000000000E+01 0. -1.
    1000022    2    1    0    0    0  0.38413718366E+02 -0.14603270614E+02 -0.46015005048E+02  0.62500000792E+02  0.10000006907E+02 0.  0.
    3000022    2    3    3    0    0  0.24274491901E+02 -0.12137324226E+02 -0.24171863137E+02  0.36344285066E+02  0.24998601969E+00 0.  0.
    1000022    2    1    0    0    0 -0.38413718366E+02  0.14603270614E+02  0.46015005048E+02  0.62499999208E+02  0.99999970036E+01 0.  0.
    3000022    2    5    5    0    0 -0.19831230355E+02  0.65769547016E+01  0.30526071948E+02  0.36992399235E+02  0.25000402559E+00 0.  0.
        -13    1    4    4    0    0  0.64824441494E+01 -0.32190086495E+01 -0.64845605251E+01  0.97182636844E+01  0.10500000000E+00 0.  1.
         13    1    4    4    0    0  0.17792047752E+02 -0.89183155767E+01 -0.17687302611E+02  0.26626021381E+02  0.10500000000E+00 0. -1.
    3000001    1    5    5    0    0 -0.18582488012E+02  0.80263159129E+01  0.15488933099E+02  0.25507599973E+02  0.10000000000E+01 0. -1.
        -13    1    6    6    0    0 -0.73185118699E+01  0.24727058825E+01  0.11359217900E+02  0.13737457795E+02  0.10500000000E+00 0. -1.
         13    1    6    6    0    0 -0.12512718485E+02  0.41042488191E+01  0.19166854049E+02  0.23254941440E+02  0.10500000000E+00 0.  1.
</event>
<event>
11    0  0.3396091E-009  0.9118800E+02  0.7816531E-02  0.1126479E+00
         25   -1    0    0    0    0  0.00000000000E+00  0.00000000000E+00  0.99999998245E-14  0.12500000000E+03  0.12500000000E+03 0.  0.
    3000001    1    3    3    0    0  0.13762809643E+02  0.12287630064E+02  0.19363590937E+02  0.26764705039E+02  0.10000000000E+01 0. -1.
    1000022    2    1    0    0    0  0.31219283814E+02  0.18348828302E+02  0.49949243099E+02  0.62499998963E+02  0.99999901146E+01 0.  0.
    3000022    2    3    3    0    0  0.17456474171E+02  0.60611982379E+01  0.30585652162E+02  0.35735293924E+02  0.24999815607E+00 0.  0.
    1000022    2    1    0    0    0 -0.31219283814E+02 -0.18348828302E+02 -0.49949243099E+02  0.62500001037E+02  0.10000003079E+02 0.  0.
    3000022    2    5    5    0    0 -0.48387334159E+01 -0.59252835277E+00 -0.12147723736E+02  0.13091757865E+02  0.25000223146E+00 0.  0.
        -13    1    4    4    0    0  0.12220955057E+02  0.41999309999E+01  0.21428165755E+02  0.25023358598E+02  0.10500000000E+00 0.  1.
         13    1    4    4    0    0  0.52355191146E+01  0.18612672380E+01  0.91574864075E+01  0.10711935326E+02  0.10500000000E+00 0. -1.
    3000001    1    5    5    0    0 -0.26380550398E+02 -0.17756299949E+02 -0.37801519363E+02  0.49408243172E+02  0.10000000000E+01 0.  1.
        -13    1    6    6    0    0 -0.21187215893E+01 -0.22798751980E+00 -0.54674518159E+01  0.58689874630E+01  0.10500000000E+00 0. -1.
         13    1    6    6    0    0 -0.27200118266E+01 -0.36454083297E+00 -0.66802719201E+01  0.72227704021E+01  0.10500000000E+00 0.  1.
</event>
<event>
11    0  0.3396091E-009  0.9118800E+02  0.7816531E-02  0.1126479E+00
         25   -1    0    0    0    0  0.00000000000E+00  0.00000000000E+00  0.99999998245E-14  0.12500000000E+03  0.12500000000E+03 0.  0.
    3000001    1    3    3    0    0  0.88438566909E+01  0.49299048246E+00  0.65143200689E+01  0.11040525655E+02  0.10000000000E+01 0.  1.
    1000022    2    1    0    0    0  0.38089866226E+02  0.17894784276E+02  0.45113070983E+02  0.62500000717E+02  0.99999851296E+01 0.  0.
    3000022    2    3    3    0    0  0.29246009535E+02  0.17401793794E+02  0.38598750914E+02  0.51459475061E+02  0.25000088761E+00 0.  0.
    1000022    2    1    0    0    0 -0.38089866226E+02 -0.17894784276E+02 -0.45113070983E+02  0.62499999283E+02  0.99999761730E+01 0.  0.
    3000022    2    5    5    0    0 -0.36654644133E+01  0.70157731201E+00 -0.18938511256E+01  0.41924948813E+01  0.25000230789E+00 0.  0.
        -13    1    4    4    0    0  0.21690686473E+02  0.12941342746E+02  0.28639435518E+02  0.38186287114E+02  0.10500000000E+00 0. -1.
         13    1    4    4    0    0  0.75553230620E+01  0.44604510476E+01  0.99593153968E+01  0.13273187948E+02  0.10500000000E+00 0.  1.
    3000001    1    5    5    0    0 -0.34424401813E+02 -0.18596361588E+02 -0.43219219858E+02  0.58307504402E+02  0.10000000000E+01 0. -1.
        -13    1    6    6    0    0 -0.15390251621E+01  0.27200422345E+00 -0.86187163262E+00  0.17878569457E+01  0.10500000000E+00 0. -1.
         13    1    6    6    0    0 -0.21264392512E+01  0.42957308856E+00 -0.10319794930E+01  0.24046379356E+01  0.10500000000E+00 0.  1.
</event>
<event>
11    0  0.3396091E-009  0.9118800E+02  0.7816531E-02  0.1126479E+00
         25   -1    0    0    0    0  0.00000000000E+00  0.00000000000E+00  0.99999998245E-14  0.12500000000E+03  0.12500000000E+03 0.  0.
    3000001    1    3    3    0    0 -0.52818082878E+01 -0.28988014590E+02  0.25939955192E+02  0.39269374378E+02  0.10000000000E+01 0.  1.
    1000022    2    1    0    0    0 -0.27599012070E+01 -0.49171298803E+02  0.37159335921E+02  0.62500000191E+02  0.10000004852E+02 0.  0.
    3000022    2    3    3    0    0  0.25219070808E+01 -0.20183284214E+02  0.11219380729E+02  0.23230625813E+02  0.24998948198E+00 0.  0.
    1000022    2    1    0    0    0  0.27599012070E+01  0.49171298803E+02 -0.37159335921E+02  0.62499999809E+02  0.10000002470E+02 0.  0.
    3000022    2    5    5    0    0  0.30079373015E+01  0.47234396525E+02 -0.37357145035E+02  0.60297219569E+02  0.25000142766E+00 0.  0.
        -13    1    4    4    0    0  0.82031341368E+00 -0.70134310089E+01  0.39030211480E+01  0.80688120374E+01  0.10500000000E+00 0.  1.
         13    1    4    4    0    0  0.17015936671E+01 -0.13169853205E+02  0.73163595807E+01  0.15161813775E+02  0.10500000000E+00 0. -1.
    3000001    1    5    5    0    0 -0.24803609452E+00  0.19369022787E+01  0.19780911431E+00  0.22027802403E+01  0.10000000000E+01 0.  1.
        -13    1    6    6    0    0  0.20409686246E+01  0.32791932357E+02 -0.25937820614E+02  0.41859980218E+02  0.10500000000E+00 0. -1.
         13    1    6    6    0    0  0.96696867697E+00  0.14442464168E+02 -0.11419324421E+02  0.18437239351E+02  0.10500000000E+00 0.  1.
</event>
<event>
11    0  0.3396091E-009  0.9118800E+02  0.7816531E-02  0.1126479E+00
         25   -1    0    0    0    0  0.00000000000E+00  0.00000000000E+00  0.99999998245E-14  0.12500000000E+03  0.12500000000E+03 0.  0.
    3000001    1    3    3    0    0  0.25045934963E+02  0.74267213745E+01  0.46977744509E+01  0.26561704263E+02  0.10000000000E+01 0. -1.
    1000022    2    1    0    0    0  0.54741685555E+02  0.18391797826E+02  0.21710358619E+02  0.62499998953E+02  0.99999916573E+01 0.  0.
    3000022    2    3    3    0    0  0.29695750592E+02  0.10965076452E+02  0.17012584168E+02  0.35938294691E+02  0.25000079964E+00 0.  0.
    1000022    2    1    0    0    0 -0.54741685555E+02 -0.18391797826E+02 -0.21710358619E+02  0.62500001047E+02  0.10000004741E+02 0.  0.
    3000022    2    5    5    0    0 -0.51118692374E+02 -0.14432053389E+02 -0.19084436302E+02  0.56441855818E+02  0.25000836380E+00 0.  0.
        -13    1    4    4    0    0  0.12730111341E+02  0.46722440607E+01  0.72199695884E+01  0.15363091655E+02  0.10500000000E+00 0.  1.
         13    1    4    4    0    0  0.16965639250E+02  0.62928323911E+01  0.97926145794E+01  0.20575203036E+02  0.10500000000E+00 0. -1.
    3000001    1    5    5    0    0 -0.36229931805E+01 -0.39597444371E+01 -0.26259223171E+01  0.60581452285E+01  0.10000000000E+01 0. -1.
        -13    1    6    6    0    0 -0.25735772992E+02 -0.72184473598E+01 -0.95501106922E+01  0.28384003118E+02  0.10500000000E+00 0. -1.
         13    1    6    6    0    0 -0.25382919382E+02 -0.72136060294E+01 -0.95343256093E+01  0.28057852700E+02  0.10500000000E+00 0.  1.
</event>
<event>
11    0  0.3396091E-009  0.9118800E+02  0.7816531E-02  0.1126479E+00
         25   -1    0    0    0    0  0.00000000000E+00  0.00000000000E+00  0.99999998245E-14  0.12500000000E+03  0.12500000000E+03 0.  0.
    3000001    1    3    3    0    0  0.62131258285E+01  0.19892628181E+02  0.53510774709E+00  0.20871174591E+02  0.10000000000E+01 0. -1.
    1000022    2    1    0    0    0  0.48362237301E+01  0.61487766567E+02  0.14544439275E+01  0.62499999653E+02  0.10000002608E+02 0.  0.
    3000022    2    3    3    0    0 -0.13769020984E+01  0.41595138386E+02  0.91933618038E+00  0.41628825062E+02  0.25000063154E+00 0.  0.
    1000022    2    1    0    0    0 -0.48362237301E+01 -0.61487766567E+02 -0.14544439275E+01  0.62500000347E+02  0.10000006948E+02 0.  0.
    3000022    2    5    5    0    0  0.20337012733E+01 -0.36219218273E+02 -0.66391836642E+00  0.36283205481E+02  0.24999834636E+00 0.  0.
        -13    1    4    4    0    0 -0.54132287731E+00  0.17699827522E+02  0.34354233926E+00  0.17711746698E+02  0.10500000000E+00 0.  1.
         13    1    4    4    0    0 -0.83557922107E+00  0.23895310864E+02  0.57579384112E+00  0.23917078364E+02  0.10500000000E+00 0.  1.
    3000001    1    5    5    0    0 -0.68699250034E+01 -0.25268548293E+02 -0.79052556105E+00  0.26216794866E+02  0.10000000000E+01 0.  1.
        -13    1    6    6    0    0  0.11361528237E+01 -0.19041107810E+02 -0.35823587174E+00  0.19078626466E+02  0.10500000000E+00 0. -1.
         13    1    6    6    0    0  0.89754844964E+00 -0.17178110463E+02 -0.30568249468E+00  0.17204579015E+02  0.10500000000E+00 0.  1.
</event>
<event>
11    0  0.3396091E-009  0.9118800E+02  0.7816531E-02  0.1126479E+00
         25   -1    0    0    0    0  0.00000000000E+00  0.00000000000E+00  0.99999998245E-14  0.12500000000E+03  0.12500000000E+03 0.  0.
    3000001    1    3    3    0    0  0.95590492110E+01  0.21270378483E+02 -0.33864013807E+02  0.41128771605E+02  0.10000000000E+01 0.  1.
    1000022    2    1    0    0    0  0.18829428405E+02  0.26685235241E+02 -0.52341195910E+02  0.62499998831E+02  0.99999955334E+01 0.  0.
    3000022    2    3    3    0    0  0.92703791944E+01  0.54148567581E+01 -0.18477182103E+02  0.21371227226E+02  0.24998112800E+00 0.  0.
    1000022    2    1    0    0    0 -0.18829428405E+02 -0.26685235241E+02  0.52341195910E+02  0.62500001169E+02  0.10000010149E+02 0.  0.
    3000022    2    5    5    0    0 -0.48896092224E+01 -0.15200817290E+02  0.22197118026E+02  0.27344975270E+02  0.24999844825E+00 0.  0.
        -13    1    4    4    0    0  0.71153261376E+01  0.41461467419E+01 -0.14187124706E+02  0.16404387562E+02  0.10500000000E+00 0.  1.
         13    1    4    4    0    0  0.21550530568E+01  0.12687100162E+01 -0.42900573964E+01  0.49668396639E+01  0.10500000000E+00 0. -1.
    3000001    1    5    5    0    0 -0.13939819183E+02 -0.11484417950E+02  0.30144077883E+02  0.35155025899E+02  0.10000000000E+01 0.  1.
        -13    1    6    6    0    0 -0.33116395933E+01 -0.10439817524E+02  0.15186504728E+02  0.18724254260E+02  0.10500000000E+00 0. -1.
         13    1    6    6    0    0 -0.15779696290E+01 -0.47609997668E+01  0.70106132978E+01  0.86207210105E+01  0.10500000000E+00 0.  1.
</event>
<event>
11    0  0.3396091E-009  0.9118800E+02  0.7816531E-02  0.1126479E+00
         25   -1    0    0    0    0  0.00000000000E+00  0.00000000000E+00  0.99999998245E-14  0.12500000000E+03  0.12500000000E+03 0.  0.
    3000001    1    3    3    0    0 -0.13372711850E+02 -0.64515212816E+01  0.21383940359E+02  0.26052340669E+02  0.10000000000E+01 0. -1.
    1000022    2    1    0    0    0 -0.40707225218E+02 -0.10579601685E+02  0.45135840362E+02  0.62500000691E+02  0.99999922231E+01 0.  0.
    3000022    2    3    3    0    0 -0.27334513367E+02 -0.41280804030E+01  0.23751900003E+02  0.36447660022E+02  0.24999690179E+00 0.  0.
    1000022    2    1    0    0    0  0.40707225218E+02  0.10579601685E+02 -0.45135840362E+02  0.62499999309E+02  0.99999835867E+01 0.  0.
    3000022    2    5    5    0    0  0.17477545391E+02 -0.46921694024E+00 -0.18649155510E+02  0.25564394640E+02  0.25002924638E+00 0.  0.
        -13    1    4    4    0    0 -0.16855656542E+02 -0.25916827274E+01  0.14598349401E+02  0.22448893226E+02  0.10500000000E+00 0. -1.
         13    1    4    4    0    0 -0.10478856825E+02 -0.15363976755E+01  0.91535506017E+01  0.13998766796E+02  0.10500000000E+00 0.  1.
    3000001    1    5    5    0    0  0.23229679827E+02  0.11048818625E+02 -0.26486684852E+02  0.36935604669E+02  0.10000000000E+01 0.  1.
        -13    1    6    6    0    0  0.11600146068E+02 -0.33980762121E+00 -0.12445310351E+02  0.17016921953E+02  0.10500000000E+00 0.  1.
         13    1    6    6    0    0  0.58773993233E+01 -0.12940931903E+00 -0.62038451592E+01  0.85474726871E+01  0.10500000000E+00 0. -1.
</event>
<event>
11    0  0.3396091E-009  0.9118800E+02  0.7816531E-02  0.1126479E+00
         25   -1    0    0    0    0  0.00000000000E+00  0.00000000000E+00  0.99999998245E-14  0.12500000000E+03  0.12500000000E+03 0.  0.
    3000001    1    3    3    0    0 -0.10014473120E+02  0.77774520636E+01  0.24550468247E+02  0.27649664078E+02  0.10000000000E+01 0. -1.
    1000022    2    1    0    0    0 -0.25314277290E+02  0.26580009966E+02  0.49587704369E+02  0.62499999586E+02  0.99999979548E+01 0.  0.
    3000022    2    3    3    0    0 -0.15299804171E+02  0.18802557903E+02  0.25037236121E+02  0.34850335508E+02  0.25000208256E+00 0.  0.
    1000022    2    1    0    0    0  0.25314277290E+02 -0.26580009966E+02 -0.49587704369E+02  0.62500000414E+02  0.10000003135E+02 0.  0.
    3000022    2    5    5    0    0  0.39761383627E+00 -0.80121198422E+00 -0.59139619986E+01  0.59864417254E+01  0.25000120822E+00 0.  0.
        -13    1    4    4    0    0 -0.10681772900E+02  0.13194757710E+02  0.17557601013E+02  0.24422986747E+02  0.10500000000E+00 0.  1.
         13    1    4    4    0    0 -0.46180312706E+01  0.56078001930E+01  0.74796351079E+01  0.10427348760E+02  0.10500000000E+00 0. -1.
    3000001    1    5    5    0    0  0.24916663454E+02 -0.25778797982E+02 -0.43673742370E+02  0.56513558689E+02  0.10000000000E+01 0. -1.
        -13    1    6    6    0    0  0.20612835377E+00 -0.54506787410E+00 -0.37739070463E+01  0.38200768683E+01  0.10500000000E+00 0.  1.
         13    1    6    6    0    0  0.19148548250E+00 -0.25614411012E+00 -0.21400549523E+01  0.21663648571E+01  0.10500000000E+00 0. -1.
</event>
<event>
11    0  0.3396091E-009  0.9118800E+02  0.7816531E-02  0.1126479E+00
         25   -1    0    0    0    0  0.00000000000E+00  0.00000000000E+00  0.99999998245E-14  0.12500000000E+03  0.12500000000E+03 0.  0.
    3000001    1    3    3    0    0 -0.21975913456E+02 -0.54489575929E+01 -0.13865654491E+02  0.26568558213E+02  0.10000000000E+01 0. -1.
    1000022    2    1    0    0    0 -0.52586912969E+02 -0.20938755675E+02 -0.24544553416E+02  0.62500000046E+02  0.99999999277E+01 0.  0.
    3000022    2    3    3    0    0 -0.30610999513E+02 -0.15489798082E+02 -0.10678898925E+02  0.35931441833E+02  0.24998825048E+00 0.  0.
    1000022    2    1    0    0    0  0.52586912969E+02  0.20938755675E+02  0.24544553416E+02  0.62499999954E+02  0.99999993511E+01 0.  0.
    3000022    2    5    5    0    0  0.47299190077E+02  0.15371078463E+02  0.21346230616E+02  0.54122153474E+02  0.25000005460E+00 0.  0.
        -13    1    4    4    0    0 -0.20992065883E+02 -0.10594249152E+02 -0.72745249934E+01  0.24613709269E+02  0.10500000000E+00 0.  1.
         13    1    4    4    0    0 -0.96189336306E+01 -0.48955489301E+01 -0.34043739315E+01  0.11317732564E+02  0.10500000000E+00 0. -1.
    3000001    1    5    5    0    0  0.52877228918E+01  0.55676772117E+01  0.31983227998E+01  0.83778464802E+01  0.10000000000E+01 0.  1.
        -13    1    6    6    0    0  0.32084830768E+02  0.10461926978E+02  0.14526532515E+02  0.36741250025E+02  0.10500000000E+00 0. -1.
         13    1    6    6    0    0  0.15214359309E+02  0.49091514851E+01  0.68196981010E+01  0.17380903448E+02  0.10500000000E+00 0.  1.
</event>
<event>
11    0  0.3396091E-009  0.9118800E+02  0.7816531E-02  0.1126479E+00
         25   -1    0    0    0    0  0.00000000000E+00  0.00000000000E+00  0.99999998245E-14  0.12500000000E+03  0.12500000000E+03 0.  0.
    3000001    1    3    3    0    0 -0.33212247495E+02  0.23871245515E+02 -0.41918908211E+02  0.58575460832E+02  0.10000000000E+01 0.  1.
    1000022    2    1    0    0    0 -0.36373527263E+02  0.26125092751E+02 -0.42434615849E+02  0.62499995717E+02  0.99999442764E+01 0.  0.
    3000022    2    3    3    0    0 -0.31612797688E+01  0.22538472364E+01 -0.51570763828E+00  0.39245348852E+01  0.25000511169E+00 0.  0.
    1000022    2    1    0    0    0  0.36373527263E+02 -0.26125092751E+02  0.42434615849E+02  0.62500004283E+02  0.99999978137E+01 0.  0.
    3000022    2    5    5    0    0 -0.57111866127E+00 -0.72612335126E+00  0.15167239374E+01  0.17934281353E+01  0.25000265543E+00 0.  0.
        -13    1    4    4    0    0 -0.23589184906E+01  0.16776969147E+01 -0.41313692921E+00  0.29258965301E+01  0.10500000000E+00 0. -1.
         13    1    4    4    0    0 -0.80236127817E+00  0.57615032171E+00 -0.10257070906E+00  0.99863835510E+00  0.10500000000E+00 0.  1.
    3000001    1    5    5    0    0  0.36944645925E+02 -0.25398969400E+02  0.40917891912E+02  0.60706576148E+02  0.10000000000E+01 0.  1.
        -13    1    6    6    0    0 -0.35875394500E+00 -0.50791101549E+00  0.10823076430E+01  0.12526343548E+01  0.10500000000E+00 0. -1.
         13    1    6    6    0    0 -0.21236471627E+00 -0.21821233577E+00  0.43441629437E+00  0.54079378049E+00  0.10500000000E+00 0.  1.
</event>
<event>
11    0  0.3396091E-009  0.9118800E+02  0.7816531E-02  0.1126479E+00
         25   -1    0    0    0    0  0.00000000000E+00  0.00000000000E+00  0.99999998245E-14  0.12500000000E+03  0.12500000000E+03 0.  0.
    3000001    1    3    3    0    0 -0.22814905709E+02 -0.15577715297E+02 -0.16469007898E+02  0.32177839541E+02  0.10000000000E+01 0. -1.
    1000022    2    1    0    0    0 -0.49930645910E+02 -0.24889248756E+02 -0.26338295988E+02  0.62499999244E+02  0.99999982679E+01 0.  0.
    3000022    2    3    3    0    0 -0.27115740200E+02 -0.93115334594E+01 -0.98692880902E+01  0.30322159703E+02  0.24999934243E+00 0.  0.
    1000022    2    1    0    0    0  0.49930645910E+02  0.24889248756E+02  0.26338295988E+02  0.62500000756E+02  0.10000007719E+02 0.  0.
    3000022    2    5    5    0    0  0.96953556955E+00  0.11712901993E+01 -0.75428988583E+00  0.17156269981E+01  0.25000562589E+00 0.  0.
        -13    1    4    4    0    0 -0.81708647363E+01 -0.27588524304E+01 -0.29814587999E+01  0.91254818419E+01  0.10500000000E+00 0. -1.
         13    1    4    4    0    0 -0.18944875464E+02 -0.65526810290E+01 -0.68878292903E+01  0.21196677861E+02  0.10500000000E+00 0.  1.
    3000001    1    5    5    0    0  0.48961110340E+02  0.23717958557E+02  0.27092585874E+02  0.60784373758E+02  0.10000000000E+01 0.  1.
        -13    1    6    6    0    0  0.57857566549E+00  0.78526440862E+00 -0.45882910378E+00  0.10830231478E+01  0.10500000000E+00 0.  1.
         13    1    6    6    0    0  0.39095990406E+00  0.38602579068E+00 -0.29546078205E+00  0.63260385028E+00  0.10500000000E+00 0. -1.
</event>
<event>
11    0  0.3396091E-009  0.9118800E+02  0.7816531E-02  0.1126479E+00
         25   -1    0    0    0    0  0.00000000000E+00  0.00000000000E+00  0.99999998245E-14  0.12500000000E+03  0.12500000000E+03 0.  0.
    3000001    1    3    3    0    0 -0.91412558270E+01 -0.51011165048E+02 -0.11246291273E+01  0.51845600665E+02  0.10000000000E+01 0. -1.
    1000022    2    1    0    0    0 -0.69749568287E+01 -0.61210297983E+02 -0.33014603307E+01  0.62500001517E+02  0.99999973717E+01 0.  0.
    3000022    2    3    3    0    0  0.21662989983E+01 -0.10199132935E+02 -0.21768312034E+01  0.10654400852E+02  0.24999891714E+00 0.  0.
    1000022    2    1    0    0    0  0.69749568287E+01  0.61210297983E+02  0.33014603307E+01  0.62499998483E+02  0.99999784072E+01 0.  0.
    3000022    2    5    5    0    0  0.62324603836E+01  0.59943204593E+02  0.43727326387E+01  0.60425281397E+02  0.25000370182E+00 0.  0.
        -13    1    4    4    0    0  0.16673332919E+01 -0.78248111686E+01 -0.16806480061E+01  0.81757735322E+01  0.10500000000E+00 0. -1.
         13    1    4    4    0    0  0.49896570640E+00 -0.23743217663E+01 -0.49618319737E+00  0.24786273200E+01  0.10500000000E+00 0.  1.
    3000001    1    5    5    0    0  0.74249644518E+00  0.12670933901E+01 -0.10712723080E+01  0.20747170863E+01  0.10000000000E+01 0. -1.
        -13    1    6    6    0    0  0.18077375280E+01  0.17730984022E+02  0.12661960214E+01  0.17868127678E+02  0.10500000000E+00 0. -1.
         13    1    6    6    0    0  0.44247228556E+01  0.42212220571E+02  0.31065366173E+01  0.42557153719E+02  0.10500000000E+00 0.  1.
</event>
<event>
11    0  0.3396091E-009  0.9118800E+02  0.7816531E-02  0.1126479E+00
         25   -1    0    0    0    0  0.00000000000E+00  0.00000000000E+00  0.99999998245E-14  0.12500000000E+03  0.12500000000E+03 0.  0.
    3000001    1    3    3    0    0  0.14728997014E+01  0.81403453511E+01 -0.50535015408E+01  0.97453852560E+01  0.10000000000E+01 0. -1.
    1000022    2    1    0    0    0 -0.86816568938E+01  0.57631032085E+02 -0.20237169169E+02  0.62499999827E+02  0.99999968416E+01 0.  0.
    3000022    2    3    3    0    0 -0.10154556595E+02  0.49490686733E+02 -0.15183667628E+02  0.52754614571E+02  0.25000575847E+00 0.  0.
    1000022    2    1    0    0    0  0.86816568938E+01 -0.57631032085E+02  0.20237169169E+02  0.62500000173E+02  0.99999990063E+01 0.  0.
    3000022    2    5    5    0    0  0.45774391061E+01 -0.14427448646E+02  0.91803052384E+01  0.17704370190E+02  0.24999272347E+00 0.  0.
        -13    1    4    4    0    0 -0.46580137033E+01  0.22804082937E+02 -0.69282869225E+01  0.24284469830E+02  0.10500000000E+00 0. -1.
         13    1    4    4    0    0 -0.54965428919E+01  0.26686603796E+02 -0.82553807054E+01  0.28470144740E+02  0.10500000000E+00 0.  1.
    3000001    1    5    5    0    0  0.41042177878E+01 -0.43203583439E+02  0.11056863930E+02  0.44795629983E+02  0.10000000000E+01 0.  1.
        -13    1    6    6    0    0  0.32479514707E+01 -0.10328656555E+02  0.66021124953E+01  0.12681847239E+02  0.10500000000E+00 0.  1.
         13    1    6    6    0    0  0.13294876354E+01 -0.40987920901E+01  0.25781927430E+01  0.50225229507E+01  0.10500000000E+00 0. -1.
</event>
<event>
11    0  0.3396091E-009  0.9118800E+02  0.7816531E-02  0.1126479E+00
         25   -1    0    0    0    0  0.00000000000E+00  0.00000000000E+00  0.99999998245E-14  0.12500000000E+03  0.12500000000E+03 0.  0.
    3000001    1    3    3    0    0 -0.16558336692E+02  0.67824331307E+01 -0.15267136033E+02  0.23542840861E+02  0.10000000000E+01 0.  1.
    1000022    2    1    0    0    0 -0.33640239459E+02  0.20564981431E+02 -0.47451724050E+02  0.62499999931E+02  0.99999851982E+01 0.  0.
    3000022    2    3    3    0    0 -0.17081902767E+02  0.13782548300E+02 -0.32184588017E+02  0.38957159070E+02  0.24999433116E+00 0.  0.
    1000022    2    1    0    0    0  0.33640239459E+02 -0.20564981431E+02  0.47451724050E+02  0.62500000069E+02  0.99999860598E+01 0.  0.
    3000022    2    5    5    0    0  0.26568419660E+02 -0.13300181200E+02  0.29566516110E+02  0.41916787960E+02  0.24998965207E+00 0.  0.
        -13    1    4    4    0    0 -0.10165943762E+02  0.82464361340E+01 -0.19099489641E+02  0.23154948737E+02  0.10500000000E+00 0.  1.
         13    1    4    4    0    0 -0.69159590054E+01  0.55361121663E+01 -0.13085098377E+02  0.15802210333E+02  0.10500000000E+00 0. -1.
    3000001    1    5    5    0    0  0.70718197993E+01 -0.72648002315E+01  0.17885207940E+02  0.20583212109E+02  0.10000000000E+01 0.  1.
        -13    1    6    6    0    0  0.12330750596E+02 -0.62348523511E+01  0.13803502212E+02  0.19531218406E+02  0.10500000000E+00 0.  1.
         13    1    6    6    0    0  0.14237669063E+02 -0.70653288485E+01  0.15763013898E+02  0.22385569554E+02  0.10500000000E+00 0. -1.
</event>
<event>
11    0  0.3396091E-009  0.9118800E+02  0.7816531E-02  0.1126479E+00
         25   -1    0    0    0    0  0.00000000000E+00  0.00000000000E+00  0.99999998245E-14  0.12500000000E+03  0.12500000000E+03 0.  0.
    3000001    1    3    3    0    0  0.19094899138E+02 -0.26312169294E+02 -0.13676910790E+02  0.35284604501E+02  0.10000000000E+01 0. -1.
    1000022    2    1    0    0    0  0.31482508512E+02 -0.42624049336E+02 -0.31595757251E+02  0.62500001891E+02  0.10000021801E+02 0.  0.
    3000022    2    3    3    0    0  0.12387609374E+02 -0.16311880042E+02 -0.17918846461E+02  0.27215397389E+02  0.25000009735E+00 0.  0.
    1000022    2    1    0    0    0 -0.31482508512E+02  0.42624049336E+02  0.31595757251E+02  0.62499998109E+02  0.99999981683E+01 0.  0.
    3000022    2    5    5    0    0 -0.15336171328E+02  0.20700598024E+02  0.96387766646E+01  0.27507843011E+02  0.25000403079E+00 0.  0.
        -13    1    4    4    0    0  0.60843964508E+01 -0.80672037772E+01 -0.87613825535E+01  0.13374322645E+02  0.10500000000E+00 0.  1.
         13    1    4    4    0    0  0.63032129231E+01 -0.82446762650E+01 -0.91574639079E+01  0.13841074745E+02  0.10500000000E+00 0. -1.
    3000001    1    5    5    0    0 -0.16146337184E+02  0.21923451313E+02  0.21956980587E+02  0.34992155098E+02  0.10000000000E+01 0. -1.
        -13    1    6    6    0    0 -0.10304441785E+02  0.13948258315E+02  0.64382284931E+01  0.18498574043E+02  0.10500000000E+00 0. -1.
         13    1    6    6    0    0 -0.50317295427E+01  0.67523397090E+01  0.32005481715E+01  0.90092689678E+01  0.10500000000E+00 0.  1.
</event>
<event>
11    0  0.3396091E-009  0.9118800E+02  0.7816531E-02  0.1126479E+00
         25   -1    0    0    0    0  0.00000000000E+00  0.00000000000E+00  0.99999998245E-14  0.12500000000E+03  0.12500000000E+03 0.  0.
    3000001    1    3    3    0    0 -0.14866632065E+02  0.21721465868E+02 -0.21074049818E+02  0.33733579771E+02  0.10000000000E+01 0.  1.
    1000022    2    1    0    0    0 -0.25756668845E+02  0.33499331810E+02 -0.44951520869E+02  0.62500003787E+02  0.10000001166E+02 0.  0.
    3000022    2    3    3    0    0 -0.10890036780E+02  0.11777865942E+02 -0.23877471050E+02  0.28766424017E+02  0.24999946357E+00 0.  0.
    1000022    2    1    0    0    0  0.25756668845E+02 -0.33499331810E+02  0.44951520869E+02  0.62499996213E+02  0.99999538252E+01 0.  0.
    3000022    2    5    5    0    0  0.11515672371E+02 -0.12296712615E+02  0.11494577427E+02  0.20396265906E+02  0.25000278376E+00 0.  0.
        -13    1    4    4    0    0 -0.37313129794E+01  0.39735692651E+01 -0.81773242140E+01  0.98281028462E+01  0.10500000000E+00 0. -1.
         13    1    4    4    0    0 -0.71587238002E+01  0.78042966770E+01 -0.15700146836E+02  0.18938321170E+02  0.10500000000E+00 0.  1.
    3000001    1    5    5    0    0  0.14240996474E+02 -0.21202619195E+02  0.33456943442E+02  0.42103730307E+02  0.10000000000E+01 0.  1.
        -13    1    6    6    0    0  0.72892828797E+01 -0.78290148164E+01  0.73587175061E+01  0.12984177534E+02  0.10500000000E+00 0.  1.
         13    1    6    6    0    0  0.42263894912E+01 -0.44676977983E+01  0.41358599209E+01  0.74120883720E+01  0.10500000000E+00 0. -1.
</event>
<event>
11    0  0.3396091E-009  0.9118800E+02  0.7816531E-02  0.1126479E+00
         25   -1    0    0    0    0  0.00000000000E+00  0.00000000000E+00  0.99999998245E-14  0.12500000000E+03  0.12500000000E+03 0.  0.
    3000001    1    3    3    0    0  0.11705672117E+02 -0.17798902289E+02  0.81102889062E+01  0.22816670848E+02  0.10000000000E+01 0.  1.
    1000022    2    1    0    0    0  0.36394037499E+02 -0.48811353329E+02  0.99587045093E+01  0.62500000380E+02  0.10000003640E+02 0.  0.
    3000022    2    3    3    0    0  0.24688365382E+02 -0.31012451039E+02  0.18484156031E+01  0.39683329533E+02  0.24999577197E+00 0.  0.
    1000022    2    1    0    0    0 -0.36394037499E+02  0.48811353329E+02 -0.99587045093E+01  0.62499999620E+02  0.99999988843E+01 0.  0.
    3000022    2    5    5    0    0 -0.19389523141E+02  0.22137247585E+02 -0.37415851412E+00  0.29431510877E+02  0.24999928198E+00 0.  0.
        -13    1    4    4    0    0  0.14069478932E+02 -0.17777319810E+02  0.10667871690E+01  0.22696528301E+02  0.10500000000E+00 0.  1.
         13    1    4    4    0    0  0.10618886450E+02 -0.13235131230E+02  0.78162843418E+00  0.16986801232E+02  0.10500000000E+00 0. -1.
    3000001    1    5    5    0    0 -0.17004514358E+02  0.26674105744E+02 -0.95845459952E+01  0.33068488743E+02  0.10000000000E+01 0. -1.
        -13    1    6    6    0    0 -0.13520762688E+02  0.15395699332E+02 -0.22231659007E+00  0.20491437998E+02  0.10500000000E+00 0. -1.
         13    1    6    6    0    0 -0.58687604531E+01  0.67415482532E+01 -0.15184192406E+00  0.89400728787E+01  0.10500000000E+00 0.  1.
</event>
<event>
11    0  0.3396091E-009  0.9118800E+02  0.7816531E-02  0.1126479E+00
         25   -1    0    0    0    0  0.00000000000E+00  0.00000000000E+00  0.99999998245E-14  0.12500000000E+03  0.12500000000E+03 0.  0.
    3000001    1    3    3    0    0  0.35498942874E+02 -0.86154242527E+01 -0.37085879610E+02  0.52064987723E+02  0.10000000000E+01 0.  1.
    1000022    2    1    0    0    0  0.41078072629E+02 -0.14430559029E+02 -0.43710419738E+02  0.62500000440E+02  0.10000008828E+02 0.  0.
    3000022    2    3    3    0    0  0.55791297553E+01 -0.58151347759E+01 -0.66245401284E+01  0.10435012717E+02  0.24995439979E+00 0.  0.
    1000022    2    1    0    0    0 -0.41078072629E+02  0.14430559029E+02  0.43710419738E+02  0.62499999560E+02  0.10000003324E+02 0.  0.
    3000022    2    5    5    0    0 -0.24830352548E+02  0.37445755600E+01  0.22666161762E+02  0.33828769305E+02  0.24997983297E+00 0.  0.
        -13    1    4    4    0    0  0.20021968417E+01 -0.21569596911E+01 -0.24628326134E+01  0.38389890314E+01  0.10500000000E+00 0. -1.
         13    1    4    4    0    0  0.35769329136E+01 -0.36581750848E+01 -0.41617075151E+01  0.65960236856E+01  0.10500000000E+00 0.  1.
    3000001    1    5    5    0    0 -0.16247720081E+02  0.10685983469E+02  0.21044257976E+02  0.28671230254E+02  0.10000000000E+01 0. -1.
        -13    1    6    6    0    0 -0.56812939223E+01  0.85565091871E+00  0.51875493571E+01  0.77415071180E+01  0.10500000000E+00 0. -1.
         13    1    6    6    0    0 -0.19149058626E+02  0.28889246413E+01  0.17478612405E+02  0.26087262187E+02  0.10500000000E+00 0.  1.
</event>
<event>
11    0  0.3396091E-009  0.9118800E+02  0.7816531E-02  0.1126479E+00
         25   -1    0    0    0    0  0.00000000000E+00  0.00000000000E+00  0.99999998245E-14  0.12500000000E+03  0.12500000000E+03 0.  0.
    3000001    1    3    3    0    0  0.17141087842E+02 -0.36123838594E+02  0.28668782481E+02  0.49210239749E+02  0.10000000000E+01 0.  1.
    1000022    2    1    0    0    0  0.20360308210E+02 -0.48518805412E+02  0.32212316859E+02  0.62499999413E+02  0.99999970108E+01 0.  0.
    3000022    2    3    3    0    0  0.32192203684E+01 -0.12394966818E+02  0.35435343777E+01  0.13289759665E+02  0.24998771153E+00 0.  0.
    1000022    2    1    0    0    0 -0.20360308210E+02  0.48518805412E+02 -0.32212316859E+02  0.62500000587E+02  0.10000004344E+02 0.  0.
    3000022    2    5    5    0    0 -0.16149933469E+01  0.15273742207E+02 -0.10014589041E+02  0.18337118241E+02  0.25001438252E+00 0.  0.
        -13    1    4    4    0    0  0.16420653432E+01 -0.65304406429E+01  0.19074635185E+01  0.69994625263E+01  0.10500000000E+00 0.  1.
         13    1    4    4    0    0  0.15771550252E+01 -0.58645261754E+01  0.16360708591E+01  0.62902971385E+01  0.10500000000E+00 0. -1.
    3000001    1    5    5    0    0 -0.18745314863E+02  0.33245063205E+02 -0.22197727817E+02  0.44162882346E+02  0.10000000000E+01 0. -1.
        -13    1    6    6    0    0 -0.82993861099E+00  0.80192767674E+01 -0.53344858304E+01  0.96677485510E+01  0.10500000000E+00 0.  1.
         13    1    6    6    0    0 -0.78505473590E+00  0.72544654396E+01 -0.46801032111E+01  0.86693696899E+01  0.10500000000E+00 0. -1.
</event>
<event>
11    0  0.3396091E-009  0.9118800E+02  0.7816531E-02  0.1126479E+00
         25   -1    0    0    0    0  0.00000000000E+00  0.00000000000E+00  0.99999998245E-14  0.12500000000E+03  0.12500000000E+03 0.  0.
    3000001    1    3    3    0    0 -0.38435546492E+02 -0.45048237521E+01 -0.38158441778E+01  0.38899168859E+02  0.10000000000E+01 0.  1.
    1000022    2    1    0    0    0 -0.59623684923E+02 -0.83645900371E+01 -0.13464771109E+02  0.62500001444E+02  0.99999974624E+01 0.  0.
    3000022    2    3    3    0    0 -0.21188138431E+02 -0.38597662850E+01 -0.96489269310E+01  0.23600832585E+02  0.25000366141E+00 0.  0.
    1000022    2    1    0    0    0  0.59623684923E+02  0.83645900371E+01  0.13464771109E+02  0.62499998556E+02  0.99999794109E+01 0.  0.
    3000022    2    5    5    0    0  0.12327090787E+01  0.18109165329E+01 -0.26894050408E-01  0.22050425050E+01  0.24999759375E+00 0.  0.
        -13    1    4    4    0    0 -0.12001411965E+02 -0.21578512922E+01 -0.53977406791E+01  0.13335548013E+02  0.10500000000E+00 0.  1.
         13    1    4    4    0    0 -0.91867264661E+01 -0.17019149928E+01 -0.42511862520E+01  0.10265284573E+02  0.10500000000E+00 0. -1.
    3000001    1    5    5    0    0  0.58390975844E+02  0.65536735043E+01  0.13491665159E+02  0.60294956051E+02  0.10000000000E+01 0. -1.
        -13    1    6    6    0    0  0.37757826713E+00  0.64507098461E+00  0.11800017250E-01  0.75488155588E+00  0.10500000000E+00 0.  1.
         13    1    6    6    0    0  0.85513081160E+00  0.11658455483E+01 -0.38694067658E-01  0.14501609491E+01  0.10500000000E+00 0. -1.
</event>
<event>
11    0  0.3396091E-009  0.9118800E+02  0.7816531E-02  0.1126479E+00
         25   -1    0    0    0    0  0.00000000000E+00  0.00000000000E+00  0.99999998245E-14  0.12500000000E+03  0.12500000000E+03 0.  0.
    3000001    1    3    3    0    0 -0.23176093844E+02  0.16558239739E+02  0.49914381730E+01  0.28934772924E+02  0.10000000000E+01 0.  1.
    1000022    2    1    0    0    0 -0.42527621179E+02  0.42234580282E+02  0.14625024908E+02  0.62500001393E+02  0.10000024288E+02 0.  0.
    3000022    2    3    3    0    0 -0.19351527335E+02  0.25676340543E+02  0.96335867347E+01  0.33565228469E+02  0.24998979752E+00 0.  0.
    1000022    2    1    0    0    0  0.42527621179E+02 -0.42234580282E+02 -0.14625024908E+02  0.62499998607E+02  0.10000006881E+02 0.  0.
    3000022    2    5    5    0    0  0.15167743714E+02 -0.93738063499E+01 -0.63927234392E+01  0.18943550797E+02  0.25001800414E+00 0.  0.
        -13    1    4    4    0    0 -0.67636069771E+01  0.90685310163E+01  0.33875036331E+01  0.11809777305E+02  0.10500000000E+00 0. -1.
         13    1    4    4    0    0 -0.12587920358E+02  0.16607809527E+02  0.62460831016E+01  0.21755451163E+02  0.10500000000E+00 0.  1.
    3000001    1    5    5    0    0  0.27359877466E+02 -0.32860773932E+02 -0.82323014685E+01  0.43556447810E+02  0.10000000000E+01 0.  1.
        -13    1    6    6    0    0  0.78792450566E+01 -0.48006602388E+01 -0.33440365091E+01  0.98143999595E+01  0.10500000000E+00 0. -1.
         13    1    6    6    0    0  0.72884986569E+01 -0.45731461111E+01 -0.30486869301E+01  0.91291508380E+01  0.10500000000E+00 0.  1.
</event>
<event>
11    0  0.3396091E-009  0.9118800E+02  0.7816531E-02  0.1126479E+00
         25   -1    0    0    0    0  0.00000000000E+00  0.00000000000E+00  0.99999998245E-14  0.12500000000E+03  0.12500000000E+03 0.  0.
    3000001    1    3    3    0    0  0.12570048596E+01 -0.10563664112E+01  0.34458173895E+01  0.39458368813E+01  0.10000000000E+01 0. -1.
    1000022    2    1    0    0    0  0.48268343967E+02 -0.33968793227E+01  0.38273728675E+02  0.62499999052E+02  0.99999878148E+01 0.  0.
    3000022    2    3    3    0    0  0.47011339107E+02 -0.23405129115E+01  0.34827911286E+02  0.58554162170E+02  0.24999516901E+00 0.  0.
    1000022    2    1    0    0    0 -0.48268343967E+02  0.33968793227E+01 -0.38273728675E+02  0.62500000948E+02  0.99999996704E+01 0.  0.
    3000022    2    5    5    0    0 -0.26698163579E+02  0.67966026739E+01 -0.21392877509E+02  0.34881276558E+02  0.24999967360E+00 0.  0.
        -13    1    4    4    0    0  0.25100083278E+02 -0.11828590382E+01  0.18603774131E+02  0.31265392577E+02  0.10500000000E+00 0. -1.
         13    1    4    4    0    0  0.21911255830E+02 -0.11576538734E+01  0.16224137155E+02  0.27288769594E+02  0.10500000000E+00 0.  1.
    3000001    1    5    5    0    0 -0.21570180388E+02 -0.33997233512E+01 -0.16880851166E+02  0.27618724390E+02  0.10000000000E+01 0. -1.
        -13    1    6    6    0    0 -0.15580840284E+02  0.39689574469E+01 -0.12403420205E+02  0.20306921602E+02  0.10500000000E+00 0. -1.
         13    1    6    6    0    0 -0.11117323295E+02  0.28276452269E+01 -0.89894573038E+01  0.14574354956E+02  0.10500000000E+00 0.  1.
</event>
<event>
11    0  0.3396091E-009  0.9118800E+02  0.7816531E-02  0.1126479E+00
         25   -1    0    0    0    0  0.00000000000E+00  0.00000000000E+00  0.99999998245E-14  0.12500000000E+03  0.12500000000E+03 0.  0.
    3000001    1    3    3    0    0 -0.13229365557E+02 -0.19962397630E+02 -0.30739541584E+02  0.38979903142E+02  0.10000000000E+01 0. -1.
    1000022    2    1    0    0    0 -0.22864771128E+02 -0.24861601330E+02 -0.51627070276E+02  0.62499992258E+02  0.99998833747E+01 0.  0.
    3000022    2    3    3    0    0 -0.96354055705E+01 -0.48992037001E+01 -0.20887528692E+02  0.23520089115E+02  0.24999947623E+00 0.  0.
    1000022    2    1    0    0    0  0.22864771128E+02  0.24861601330E+02  0.51627070276E+02  0.62500007742E+02  0.99999801554E+01 0.  0.
    3000022    2    5    5    0    0  0.12375718862E+02  0.11568162023E+02  0.34277457912E+02  0.38235943878E+02  0.24998676675E+00 0.  0.
        -13    1    4    4    0    0 -0.65311178830E+01 -0.32645699128E+01 -0.14134750023E+02  0.15909591470E+02  0.10500000000E+00 0. -1.
         13    1    4    4    0    0 -0.31042876876E+01 -0.16346337873E+01 -0.67527786686E+01  0.76104976455E+01  0.10500000000E+00 0.  1.
    3000001    1    5    5    0    0  0.10489052266E+02  0.13293439307E+02  0.17349612364E+02  0.24264063864E+02  0.10000000000E+01 0.  1.
        -13    1    6    6    0    0  0.69748927642E+01  0.65196137671E+01  0.19169154722E+02  0.21415461949E+02  0.10500000000E+00 0.  1.
         13    1    6    6    0    0  0.54008260980E+01  0.50485482562E+01  0.15108303190E+02  0.16820481929E+02  0.10500000000E+00 0. -1.
</event>
<event>
11    0  0.3396091E-009  0.9118800E+02  0.7816531E-02  0.1126479E+00
         25   -1    0    0    0    0  0.00000000000E+00  0.00000000000E+00  0.99999998245E-14  0.12500000000E+03  0.12500000000E+03 0.  0.
    3000001    1    3    3    0    0  0.31468749936E+01 -0.12623531965E+02 -0.10098745386E+02  0.16499728479E+02  0.10000000000E+01 0.  1.
    1000022    2    1    0    0    0  0.12011424078E+01 -0.54904975382E+02 -0.28111398617E+02  0.62499994861E+02  0.99999780307E+01 0.  0.
    3000022    2    3    3    0    0 -0.19457325858E+01 -0.42281443416E+02 -0.18012653230E+02  0.46000266381E+02  0.24999617895E+00 0.  0.
    1000022    2    1    0    0    0 -0.12011424078E+01  0.54904975382E+02  0.28111398617E+02  0.62500005139E+02  0.10000042274E+02 0.  0.
    3000022    2    5    5    0    0 -0.21706409407E+01  0.38773176973E+01  0.53994905710E+00  0.44832264717E+01  0.24999998475E+00 0.  0.
        -13    1    4    4    0    0 -0.78382428772E+00 -0.17412437994E+02 -0.73506532757E+01  0.18916937014E+02  0.10500000000E+00 0. -1.
         13    1    4    4    0    0 -0.11619082980E+01 -0.24869005423E+02 -0.10661999955E+02  0.27083329368E+02  0.10500000000E+00 0.  1.
    3000001    1    5    5    0    0  0.96949853290E+00  0.51027657685E+02  0.27571449559E+02  0.58016778668E+02  0.10000000000E+01 0. -1.
        -13    1    6    6    0    0 -0.14517832655E+01  0.26317121274E+01  0.41331265932E+00  0.30356936153E+01  0.10500000000E+00 0.  1.
         13    1    6    6    0    0 -0.71885767521E+00  0.12456055700E+01  0.12663639778E+00  0.14475328564E+01  0.10500000000E+00 0. -1.
</event>
<event>
11    0  0.3396091E-009  0.9118800E+02  0.7816531E-02  0.1126479E+00
         25   -1    0    0    0    0  0.00000000000E+00  0.00000000000E+00  0.99999998245E-14  0.12500000000E+03  0.12500000000E+03 0.  0.
    3000001    1    3    3    0    0  0.25271172331E+00 -0.88828729450E+01  0.25449450864E+02  0.26974874314E+02  0.10000000000E+01 0.  1.
    1000022    2    1    0    0    0 -0.10619901403E+02 -0.19711696196E+02  0.57488407844E+02  0.62499997670E+02  0.99999699776E+01 0.  0.
    3000022    2    3    3    0    0 -0.10872613127E+02 -0.10828823251E+02  0.32038956980E+02  0.35525123356E+02  0.24999176477E+00 0.  0.
    1000022    2    1    0    0    0  0.10619901403E+02  0.19711696196E+02 -0.57488407844E+02  0.62500002330E+02  0.99999991019E+01 0.  0.
    3000022    2    5    5    0    0  0.15257700165E+01  0.10665583069E+02 -0.34644950185E+02  0.36282471053E+02  0.24999220087E+00 0.  0.
        -13    1    4    4    0    0 -0.80819266591E+01 -0.80647137265E+01  0.23772186885E+02  0.26372050362E+02  0.10500000000E+00 0. -1.
         13    1    4    4    0    0 -0.27906864676E+01 -0.27641095248E+01  0.82667700950E+01  0.91530729937E+01  0.10500000000E+00 0.  1.
    3000001    1    5    5    0    0  0.90941313870E+01  0.90461131274E+01 -0.22843457659E+02  0.26217531276E+02  0.10000000000E+01 0.  1.
        -13    1    6    6    0    0  0.87285684380E+00  0.56375454189E+01 -0.18392867690E+02  0.19257528509E+02  0.10500000000E+00 0. -1.
         13    1    6    6    0    0  0.65291317269E+00  0.50280376501E+01 -0.16252082495E+02  0.17024942544E+02  0.10500000000E+00 0.  1.
</event>
<event>
11    0  0.3396091E-009  0.9118800E+02  0.7816531E-02  0.1126479E+00
         25   -1    0    0    0    0  0.00000000000E+00  0.00000000000E+00  0.99999998245E-14  0.12500000000E+03  0.12500000000E+03 0.  0.
    3000001    1    3    3    0    0 -0.50164224535E+00 -0.10458712854E+01 -0.27366744480E+01  0.31360610202E+01  0.10000000000E+01 0.  1.
    1000022    2    1    0    0    0  0.17021558221E+02 -0.44369367445E+02 -0.39343052537E+02  0.62500000351E+02  0.10000002457E+02 0.  0.
    3000022    2    3    3    0    0  0.17523200467E+02 -0.43323496160E+02 -0.36606378089E+02  0.59363939330E+02  0.25000387694E+00 0.  0.
    1000022    2    1    0    0    0 -0.17021558221E+02  0.44369367445E+02  0.39343052537E+02  0.62499999649E+02  0.99999980742E+01 0.  0.
    3000022    2    5    5    0    0 -0.96746115923E+01  0.35113754929E+02  0.32458477008E+02  0.48787181994E+02  0.25000526533E+00 0.  0.
        -13    1    4    4    0    0  0.98893530373E+01 -0.24273749927E+02 -0.20528539452E+02  0.33293335611E+02  0.10500000000E+00 0. -1.
         13    1    4    4    0    0  0.76338474293E+01 -0.19049746232E+02 -0.16077838637E+02  0.26070603720E+02  0.10500000000E+00 0.  1.
    3000001    1    5    5    0    0 -0.73469466289E+01  0.92556125164E+01  0.68845755293E+01  0.13712817655E+02  0.10000000000E+01 0.  1.
        -13    1    6    6    0    0 -0.32943282304E+01  0.12161017506E+02  0.11245829234E+02  0.16888535917E+02  0.10500000000E+00 0. -1.
         13    1    6    6    0    0 -0.63802833619E+01  0.22952737423E+02  0.21212647774E+02  0.31898646077E+02  0.10500000000E+00 0.  1.
</event>
<event>
11    0  0.3396091E-009  0.9118800E+02  0.7816531E-02  0.1126479E+00
         25   -1    0    0    0    0  0.00000000000E+00  0.00000000000E+00  0.99999998245E-14  0.12500000000E+03  0.12500000000E+03 0.  0.
    3000001    1    3    3    0    0  0.29864525880E+02  0.31283281743E+01  0.20238050960E+02  0.36225061075E+02  0.10000000000E+01 0.  1.
    1000022    2    1    0    0    0  0.54228787408E+02  0.92633276346E+01  0.27922734933E+02  0.62499998238E+02  0.10000001551E+02 0.  0.
    3000022    2    3    3    0    0  0.24364261528E+02  0.61349994603E+01  0.76846839723E+01  0.26274937163E+02  0.24999398033E+00 0.  0.
    1000022    2    1    0    0    0 -0.54228787408E+02 -0.92633276346E+01 -0.27922734933E+02  0.62500001762E+02  0.10000023578E+02 0.  0.
    3000022    2    5    5    0    0 -0.47624627348E+02 -0.63910946066E+01 -0.20931169423E+02  0.52413047765E+02  0.25000458958E+00 0.  0.
        -13    1    4    4    0    0  0.11928592707E+02  0.29337894960E+01  0.37561084542E+01  0.12845926222E+02  0.10500000000E+00 0.  1.
         13    1    4    4    0    0  0.12435668821E+02  0.32012099643E+01  0.39285755181E+01  0.13429010942E+02  0.10500000000E+00 0. -1.
    3000001    1    5    5    0    0 -0.66041600601E+01 -0.28722330280E+01 -0.69915655100E+01  0.10086953997E+02  0.10000000000E+01 0. -1.
        -13    1    6    6    0    0 -0.12732551217E+02 -0.16768866715E+01 -0.56105607713E+01  0.14014964380E+02  0.10500000000E+00 0.  1.
         13    1    6    6    0    0 -0.34892076131E+02 -0.47142079351E+01 -0.15320608651E+02  0.38398083385E+02  0.10500000000E+00 0. -1.
</event>
<event>
11    0  0.3396091E-009  0.9118800E+02  0.7816531E-02  0.1126479E+00
         25   -1    0    0    0    0  0.00000000000E+00  0.00000000000E+00  0.99999998245E-14  0.12500000000E+03  0.12500000000E+03 0.  0.
    3000001    1    3    3    0    0  0.29750920029E+02  0.14105754627E+02 -0.43831667831E+02  0.54829778962E+02  0.10000000000E+01 0.  1.
    1000022    2    1    0    0    0  0.34981935485E+02  0.12603588805E+02 -0.49230717955E+02  0.62500000032E+02  0.10000007632E+02 0.  0.
    3000022    2    3    3    0    0  0.52310154567E+01 -0.15021658225E+01 -0.53990501235E+01  0.76702210703E+01  0.25004832507E+00 0.  0.
    1000022    2    1    0    0    0 -0.34981935485E+02 -0.12603588805E+02  0.49230717955E+02  0.62499999968E+02  0.10000007231E+02 0.  0.
    3000022    2    5    5    0    0 -0.12195578369E+02 -0.18076658639E+00  0.19715965021E+02  0.23185050862E+02  0.24999687098E+00 0.  0.
        -13    1    4    4    0    0  0.33710208900E+01 -0.92888601751E+00 -0.34052160490E+01  0.48819189275E+01  0.10500000000E+00 0.  1.
         13    1    4    4    0    0  0.18599945667E+01 -0.57327980499E+00 -0.19938340745E+01  0.27883021429E+01  0.10500000000E+00 0. -1.
    3000001    1    5    5    0    0 -0.22786357117E+02 -0.12422822218E+02  0.29514752933E+02  0.39314949106E+02  0.10000000000E+01 0. -1.
        -13    1    6    6    0    0 -0.41573185178E+01 -0.97408380444E-02  0.66866948390E+01  0.78744082325E+01  0.10500000000E+00 0. -1.
         13    1    6    6    0    0 -0.80382598509E+01 -0.17102574834E+00  0.13029270182E+02  0.15310642629E+02  0.10500000000E+00 0.  1.
</event>
<event>
11    0  0.3396091E-009  0.9118800E+02  0.7816531E-02  0.1126479E+00
         25   -1    0    0    0    0  0.00000000000E+00  0.00000000000E+00  0.99999998245E-14  0.12500000000E+03  0.12500000000E+03 0.  0.
    3000001    1    3    3    0    0  0.11919399475E+02 -0.34458276667E+02 -0.83142580877E+01  0.37410851397E+02  0.10000000000E+01 0. -1.
    1000022    2    1    0    0    0  0.18153254719E+02 -0.54955538850E+02 -0.21368157441E+02  0.62500002206E+02  0.10000010806E+02 0.  0.
    3000022    2    3    3    0    0  0.62338552443E+01 -0.20497262183E+02 -0.13053899353E+02  0.25089150809E+02  0.24998355480E+00 0.  0.
    1000022    2    1    0    0    0 -0.18153254719E+02  0.54955538850E+02  0.21368157441E+02  0.62499997794E+02  0.99999832350E+01 0.  0.
    3000022    2    5    5    0    0 -0.49283938287E+01  0.49568113560E+01  0.21476492719E+01  0.73166884441E+01  0.24997568372E+00 0.  0.
        -13    1    4    4    0    0  0.18781281472E+01 -0.63242961633E+01 -0.39961367330E+01  0.77138979178E+01  0.10500000000E+00 0. -1.
         13    1    4    4    0    0  0.43557270971E+01 -0.14172966020E+02 -0.90577626200E+01  0.17375252891E+02  0.10500000000E+00 0.  1.
    3000001    1    5    5    0    0 -0.13224860890E+02  0.49998727494E+02  0.19220508169E+02  0.55183309350E+02  0.10000000000E+01 0.  1.
        -13    1    6    6    0    0 -0.35899971584E+01  0.36280997058E+01  0.15322655570E+01  0.53301078610E+01  0.10500000000E+00 0. -1.
         13    1    6    6    0    0 -0.13383966703E+01  0.13287116502E+01  0.61538371494E+00  0.19865805831E+01  0.10500000000E+00 0.  1.
</event>
<event>
11    0  0.3396091E-009  0.9118800E+02  0.7816531E-02  0.1126479E+00
         25   -1    0    0    0    0  0.00000000000E+00  0.00000000000E+00  0.99999998245E-14  0.12500000000E+03  0.12500000000E+03 0.  0.
    3000001    1    3    3    0    0 -0.36962855736E+01  0.21077170056E+02  0.37698071392E+01  0.21751346406E+02  0.10000000000E+01 0. -1.
    1000022    2    1    0    0    0 -0.22258799049E+02  0.55458326358E+02  0.15335250290E+02  0.62500000258E+02  0.10000001665E+02 0.  0.
    3000022    2    3    3    0    0 -0.18562513476E+02  0.34381156302E+02  0.11565443151E+02  0.40748653852E+02  0.25000061096E+00 0.  0.
    1000022    2    1    0    0    0  0.22258799049E+02 -0.55458326358E+02 -0.15335250290E+02  0.62499999742E+02  0.99999984383E+01 0.  0.
    3000022    2    5    5    0    0  0.11637006136E+02 -0.16728296631E+02 -0.41256259173E+01  0.20792765766E+02  0.24999801415E+00 0.  0.
        -13    1    4    4    0    0 -0.10151980342E+02  0.18928963979E+02  0.63889085162E+01  0.22409764819E+02  0.10500000000E+00 0.  1.
         13    1    4    4    0    0 -0.84105331337E+01  0.15452192322E+02  0.51765346344E+01  0.18338889034E+02  0.10500000000E+00 0. -1.
    3000001    1    5    5    0    0  0.10621792913E+02 -0.38730029727E+02 -0.11209624372E+02  0.41707233976E+02  0.10000000000E+01 0.  1.
        -13    1    6    6    0    0  0.61543583187E+01 -0.89177671049E+01 -0.21386790413E+01  0.11044802827E+02  0.10500000000E+00 0.  1.
         13    1    6    6    0    0  0.54826478178E+01 -0.78105295256E+01 -0.19869468759E+01  0.97479629386E+01  0.10500000000E+00 0. -1.
</event>
<event>
11    0  0.3396091E-009  0.9118800E+02  0.7816531E-02  0.1126479E+00
         25   -1    0    0    0    0  0.00000000000E+00  0.00000000000E+00  0.99999998245E-14  0.12500000000E+03  0.12500000000E+03 0.  0.
    3000001    1    3    3    0    0  0.28930982776E+01 -0.10410450537E+01 -0.41997879752E+01  0.53001897593E+01  0.10000000000E+01 0.  1.
    1000022    2    1    0    0    0  0.19468688533E+02 -0.38813077438E+02 -0.43826535391E+02  0.62499999484E+02  0.99999958858E+01 0.  0.
    3000022    2    3    3    0    0  0.16575590256E+02 -0.37772032384E+02 -0.39626747415E+02  0.57199809724E+02  0.24999806823E+00 0.  0.
    1000022    2    1    0    0    0 -0.19468688533E+02  0.38813077438E+02  0.43826535391E+02  0.62500000516E+02  0.10000002340E+02 0.  0.
    3000022    2    5    5    0    0 -0.43708948542E+00  0.36701041818E+01  0.80074719619E+01  0.88228579274E+01  0.25000572800E+00 0.  0.
        -13    1    4    4    0    0  0.11773930595E+02 -0.26920462353E+02 -0.28196827722E+02  0.40723566317E+02  0.10500000000E+00 0.  1.
         13    1    4    4    0    0  0.48016596607E+01 -0.10851570031E+02 -0.11429919693E+02  0.16476243408E+02  0.10500000000E+00 0. -1.
    3000001    1    5    5    0    0 -0.19031599048E+02  0.35142973256E+02  0.35819063429E+02  0.53677142589E+02  0.10000000000E+01 0.  1.
        -13    1    6    6    0    0 -0.24529180567E+00  0.23656578341E+01  0.50400335229E+01  0.55739992796E+01  0.10500000000E+00 0. -1.
         13    1    6    6    0    0 -0.19179767976E+00  0.13044463477E+01  0.29674384390E+01  0.32488586478E+01  0.10500000000E+00 0.  1.
</event>
<event>
11    0  0.3396091E-009  0.9118800E+02  0.7816531E-02  0.1126479E+00
         25   -1    0    0    0    0  0.00000000000E+00  0.00000000000E+00  0.99999998245E-14  0.12500000000E+03  0.12500000000E+03 0.  0.
    3000001    1    3    3    0    0  0.24988886960E+02  0.19703922763E+01  0.46170186272E+01  0.25507719973E+02  0.10000000000E+01 0.  1.
    1000022    2    1    0    0    0  0.60500281297E+02  0.11944044302E+02  0.18182039263E+01  0.62499999187E+02  0.99999900795E+01 0.  0.
    3000022    2    3    3    0    0  0.35511394337E+02  0.99736520256E+01 -0.27988147008E+01  0.36992279214E+02  0.24999048829E+00 0.  0.
    1000022    2    1    0    0    0 -0.60500281297E+02 -0.11944044302E+02 -0.18182039263E+01  0.62500000813E+02  0.10000000240E+02 0.  0.
    3000022    2    5    5    0    0 -0.41655629328E+02 -0.43874894026E+01  0.14458163131E+01  0.41911745474E+02  0.25001179728E+00 0.  0.
        -13    1    4    4    0    0  0.13989669186E+02  0.38648975304E+01 -0.11095687726E+01  0.14556457148E+02  0.10500000000E+00 0. -1.
         13    1    4    4    0    0  0.21521725151E+02  0.61087544952E+01 -0.16892459283E+01  0.22435822066E+02  0.10500000000E+00 0.  1.
    3000001    1    5    5    0    0 -0.18844651969E+02 -0.75565548993E+01 -0.32640202395E+01  0.20588255339E+02  0.10000000000E+01 0. -1.
        -13    1    6    6    0    0 -0.24906174496E+02 -0.26839255993E+01  0.88382990607E+00  0.25066175714E+02  0.10500000000E+00 0.  1.
         13    1    6    6    0    0 -0.16749454832E+02 -0.17035638033E+01  0.56198640704E+00  0.16845569760E+02  0.10500000000E+00 0. -1.
</event>
<event>
11    0  0.3396091E-009  0.9118800E+02  0.7816531E-02  0.1126479E+00
         25   -1    0    0    0    0  0.00000000000E+00  0.00000000000E+00  0.99999998245E-14  0.12500000000E+03  0.12500000000E+03 0.  0.
    3000001    1    3    3    0    0  0.25298305427E+02 -0.19103463486E+02  0.10104941378E+02  0.33287481354E+02  0.10000000000E+01 0. -1.
    1000022    2    1    0    0    0  0.47085392415E+02 -0.38561920050E+02  0.10109111693E+02  0.62499999357E+02  0.99999961767E+01 0.  0.
    3000022    2    3    3    0    0  0.21787086988E+02 -0.19458456564E+02  0.41703147486E-02  0.29212518002E+02  0.24999876278E+00 0.  0.
    1000022    2    1    0    0    0 -0.47085392415E+02  0.38561920050E+02 -0.10109111693E+02  0.62500000643E+02  0.10000004218E+02 0.  0.
    3000022    2    5    5    0    0 -0.17025104354E+02  0.20099066267E+02 -0.31586835512E+01  0.26530481054E+02  0.25000021228E+00 0.  0.
        -13    1    4    4    0    0  0.16580710021E+02 -0.14832650114E+02  0.37329863576E-02  0.22247213154E+02  0.10500000000E+00 0.  1.
         13    1    4    4    0    0  0.52063769676E+01 -0.46258064495E+01  0.43732839108E-03  0.69653048482E+01  0.10500000000E+00 0. -1.
    3000001    1    5    5    0    0 -0.30060288061E+02  0.18462853783E+02 -0.69504281419E+01  0.35969519589E+02  0.10000000000E+01 0. -1.
        -13    1    6    6    0    0 -0.10945572546E+02  0.13006717365E+02 -0.20550247655E+01  0.17123504512E+02  0.10500000000E+00 0.  1.
         13    1    6    6    0    0 -0.60795318076E+01  0.70923489019E+01 -0.11036587857E+01  0.94069765420E+01  0.10500000000E+00 0. -1.
</event>
<event>
11    0  0.3396091E-009  0.9118800E+02  0.7816531E-02  0.1126479E+00
         25   -1    0    0    0    0  0.00000000000E+00  0.00000000000E+00  0.99999998245E-14  0.12500000000E+03  0.12500000000E+03 0.  0.
    3000001    1    3    3    0    0  0.80154334636E+01 -0.19744317705E+02  0.17544230933E+02  0.27620378242E+02  0.10000000000E+01 0. -1.
    1000022    2    1    0    0    0  0.10879359594E+02 -0.50535671593E+02  0.33675444555E+02  0.62500001359E+02  0.10000001765E+02 0.  0.
    3000022    2    3    3    0    0  0.28639261306E+01 -0.30791353889E+02  0.16131213623E+02  0.34879623116E+02  0.25001726449E+00 0.  0.
    1000022    2    1    0    0    0 -0.10879359594E+02  0.50535671593E+02 -0.33675444555E+02  0.62499998641E+02  0.99999847782E+01 0.  0.
    3000022    2    5    5    0    0 -0.25654588225E+01  0.25249404020E+02 -0.21276110394E+02  0.33118716139E+02  0.25000569601E+00 0.  0.
        -13    1    4    4    0    0  0.20850271994E+01 -0.22410230187E+02  0.11781797605E+02  0.25404478645E+02  0.10500000000E+00 0.  1.
         13    1    4    4    0    0  0.77889893124E+00 -0.83811237020E+01  0.43494160176E+01  0.94751444711E+01  0.10500000000E+00 0. -1.
    3000001    1    5    5    0    0 -0.83139007717E+01  0.25286267573E+02 -0.12399334161E+02  0.29381282502E+02  0.10000000000E+01 0. -1.
        -13    1    6    6    0    0 -0.72173550485E+00  0.71101692378E+01 -0.59391862437E+01  0.92930278686E+01  0.10500000000E+00 0. -1.
         13    1    6    6    0    0 -0.18437233177E+01  0.18139234783E+02 -0.15336924151E+02  0.23825688271E+02  0.10500000000E+00 0.  1.
</event>
<event>
11    0  0.3396091E-009  0.9118800E+02  0.7816531E-02  0.1126479E+00
         25   -1    0    0    0    0  0.00000000000E+00  0.00000000000E+00  0.99999998245E-14  0.12500000000E+03  0.12500000000E+03 0.  0.
    3000001    1    3    3    0    0  0.27253666958E+01 -0.48578813129E+01  0.34098193526E+01  0.66070797251E+01  0.10000000000E+01 0.  1.
    1000022    2    1    0    0    0  0.44123641293E+02 -0.41401630001E+02  0.12052352192E+02  0.62500000396E+02  0.10000008420E+02 0.  0.
    3000022    2    3    3    0    0  0.41398274597E+02 -0.36543748688E+02  0.86425328391E+01  0.55892920670E+02  0.24999878855E+00 0.  0.
    1000022    2    1    0    0    0 -0.44123641293E+02  0.41401630001E+02 -0.12052352192E+02  0.62499999604E+02  0.10000003475E+02 0.  0.
    3000022    2    5    5    0    0 -0.21606060756E+02  0.26657348416E+02 -0.83177929840E+01  0.35308416252E+02  0.24998433628E+00 0.  0.
        -13    1    4    4    0    0  0.10270096028E+02 -0.90824077689E+01  0.21680865339E+01  0.13880800680E+02  0.10500000000E+00 0. -1.
         13    1    4    4    0    0  0.31128178569E+02 -0.27461340919E+02  0.64744463051E+01  0.42012119990E+02  0.10500000000E+00 0.  1.
    3000001    1    5    5    0    0 -0.22517580538E+02  0.14744281585E+02 -0.37345592076E+01  0.27191583352E+02  0.10000000000E+01 0.  1.
        -13    1    6    6    0    0 -0.13556135147E+02  0.16684129634E+02 -0.52665614256E+01  0.22133157841E+02  0.10500000000E+00 0. -1.
         13    1    6    6    0    0 -0.80499256089E+01  0.99732187824E+01 -0.30512315584E+01  0.13175258412E+02  0.10500000000E+00 0.  1.
</event>
<event>
11    0  0.3396091E-009  0.9118800E+02  0.7816531E-02  0.1126479E+00
         25   -1    0    0    0    0  0.00000000000E+00  0.00000000000E+00  0.99999998245E-14  0.12500000000E+03  0.12500000000E+03 0.  0.
    3000001    1    3    3    0    0  0.58958989720E+02 -0.99449795372E+01 -0.15002981147E+01  0.59819026916E+02  0.10000000000E+01 0. -1.
    1000022    2    1    0    0    0  0.60510053618E+02 -0.11710254927E+02 -0.27664438629E+01  0.62500001034E+02  0.10000012915E+02 0.  0.
    3000022    2    3    3    0    0  0.15510638985E+01 -0.17652753903E+01 -0.12661457482E+01  0.26809741181E+01  0.25000149115E+00 0.  0.
    1000022    2    1    0    0    0 -0.60510053618E+02  0.11710254927E+02  0.27664438629E+01  0.62499998966E+02  0.99999999852E+01 0.  0.
    3000022    2    5    5    0    0 -0.79104197862E+01  0.39776467221E+01 -0.21005019708E+01  0.91033523418E+01  0.25000137803E+00 0.  0.
        -13    1    4    4    0    0  0.72881516186E+00 -0.91806567635E+00 -0.66979809622E+00  0.13541309449E+01  0.10500000000E+00 0.  1.
         13    1    4    4    0    0  0.82224873664E+00 -0.84720971395E+00 -0.59634765199E+00  0.13268431732E+01  0.10500000000E+00 0. -1.
    3000001    1    5    5    0    0 -0.52599633832E+02  0.77326082054E+01  0.48669458337E+01  0.53396646624E+02  0.10000000000E+01 0.  1.
        -13    1    6    6    0    0 -0.36869493521E+01  0.18625679236E+01 -0.10487118527E+01  0.42630477765E+01  0.10500000000E+00 0.  1.
         13    1    6    6    0    0 -0.42234704342E+01  0.21150787985E+01 -0.10517901181E+01  0.48403045653E+01  0.10500000000E+00 0. -1.
</event>
<event>
11    0  0.3396091E-009  0.9118800E+02  0.7816531E-02  0.1126479E+00
         25   -1    0    0    0    0  0.00000000000E+00  0.00000000000E+00  0.99999998245E-14  0.12500000000E+03  0.12500000000E+03 0.  0.
    3000001    1    3    3    0    0  0.45865989552E+01  0.25228728465E+01 -0.22937176705E+01  0.58019753643E+01  0.10000000000E+01 0. -1.
    1000022    2    1    0    0    0  0.26755931086E+02  0.39818736044E+02 -0.38792248401E+02  0.62499999548E+02  0.99999909563E+01 0.  0.
    3000022    2    3    3    0    0  0.22169332130E+02  0.37295863197E+02 -0.36498530731E+02  0.56698024184E+02  0.25000425314E+00 0.  0.
    1000022    2    1    0    0    0 -0.26755931086E+02 -0.39818736044E+02  0.38792248401E+02  0.62500000452E+02  0.99999966052E+01 0.  0.
    3000022    2    5    5    0    0 -0.23866671524E+02 -0.30447815477E+02  0.27249069043E+02  0.47320838329E+02  0.24999883738E+00 0.  0.
        -13    1    4    4    0    0  0.10593828355E+02  0.17825449099E+02 -0.17531873065E+02  0.27154252576E+02  0.10500000000E+00 0.  1.
         13    1    4    4    0    0  0.11575503776E+02  0.19470414098E+02 -0.18966657666E+02  0.29543771608E+02  0.10500000000E+00 0. -1.
    3000001    1    5    5    0    0 -0.28892595613E+01 -0.93709205664E+01  0.11543179358E+02  0.15179162123E+02  0.10000000000E+01 0. -1.
        -13    1    6    6    0    0 -0.12114386944E+02 -0.15345388321E+02  0.13763286403E+02  0.23909796974E+02  0.10500000000E+00 0.  1.
         13    1    6    6    0    0 -0.11752284581E+02 -0.15102427156E+02  0.13485782640E+02  0.23411041354E+02  0.10500000000E+00 0. -1.
</event>
<event>
11    0  0.3396091E-009  0.9118800E+02  0.7816531E-02  0.1126479E+00
         25   -1    0    0    0    0  0.00000000000E+00  0.00000000000E+00  0.99999998245E-14  0.12500000000E+03  0.12500000000E+03 0.  0.
    3000001    1    3    3    0    0 -0.32515709762E+02  0.27748957688E+02  0.12337520671E+02  0.44502701608E+02  0.10000000000E+01 0.  1.
    1000022    2    1    0    0    0 -0.47877711810E+02  0.37101621338E+02  0.11723661665E+02  0.62499999946E+02  0.10000007817E+02 0.  0.
    3000022    2    3    3    0    0 -0.15362002048E+02  0.93526636499E+01 -0.61385900548E+00  0.17997298338E+02  0.25000064792E+00 0.  0.
    1000022    2    1    0    0    0  0.47877711810E+02 -0.37101621338E+02 -0.11723661665E+02  0.62500000054E+02  0.10000008493E+02 0.  0.
    3000022    2    5    5    0    0  0.24003168027E+02 -0.13972912701E+02 -0.87071719164E+01  0.29107931916E+02  0.24998604811E+00 0.  0.
        -13    1    4    4    0    0 -0.97186367558E+01  0.59207792735E+01 -0.32931464519E+00  0.11385385401E+02  0.10500000000E+00 0.  1.
         13    1    4    4    0    0 -0.56433652917E+01  0.34318843764E+01 -0.28454436029E+00  0.66119129367E+01  0.10500000000E+00 0. -1.
    3000001    1    5    5    0    0  0.23874543784E+02 -0.23128708637E+02 -0.30164897489E+01  0.33392068138E+02  0.10000000000E+01 0.  1.
        -13    1    6    6    0    0  0.18167180869E+02 -0.10550384799E+02 -0.65899559066E+01  0.22018074938E+02  0.10500000000E+00 0.  1.
         13    1    6    6    0    0  0.58359871576E+01 -0.34225279018E+01 -0.21172160098E+01  0.70898569784E+01  0.10500000000E+00 0. -1.
</event>
<event>
11    0  0.3396091E-009  0.9118800E+02  0.7816531E-02  0.1126479E+00
         25   -1    0    0    0    0  0.00000000000E+00  0.00000000000E+00  0.99999998245E-14  0.12500000000E+03  0.12500000000E+03 0.  0.
    3000001    1    3    3    0    0 -0.51380327237E+02 -0.23400979023E+02  0.11837022578E+02  0.57694531367E+02  0.10000000000E+01 0. -1.
    1000022    2    1    0    0    0 -0.53796048651E+02 -0.27493717141E+02  0.12503222540E+02  0.62500000847E+02  0.10000009965E+02 0.  0.
    3000022    2    3    3    0    0 -0.24157214142E+01 -0.40927381181E+01  0.66619996172E+00  0.48054694796E+01  0.24999855297E+00 0.  0.
    1000022    2    1    0    0    0  0.53796048651E+02  0.27493717141E+02 -0.12503222540E+02  0.62499999153E+02  0.99999993776E+01 0.  0.
    3000022    2    5    5    0    0  0.52769855517E+02  0.25134358004E+02 -0.11557712845E+02  0.59582185508E+02  0.25000023515E+00 0.  0.
        -13    1    4    4    0    0 -0.11353725714E+01 -0.19895485005E+01  0.38045593448E+00  0.23244667840E+01  0.10500000000E+00 0.  1.
         13    1    4    4    0    0 -0.12803488428E+01 -0.21031896176E+01  0.28574402723E+00  0.24810026956E+01  0.10500000000E+00 0. -1.
    3000001    1    5    5    0    0  0.10261931341E+01  0.23593591370E+01 -0.94550969475E+00  0.29178136453E+01  0.10000000000E+01 0.  1.
        -13    1    6    6    0    0  0.16284480519E+02  0.78095197550E+01 -0.35748732127E+01  0.18410965430E+02  0.10500000000E+00 0. -1.
         13    1    6    6    0    0  0.36485374998E+02  0.17324838249E+02 -0.79828396320E+01  0.41171220078E+02  0.10500000000E+00 0.  1.
</event>
<event>
11    0  0.3396091E-009  0.9118800E+02  0.7816531E-02  0.1126479E+00
         25   -1    0    0    0    0  0.00000000000E+00  0.00000000000E+00  0.99999998245E-14  0.12500000000E+03  0.12500000000E+03 0.  0.
    3000001    1    3    3    0    0  0.82703544183E+01  0.39862729675E+02 -0.23944209802E+01  0.40794230366E+02  0.10000000000E+01 0. -1.
    1000022    2    1    0    0    0  0.19284629425E+02  0.58401524236E+02 -0.48595320644E+01  0.62499999644E+02  0.99999969186E+01 0.  0.
    3000022    2    3    3    0    0  0.11014275007E+02  0.18538794562E+02 -0.24651110842E+01  0.21705769278E+02  0.24997910821E+00 0.  0.
    1000022    2    1    0    0    0 -0.19284629425E+02 -0.58401524236E+02  0.48595320644E+01  0.62500000356E+02  0.10000001374E+02 0.  0.
    3000022    2    5    5    0    0 -0.14264535310E+02 -0.51908346547E+02  0.24545323410E+01  0.53889151089E+02  0.24993459753E+00 0.  0.
        -13    1    4    4    0    0  0.49270158858E+01  0.84216958998E+01 -0.11269691580E+01  0.98225013031E+01  0.10500000000E+00 0. -1.
         13    1    4    4    0    0  0.60872591207E+01  0.10117098662E+02 -0.13381419262E+01  0.11883267975E+02  0.10500000000E+00 0.  1.
    3000001    1    5    5    0    0 -0.50200941143E+01 -0.64931776898E+01  0.24049997234E+01  0.86108492669E+01  0.10000000000E+01 0. -1.
        -13    1    6    6    0    0 -0.67556657095E+01 -0.24338318532E+02  0.11691271560E+01  0.25285779629E+02  0.10500000000E+00 0.  1.
         13    1    6    6    0    0 -0.75088696010E+01 -0.27570028015E+02  0.12854051850E+01  0.28603371460E+02  0.10500000000E+00 0. -1.
</event>
<event>
11    0  0.3396091E-009  0.9118800E+02  0.7816531E-02  0.1126479E+00
         25   -1    0    0    0    0  0.00000000000E+00  0.00000000000E+00  0.99999998245E-14  0.12500000000E+03  0.12500000000E+03 0.  0.
    3000001    1    3    3    0    0 -0.10657154589E+02 -0.15856633278E+02  0.31368488038E+01  0.19386788885E+02  0.10000000000E+01 0. -1.
    1000022    2    1    0    0    0 -0.44174854773E+02 -0.42970976108E+02  0.28856208009E+01  0.62500005284E+02  0.10000063560E+02 0.  0.
    3000022    2    3    3    0    0 -0.33517700184E+02 -0.27114342830E+02 -0.25122800290E+00  0.43113216399E+02  0.25000010963E+00 0.  0.
    1000022    2    1    0    0    0  0.44174854773E+02  0.42970976108E+02 -0.28856208009E+01  0.62499994716E+02  0.99999975099E+01 0.  0.
    3000022    2    5    5    0    0  0.16028308273E+02  0.21172953587E+02  0.15963777533E+01  0.26604727943E+02  0.24999452393E+00 0.  0.
        -13    1    4    4    0    0 -0.22841666028E+02 -0.18414765436E+02 -0.18334564836E+00  0.29340925916E+02  0.10500000000E+00 0. -1.
         13    1    4    4    0    0 -0.10676034156E+02 -0.86995773943E+01 -0.67882354543E-01  0.13772290483E+02  0.10500000000E+00 0.  1.
    3000001    1    5    5    0    0  0.28146546500E+02  0.21798022520E+02 -0.44819985542E+01  0.35895266773E+02  0.10000000000E+01 0. -1.
        -13    1    6    6    0    0  0.45857042072E+01  0.61269148740E+01  0.46676947183E+00  0.76678985184E+01  0.10500000000E+00 0. -1.
         13    1    6    6    0    0  0.11442604066E+02  0.15046038713E+02  0.11296082815E+01  0.18936829424E+02  0.10500000000E+00 0.  1.
</event>
<event>
11    0  0.3396091E-009  0.9118800E+02  0.7816531E-02  0.1126479E+00
         25   -1    0    0    0    0  0.00000000000E+00  0.00000000000E+00  0.99999998245E-14  0.12500000000E+03  0.12500000000E+03 0.  0.
    3000001    1    3    3    0    0 -0.48127191301E+01 -0.10576524735E+02  0.35471512859E+02  0.37339702267E+02  0.10000000000E+01 0.  1.
    1000022    2    1    0    0    0 -0.13199167045E+02 -0.11405965311E+02  0.59177157932E+02  0.62500000266E+02  0.99999978481E+01 0.  0.
    3000022    2    3    3    0    0 -0.83864479145E+01 -0.82944057641E+00  0.23705645074E+02  0.25160297999E+02  0.25001352549E+00 0.  0.
    1000022    2    1    0    0    0  0.13199167045E+02  0.11405965311E+02 -0.59177157932E+02  0.62499999734E+02  0.99999945214E+01 0.  0.
    3000022    2    5    5    0    0  0.82374499012E+01  0.87693907733E+01 -0.23842185117E+02  0.26707116836E+02  0.25000621261E+00 0.  0.
        -13    1    4    4    0    0 -0.38575301356E+01 -0.44003955608E+00  0.11020536342E+02  0.11684922756E+02  0.10500000000E+00 0.  1.
         13    1    4    4    0    0 -0.45289177789E+01 -0.38940102033E+00  0.12685108732E+02  0.13475375243E+02  0.10500000000E+00 0. -1.
    3000001    1    5    5    0    0  0.49617171434E+01  0.26365745377E+01 -0.35334972815E+02  0.35792882898E+02  0.10000000000E+01 0.  1.
        -13    1    6    6    0    0  0.42147303635E+01  0.45725744786E+01 -0.12397547448E+02  0.13870205374E+02  0.10500000000E+00 0.  1.
         13    1    6    6    0    0  0.40227195378E+01  0.41968162947E+01 -0.11444637669E+02  0.12836911461E+02  0.10500000000E+00 0. -1.
</event>
<event>
11    0  0.3396091E-009  0.9118800E+02  0.7816531E-02  0.1126479E+00
         25   -1    0    0    0    0  0.00000000000E+00  0.00000000000E+00  0.99999998245E-14  0.12500000000E+03  0.12500000000E+03 0.  0.
    3000001    1    3    3    0    0  0.85976349784E+01  0.18901775693E+02  0.13491271121E+01  0.20833064957E+02  0.10000000000E+01 0. -1.
    1000022    2    1    0    0    0  0.23649002596E+02  0.54204598195E+02  0.17573740451E+02  0.62500000542E+02  0.99999962487E+01 0.  0.
    3000022    2    3    3    0    0  0.15051367618E+02  0.35302822503E+02  0.16224613338E+02  0.41666935584E+02  0.24999834759E+00 0.  0.
    1000022    2    1    0    0    0 -0.23649002596E+02 -0.54204598195E+02 -0.17573740451E+02  0.62499999458E+02  0.99999894798E+01 0.  0.
    3000022    2    5    5    0    0 -0.77794360045E+00 -0.90912395853E+01 -0.48435566268E+01  0.10333362181E+02  0.24999945106E+00 0.  0.
        -13    1    4    4    0    0  0.55597604342E+01  0.13193170980E+02  0.60535920136E+01  0.15544378337E+02  0.10500000000E+00 0. -1.
         13    1    4    4    0    0  0.94916071834E+01  0.22109651522E+02  0.10171021325E+02  0.26122557248E+02  0.10500000000E+00 0.  1.
    3000001    1    5    5    0    0 -0.22871058996E+02 -0.45113358610E+02 -0.12730183824E+02  0.52166637277E+02  0.10000000000E+01 0.  1.
        -13    1    6    6    0    0 -0.25483004966E+00 -0.25254379120E+01 -0.13411257503E+01  0.28727022609E+01  0.10500000000E+00 0. -1.
         13    1    6    6    0    0 -0.52311355078E+00 -0.65658016733E+01 -0.35024308764E+01  0.74606599201E+01  0.10500000000E+00 0.  1.
</event>
<event>
11    0  0.3396091E-009  0.9118800E+02  0.7816531E-02  0.1126479E+00
         25   -1    0    0    0    0  0.00000000000E+00  0.00000000000E+00  0.99999998245E-14  0.12500000000E+03  0.12500000000E+03 0.  0.
    3000001    1    3    3    0    0 -0.41212185754E+01 -0.22967837775E+02  0.11094163231E+02  0.25857039126E+02  0.10000000000E+01 0.  1.
    1000022    2    1    0    0    0  0.27512937397E+00 -0.57819105523E+02  0.21520351787E+02  0.62500000856E+02  0.99999953179E+01 0.  0.
    3000022    2    3    3    0    0  0.43963479494E+01 -0.34851267748E+02  0.10426188556E+02  0.36642961730E+02  0.24999516227E+00 0.  0.
    1000022    2    1    0    0    0 -0.27512937397E+00  0.57819105523E+02 -0.21520351787E+02  0.62499999144E+02  0.99999846169E+01 0.  0.
    3000022    2    5    5    0    0  0.20897492343E+01  0.22964228798E+02 -0.13210471601E+02  0.26576341326E+02  0.25000439114E+00 0.  0.
        -13    1    4    4    0    0  0.16901896856E+01 -0.13816719422E+02  0.40955624955E+01  0.14510104545E+02  0.10500000000E+00 0. -1.
         13    1    4    4    0    0  0.27061582638E+01 -0.21034548326E+02  0.63306260608E+01  0.22132857184E+02  0.10500000000E+00 0.  1.
    3000001    1    5    5    0    0 -0.23648786083E+01  0.34854876724E+02 -0.83098801859E+01  0.35923657818E+02  0.10000000000E+01 0.  1.
        -13    1    6    6    0    0  0.15224445368E+01  0.16950717119E+02 -0.97201184859E+01  0.19599397353E+02  0.10500000000E+00 0. -1.
         13    1    6    6    0    0  0.56730469751E+00  0.60135116795E+01 -0.34903531154E+01  0.69769439735E+01  0.10500000000E+00 0.  1.
</event>
<event>
11    0  0.3396091E-009  0.9118800E+02  0.7816531E-02  0.1126479E+00
         25   -1    0    0    0    0  0.00000000000E+00  0.00000000000E+00  0.99999998245E-14  0.12500000000E+03  0.12500000000E+03 0.  0.
    3000001    1    3    3    0    0  0.86878695002E+01  0.11813073324E+02  0.14021520064E+02  0.20313315896E+02  0.10000000000E+01 0.  1.
    1000022    2    1    0    0    0  0.27000027723E+02  0.45241626738E+02  0.32100524164E+02  0.62499998860E+02  0.99999959476E+01 0.  0.
    3000022    2    3    3    0    0  0.18312158223E+02  0.33428553415E+02  0.18079004100E+02  0.42186682964E+02  0.25001614885E+00 0.  0.
    1000022    2    1    0    0    0 -0.27000027723E+02 -0.45241626738E+02 -0.32100524164E+02  0.62500001140E+02  0.10000010194E+02 0.  0.
    3000022    2    5    5    0    0 -0.10125034565E+02 -0.19885489366E+02 -0.82147182292E+01  0.23780099000E+02  0.25000121769E+00 0.  0.
        -13    1    4    4    0    0  0.11168695006E+02  0.20266395599E+02  0.10952066292E+02  0.25601275746E+02  0.10500000000E+00 0. -1.
         13    1    4    4    0    0  0.71434632163E+01  0.13162157816E+02  0.71269378080E+01  0.16585407218E+02  0.10500000000E+00 0.  1.
    3000001    1    5    5    0    0 -0.16874993158E+02 -0.25356137373E+02 -0.23885805935E+02  0.38719902140E+02  0.10000000000E+01 0. -1.
        -13    1    6    6    0    0 -0.60877268801E+01 -0.11958990739E+02 -0.50069619341E+01  0.14323357528E+02  0.10500000000E+00 0. -1.
         13    1    6    6    0    0 -0.40373076845E+01 -0.79264986266E+01 -0.32077562951E+01  0.94567414718E+01  0.10500000000E+00 0.  1.
</event>
<event>
11    0  0.3396091E-009  0.9118800E+02  0.7816531E-02  0.1126479E+00
         25   -1    0    0    0    0  0.00000000000E+00  0.00000000000E+00  0.99999998245E-14  0.12500000000E+03  0.12500000000E+03 0.  0.
    3000001    1    3    3    0    0  0.18910594821E+01  0.94757975985E+00  0.37181177765E+01  0.43929959215E+01  0.10000000000E+01 0.  1.
    1000022    2    1    0    0    0  0.48042784551E+02 -0.79901745340E+01  0.37872125692E+02  0.62500000276E+02  0.10000004678E+02 0.  0.
    3000022    2    3    3    0    0  0.46151725069E+02 -0.89377542938E+01  0.34154007916E+02  0.58107004355E+02  0.25003938009E+00 0.  0.
    1000022    2    1    0    0    0 -0.48042784551E+02  0.79901745340E+01 -0.37872125692E+02  0.62499999724E+02  0.10000001223E+02 0.  0.
    3000022    2    5    5    0    0 -0.19024478348E+02  0.62533819579E+01 -0.20301762060E+02  0.28517706959E+02  0.25001026135E+00 0.  0.
        -13    1    4    4    0    0  0.32031303010E+02 -0.62178238978E+01  0.23762070453E+02  0.40364746051E+02  0.10500000000E+00 0. -1.
         13    1    4    4    0    0  0.14120422059E+02 -0.27199303960E+01  0.10391937463E+02  0.17742258304E+02  0.10500000000E+00 0.  1.
    3000001    1    5    5    0    0 -0.29018306203E+02  0.17367925761E+01 -0.17570363632E+02  0.33982292765E+02  0.10000000000E+01 0.  1.
        -13    1    6    6    0    0 -0.10201681469E+02  0.33569751914E+01 -0.10983249398E+02  0.15361848182E+02  0.10500000000E+00 0. -1.
         13    1    6    6    0    0 -0.88227968791E+01  0.28964067664E+01 -0.93185126624E+01  0.13155858777E+02  0.10500000000E+00 0.  1.
</event>
<event>
11    0  0.3396091E-009  0.9118800E+02  0.7816531E-02  0.1126479E+00
         25   -1    0    0    0    0  0.00000000000E+00  0.00000000000E+00  0.99999998245E-14  0.12500000000E+03  0.12500000000E+03 0.  0.
    3000001    1    3    3    0    0 -0.20297390136E+02 -0.18744733889E+02  0.64987934207E+01  0.28400412159E+02  0.10000000000E+01 0.  1.
    1000022    2    1    0    0    0 -0.50927674278E+02 -0.32875736159E+02  0.11480755773E+02  0.62500001280E+02  0.10000018580E+02 0.  0.
    3000022    2    3    3    0    0 -0.30630284142E+02 -0.14131002270E+02  0.49819623524E+01  0.34099589121E+02  0.24999515857E+00 0.  0.
    1000022    2    1    0    0    0  0.50927674278E+02  0.32875736159E+02 -0.11480755773E+02  0.62499998720E+02  0.10000002578E+02 0.  0.
    3000022    2    5    5    0    0  0.62825130317E+01  0.84089311562E+01 -0.14087150454E+01  0.10593727672E+02  0.24998944178E+00 0.  0.
        -13    1    4    4    0    0 -0.16044998656E+02 -0.73706635112E+01  0.25458780473E+01  0.17839876191E+02  0.10500000000E+00 0.  1.
         13    1    4    4    0    0 -0.14585285485E+02 -0.67603387586E+01  0.24360843051E+01  0.16259712930E+02  0.10500000000E+00 0. -1.
    3000001    1    5    5    0    0  0.44645161246E+02  0.24466805002E+02 -0.10072040728E+02  0.51906271048E+02  0.10000000000E+01 0.  1.
        -13    1    6    6    0    0  0.36528103628E+01  0.49594275035E+01 -0.87555831476E+00  0.62222642239E+01  0.10500000000E+00 0. -1.
         13    1    6    6    0    0  0.26297026689E+01  0.34495036527E+01 -0.53315673061E+00  0.43714634479E+01  0.10500000000E+00 0.  1.
</event>
<event>
11    0  0.3396091E-009  0.9118800E+02  0.7816531E-02  0.1126479E+00
         25   -1    0    0    0    0  0.00000000000E+00  0.00000000000E+00  0.99999998245E-14  0.12500000000E+03  0.12500000000E+03 0.  0.
    3000001    1    3    3    0    0 -0.13014041236E+01 -0.58781832332E+00 -0.26342968001E+01  0.31589084674E+01  0.10000000000E+01 0.  1.
    1000022    2    1    0    0    0 -0.51341529101E+02 -0.23045606097E+02 -0.25282374821E+02  0.62499993026E+02  0.99999040380E+01 0.  0.
    3000022    2    3    3    0    0 -0.50040124978E+02 -0.22457787774E+02 -0.22648078021E+02  0.59341084558E+02  0.25007804513E+00 0.  0.
    1000022    2    1    0    0    0  0.51341529101E+02  0.23045606097E+02  0.25282374821E+02  0.62500006974E+02  0.99999912191E+01 0.  0.
    3000022    2    5    5    0    0  0.14042545708E+02  0.21057075536E+01  0.42538252606E+01  0.14825135084E+02  0.25001328259E+00 0.  0.
        -13    1    4    4    0    0 -0.37987369366E+02 -0.17064457185E+02 -0.17210735999E+02  0.45060585760E+02  0.10500000000E+00 0.  1.
         13    1    4    4    0    0 -0.12052755611E+02 -0.53933305892E+01 -0.54373420211E+01  0.14280498798E+02  0.10500000000E+00 0. -1.
    3000001    1    5    5    0    0  0.37298983393E+02  0.20939898544E+02  0.21028549560E+02  0.47674871891E+02  0.10000000000E+01 0. -1.
        -13    1    6    6    0    0  0.95464974572E+01  0.14827604335E+01  0.28947772250E+01  0.10085878860E+02  0.10500000000E+00 0.  1.
         13    1    6    6    0    0  0.44960482507E+01  0.62294712002E+00  0.13590480356E+01  0.47392562233E+01  0.10500000000E+00 0. -1.
</event>
<event>
11    0  0.3396091E-009  0.9118800E+02  0.7816531E-02  0.1126479E+00
         25   -1    0    0    0    0  0.00000000000E+00  0.00000000000E+00  0.99999998245E-14  0.12500000000E+03  0.12500000000E+03 0.  0.
    3000001    1    3    3    0    0 -0.37801275942E+02  0.35818730743E+01  0.38199399898E+02  0.53869847133E+02  0.10000000000E+01 0.  1.
    1000022    2    1    0    0    0 -0.40682535681E+02  0.28216592550E+01  0.46294927657E+02  0.62500006320E+02  0.99999996422E+01 0.  0.
    3000022    2    3    3    0    0 -0.28812597394E+01 -0.76021381933E+00  0.80955277590E+01  0.86301591872E+01  0.24999032728E+00 0.  0.
    1000022    2    1    0    0    0  0.40682535681E+02 -0.28216592550E+01 -0.46294927657E+02  0.62499993680E+02  0.99999206401E+01 0.  0.
    3000022    2    5    5    0    0  0.27466289828E+02  0.24113740843E+01 -0.33093385969E+02  0.43074894058E+02  0.25000261999E+00 0.  0.
        -13    1    4    4    0    0 -0.89068276696E+00 -0.28107898049E+00  0.26060064881E+01  0.27703097301E+01  0.10500000000E+00 0.  1.
         13    1    4    4    0    0 -0.19905769724E+01 -0.47913483884E+00  0.54895212709E+01  0.58598494571E+01  0.10500000000E+00 0. -1.
    3000001    1    5    5    0    0  0.13216245853E+02 -0.52330333393E+01 -0.13201541687E+02  0.19425099621E+02  0.10000000000E+01 0.  1.
        -13    1    6    6    0    0  0.14913897735E+02  0.12449497816E+01 -0.17932413125E+02  0.23357155458E+02  0.10500000000E+00 0.  1.
         13    1    6    6    0    0  0.12552392093E+02  0.11664243027E+01 -0.15160972844E+02  0.19717738600E+02  0.10500000000E+00 0. -1.
</event>
<event>
11    0  0.3396091E-009  0.9118800E+02  0.7816531E-02  0.1126479E+00
         25   -1    0    0    0    0  0.00000000000E+00  0.00000000000E+00  0.99999998245E-14  0.12500000000E+03  0.12500000000E+03 0.  0.
    3000001    1    3    3    0    0 -0.55777378078E+02  0.48381373686E+01 -0.13880790293E+02  0.57690552239E+02  0.10000000000E+01 0.  1.
    1000022    2    1    0    0    0 -0.60198165068E+02  0.57323353603E+01 -0.12229929297E+02  0.62500000338E+02  0.10000006271E+02 0.  0.
    3000022    2    3    3    0    0 -0.44207869902E+01  0.89419799170E+00  0.16508609968E+01  0.48094480995E+01  0.25000265881E+00 0.  0.
    1000022    2    1    0    0    0  0.60198165068E+02 -0.57323353603E+01  0.12229929297E+02  0.62499999662E+02  0.10000002040E+02 0.  0.
    3000022    2    5    5    0    0  0.40119700329E+02  0.80072053632E+00  0.88579263055E+01  0.41094487058E+02  0.25000054818E+00 0.  0.
        -13    1    4    4    0    0 -0.33465216065E+01  0.67255489384E+00  0.12249300118E+01  0.36280870279E+01  0.10500000000E+00 0.  1.
         13    1    4    4    0    0 -0.10742653837E+01  0.22164309786E+00  0.42593098501E+00  0.11813610716E+01  0.10500000000E+00 0. -1.
    3000001    1    5    5    0    0  0.20078464740E+02 -0.65330558966E+01  0.33720029911E+01  0.21405512603E+02  0.10000000000E+01 0. -1.
        -13    1    6    6    0    0  0.22323400897E+02  0.44392725779E+00  0.48607821971E+01  0.22851029027E+02  0.10500000000E+00 0.  1.
         13    1    6    6    0    0  0.17796299432E+02  0.35679327853E+00  0.39971441084E+01  0.18243458031E+02  0.10500000000E+00 0. -1.
</event>
<event>
11    0  0.3396091E-009  0.9118800E+02  0.7816531E-02  0.1126479E+00
         25   -1    0    0    0    0  0.00000000000E+00  0.00000000000E+00  0.99999998245E-14  0.12500000000E+03  0.12500000000E+03 0.  0.
    3000001    1    3    3    0    0  0.28773459982E+02  0.43145813778E+02  0.16875868756E+02  0.54546019032E+02  0.10000000000E+01 0. -1.
    1000022    2    1    0    0    0  0.30460951207E+02  0.50914612943E+02  0.16913977250E+02  0.62500000352E+02  0.10000002901E+02 0.  0.
    3000022    2    3    3    0    0  0.16874912246E+01  0.77687991646E+01  0.38108494250E-01  0.79539813203E+01  0.24999898626E+00 0.  0.
    1000022    2    1    0    0    0 -0.30460951207E+02 -0.50914612943E+02 -0.16913977250E+02  0.62499999648E+02  0.99999985040E+01 0.  0.
    3000022    2    5    5    0    0 -0.58395483888E+01 -0.12495624214E+02  0.83527400700E-01  0.13795304433E+02  0.24999537549E+00 0.  0.
        -13    1    4    4    0    0  0.49547626176E+00  0.21875351587E+01 -0.24481069886E-01  0.22455358201E+01  0.10500000000E+00 0. -1.
         13    1    4    4    0    0  0.11920149628E+01  0.55812640059E+01  0.62589564137E-01  0.57084455002E+01  0.10500000000E+00 0.  1.
    3000001    1    5    5    0    0 -0.24621402818E+02 -0.38418988729E+02 -0.16997504651E+02  0.48704695215E+02  0.10000000000E+01 0. -1.
        -13    1    6    6    0    0 -0.24540091591E+01 -0.53382302852E+01  0.89413963485E-01  0.58768940255E+01  0.10500000000E+00 0. -1.
         13    1    6    6    0    0 -0.33855392298E+01 -0.71573939287E+01 -0.58865627846E-02  0.79184104073E+01  0.10500000000E+00 0.  1.
</event>
<event>
11    0  0.3396091E-009  0.9118800E+02  0.7816531E-02  0.1126479E+00
         25   -1    0    0    0    0  0.00000000000E+00  0.00000000000E+00  0.99999998245E-14  0.12500000000E+03  0.12500000000E+03 0.  0.
    3000001    1    3    3    0    0 -0.48035461670E+02  0.20099358956E+02 -0.16494152664E+02  0.54630091345E+02  0.10000000000E+01 0. -1.
    1000022    2    1    0    0    0 -0.52459228607E+02  0.24614036572E+02 -0.21176130918E+02  0.62499999065E+02  0.99999950017E+01 0.  0.
    3000022    2    3    3    0    0 -0.44237669374E+01  0.45146776166E+01 -0.46819782538E+01  0.78699077200E+01  0.24999850721E+00 0.  0.
    1000022    2    1    0    0    0  0.52459228607E+02 -0.24614036572E+02  0.21176130918E+02  0.62500000935E+02  0.10000006689E+02 0.  0.
    3000022    2    5    5    0    0  0.36514576109E+02 -0.21530941590E+02  0.17224022846E+02  0.45756149043E+02  0.24999618722E+00 0.  0.
        -13    1    4    4    0    0 -0.17486161679E+01  0.18652385623E+01 -0.19301372513E+01  0.32051877021E+01  0.10500000000E+00 0.  1.
         13    1    4    4    0    0 -0.26751507694E+01  0.26494390543E+01 -0.27518410026E+01  0.46647200178E+01  0.10500000000E+00 0. -1.
    3000001    1    5    5    0    0  0.15944652498E+02 -0.30830949820E+01  0.39521080722E+01  0.16743851892E+02  0.10000000000E+01 0.  1.
        -13    1    6    6    0    0  0.18211953795E+02 -0.10699297216E+02  0.85191337089E+01  0.22775796059E+02  0.10500000000E+00 0. -1.
         13    1    6    6    0    0  0.18302622314E+02 -0.10831644374E+02  0.87048891367E+01  0.22980352984E+02  0.10500000000E+00 0.  1.
</event>
<event>
11    0  0.3396091E-009  0.9118800E+02  0.7816531E-02  0.1126479E+00
         25   -1    0    0    0    0  0.00000000000E+00  0.00000000000E+00  0.99999998245E-14  0.12500000000E+03  0.12500000000E+03 0.  0.
    3000001    1    3    3    0    0  0.87543481687E+00  0.16993932289E+02  0.40815055766E+02  0.44231537368E+02  0.10000000000E+01 0.  1.
    1000022    2    1    0    0    0 -0.19105209095E+01  0.18585353264E+02  0.58797826195E+02  0.62499999338E+02  0.10000005295E+02 0.  0.
    3000022    2    3    3    0    0 -0.27859557264E+01  0.15914209756E+01  0.17982770429E+02  0.18268461970E+02  0.25000085037E+00 0.  0.
    1000022    2    1    0    0    0  0.19105209095E+01 -0.18585353264E+02 -0.58797826195E+02  0.62500000662E+02  0.10000013567E+02 0.  0.
    3000022    2    5    5    0    0  0.25215384135E+01 -0.18781948610E+02 -0.47521928214E+02  0.51161664478E+02  0.25000301599E+00 0.  0.
        -13    1    4    4    0    0 -0.21501396223E+01  0.12196183118E+01  0.13821613408E+02  0.14041317296E+02  0.10500000000E+00 0. -1.
         13    1    4    4    0    0 -0.63581610413E+00  0.37180266383E+00  0.41611570211E+01  0.42271446739E+01  0.10500000000E+00 0.  1.
    3000001    1    5    5    0    0 -0.61101750396E+00  0.19659534530E+00 -0.11275897981E+02  0.11338336183E+02  0.10000000000E+01 0.  1.
        -13    1    6    6    0    0  0.11998154785E+01 -0.85301639884E+01 -0.21707537590E+02  0.23354474262E+02  0.10500000000E+00 0.  1.
         13    1    6    6    0    0  0.13217229350E+01 -0.10251784621E+02 -0.25814390624E+02  0.27807190216E+02  0.10500000000E+00 0. -1.
</event>
<event>
11    0  0.3396091E-009  0.9118800E+02  0.7816531E-02  0.1126479E+00
         25   -1    0    0    0    0  0.00000000000E+00  0.00000000000E+00  0.99999998245E-14  0.12500000000E+03  0.12500000000E+03 0.  0.
    3000001    1    3    3    0    0  0.55600877143E+01 -0.63593683212E+01 -0.28615169662E+02  0.29852706337E+02  0.10000000000E+01 0.  1.
    1000022    2    1    0    0    0  0.14036545801E+01 -0.14778160826E+02 -0.59882265203E+02  0.62499999752E+02  0.99999999802E+01 0.  0.
    3000022    2    3    3    0    0 -0.41564331342E+01 -0.84187925045E+01 -0.31267095541E+02  0.32647293416E+02  0.25000031174E+00 0.  0.
    1000022    2    1    0    0    0 -0.14036545801E+01  0.14778160826E+02  0.59882265203E+02  0.62500000248E+02  0.10000003077E+02 0.  0.
    3000022    2    5    5    0    0 -0.11942727792E+01 -0.88033943848E+00  0.18550204516E+01  0.23884904954E+01  0.25000194494E+00 0.  0.
        -13    1    4    4    0    0 -0.13482272027E+01 -0.27206751941E+01 -0.99374503482E+01  0.10391522243E+02  0.10500000000E+00 0. -1.
         13    1    4    4    0    0 -0.28082059315E+01 -0.56981173104E+01 -0.21329645193E+02  0.22255771173E+02  0.10500000000E+00 0.  1.
    3000001    1    5    5    0    0 -0.20938180089E+00  0.15658500264E+02  0.58027244751E+02  0.60111509752E+02  0.10000000000E+01 0. -1.
        -13    1    6    6    0    0 -0.82331348740E+00 -0.57469295842E+00  0.11742828920E+01  0.15485743138E+01  0.10500000000E+00 0. -1.
         13    1    6    6    0    0 -0.37095929176E+00 -0.30564648006E+00  0.68073755962E+00  0.83991618153E+00  0.10500000000E+00 0.  1.
</event>
<event>
11    0  0.3396091E-009  0.9118800E+02  0.7816531E-02  0.1126479E+00
         25   -1    0    0    0    0  0.00000000000E+00  0.00000000000E+00  0.99999998245E-14  0.12500000000E+03  0.12500000000E+03 0.  0.
    3000001    1    3    3    0    0 -0.73758508255E+01  0.28228214916E+01 -0.15401634329E+01  0.81082427179E+01  0.10000000000E+01 0.  1.
    1000022    2    1    0    0    0 -0.59123664254E+02  0.13403644654E+02  0.11444856484E+02  0.62500000130E+02  0.99999955714E+01 0.  0.
    3000022    2    3    3    0    0 -0.51747813429E+02  0.10580823162E+02  0.12985019917E+02  0.54391757412E+02  0.25003730571E+00 0.  0.
    1000022    2    1    0    0    0  0.59123664254E+02 -0.13403644654E+02 -0.11444856484E+02  0.62499999870E+02  0.99999939508E+01 0.  0.
    3000022    2    5    5    0    0  0.51194466650E+02 -0.86399236399E+01 -0.77731900450E+01  0.52497682790E+02  0.25003745154E+00 0.  0.
        -13    1    4    4    0    0 -0.21402414775E+02  0.43930347367E+01  0.53073270484E+01  0.22484235762E+02  0.10500000000E+00 0. -1.
         13    1    4    4    0    0 -0.30345398653E+02  0.61877884254E+01  0.76776928687E+01  0.31907521649E+02  0.10500000000E+00 0.  1.
    3000001    1    5    5    0    0  0.79291976041E+01 -0.47637210138E+01 -0.36716664392E+01  0.10002317081E+02  0.10000000000E+01 0.  1.
        -13    1    6    6    0    0  0.34971443814E+02 -0.58580408981E+01 -0.52834056851E+01  0.35850298831E+02  0.10500000000E+00 0. -1.
         13    1    6    6    0    0  0.16223022836E+02 -0.27818827418E+01 -0.24897843600E+01  0.16647383959E+02  0.10500000000E+00 0.  1.
</event>
<event>
11    0  0.3396091E-009  0.9118800E+02  0.7816531E-02  0.1126479E+00
         25   -1    0    0    0    0  0.00000000000E+00  0.00000000000E+00  0.99999998245E-14  0.12500000000E+03  0.12500000000E+03 0.  0.
    3000001    1    3    3    0    0  0.38009034270E+01  0.73549075871E+01 -0.23562995658E+01  0.86656609743E+01  0.10000000000E+01 0. -1.
    1000022    2    1    0    0    0  0.41453230783E+01  0.58796609819E+02 -0.18221550068E+02  0.62499999707E+02  0.10000002345E+02 0.  0.
    3000022    2    3    3    0    0  0.34441965127E+00  0.51441702232E+02 -0.15865250502E+02  0.53834338733E+02  0.24999982965E+00 0.  0.
    1000022    2    1    0    0    0 -0.41453230783E+01 -0.58796609819E+02  0.18221550068E+02  0.62500000293E+02  0.10000006004E+02 0.  0.
    3000022    2    5    5    0    0 -0.22697221598E+01 -0.51053698240E+02  0.18792290915E+02  0.54450385169E+02  0.25000913585E+00 0.  0.
        -13    1    4    4    0    0  0.24487195787E+00  0.29313755711E+02 -0.90867992580E+01  0.30690995128E+02  0.10500000000E+00 0. -1.
         13    1    4    4    0    0  0.99547693404E-01  0.22127946521E+02 -0.67784512442E+01  0.23143343605E+02  0.10500000000E+00 0.  1.
    3000001    1    5    5    0    0 -0.18756009185E+01 -0.77429115790E+01 -0.57074084661E+00  0.80496151237E+01  0.10000000000E+01 0. -1.
        -13    1    6    6    0    0 -0.65007988745E+00 -0.14075463802E+02  0.51501471109E+01  0.15002543963E+02  0.10500000000E+00 0. -1.
         13    1    6    6    0    0 -0.16196422724E+01 -0.36978234438E+02  0.13642143804E+02  0.39447841206E+02  0.10500000000E+00 0.  1.
</event>
<event>
11    0  0.3396091E-009  0.9118800E+02  0.7816531E-02  0.1126479E+00
         25   -1    0    0    0    0  0.00000000000E+00  0.00000000000E+00  0.99999998245E-14  0.12500000000E+03  0.12500000000E+03 0.  0.
    3000001    1    3    3    0    0 -0.44127756209E+01 -0.43736305267E+01 -0.12690663383E+02  0.14165245136E+02  0.10000000000E+01 0.  1.
    1000022    2    1    0    0    0 -0.15845539655E+01 -0.20133436844E+02 -0.58295658398E+02  0.62499998818E+02  0.99999986869E+01 0.  0.
    3000022    2    3    3    0    0  0.28282216554E+01 -0.15759806318E+02 -0.45604995015E+02  0.48334753682E+02  0.25002051303E+00 0.  0.
    1000022    2    1    0    0    0  0.15845539655E+01  0.20133436844E+02  0.58295658398E+02  0.62500001182E+02  0.10000013463E+02 0.  0.
    3000022    2    5    5    0    0  0.14461183753E+01  0.18132092550E+02  0.57164482430E+02  0.59989204004E+02  0.25001401152E+00 0.  0.
        -13    1    4    4    0    0  0.21436506253E+01 -0.12033448508E+02 -0.34825757358E+02  0.36908583304E+02  0.10500000000E+00 0.  1.
         13    1    4    4    0    0  0.68457103011E+00 -0.37263578102E+01 -0.10779237657E+02  0.11426170377E+02  0.10500000000E+00 0. -1.
    3000001    1    5    5    0    0  0.13843559026E+00  0.20013442943E+01  0.11311759685E+01  0.25107971780E+01  0.10000000000E+01 0.  1.
        -13    1    6    6    0    0  0.10508776122E+01  0.12864301594E+02  0.40677006934E+02  0.42675807167E+02  0.10500000000E+00 0. -1.
         13    1    6    6    0    0  0.39524076307E+00  0.52677909560E+01  0.16487475496E+02  0.17313396837E+02  0.10500000000E+00 0.  1.
</event>
<event>
11    0  0.3396091E-009  0.9118800E+02  0.7816531E-02  0.1126479E+00
         25   -1    0    0    0    0  0.00000000000E+00  0.00000000000E+00  0.99999998245E-14  0.12500000000E+03  0.12500000000E+03 0.  0.
    3000001    1    3    3    0    0 -0.13213144605E+02  0.15606074147E+02 -0.12560436202E+02  0.24018769707E+02  0.10000000000E+01 0.  1.
    1000022    2    1    0    0    0 -0.23168155686E+02  0.43100556627E+02 -0.37574307543E+02  0.62499999862E+02  0.99999987967E+01 0.  0.
    3000022    2    3    3    0    0 -0.99550110807E+01  0.27494482480E+02 -0.25013871341E+02  0.38481230155E+02  0.25000462605E+00 0.  0.
    1000022    2    1    0    0    0  0.23168155686E+02 -0.43100556627E+02  0.37574307543E+02  0.62500000138E+02  0.10000000527E+02 0.  0.
    3000022    2    5    5    0    0  0.23657655902E+02 -0.42105262125E+02  0.35483479600E+02  0.59930606613E+02  0.25000599106E+00 0.  0.
        -13    1    4    4    0    0 -0.53316821862E+01  0.14597301123E+02 -0.13361316479E+02  0.20494971044E+02  0.10500000000E+00 0. -1.
         13    1    4    4    0    0 -0.46233288944E+01  0.12897181357E+02 -0.11652554862E+02  0.17986259111E+02  0.10500000000E+00 0.  1.
    3000001    1    5    5    0    0 -0.48950021568E+00 -0.99529450177E+00  0.20908279424E+01  0.25693935259E+01  0.10000000000E+01 0.  1.
        -13    1    6    6    0    0  0.12299554141E+02 -0.21813843279E+02  0.18468595704E+02  0.31116279388E+02  0.10500000000E+00 0.  1.
         13    1    6    6    0    0  0.11358101761E+02 -0.20291418846E+02  0.17014883896E+02  0.28814327225E+02  0.10500000000E+00 0. -1.
</event>
<event>
11    0  0.3396091E-009  0.9118800E+02  0.7816531E-02  0.1126479E+00
         25   -1    0    0    0    0  0.00000000000E+00  0.00000000000E+00  0.99999998245E-14  0.12500000000E+03  0.12500000000E+03 0.  0.
    3000001    1    3    3    0    0 -0.29543488713E+00 -0.51510285600E+00  0.68237635682E+00  0.13484250877E+01  0.10000000000E+01 0.  1.
    1000022    2    1    0    0    0  0.29456123848E+02 -0.12723105788E+02  0.52694499770E+02  0.62499991399E+02  0.99998982913E+01 0.  0.
    3000022    2    3    3    0    0  0.29751558735E+02 -0.12208002932E+02  0.52012123413E+02  0.61151566311E+02  0.24999526587E+00 0.  0.
    1000022    2    1    0    0    0 -0.29456123848E+02  0.12723105788E+02 -0.52694499770E+02  0.62500008601E+02  0.10000005807E+02 0.  0.
    3000022    2    5    5    0    0 -0.25904673349E+02  0.70708447582E+01 -0.41662488644E+02  0.49566868036E+02  0.25000001891E+00 0.  0.
        -13    1    4    4    0    0  0.71492017683E+01 -0.29309933644E+01  0.12534558501E+02  0.14725080300E+02  0.10500000000E+00 0.  1.
         13    1    4    4    0    0  0.22602356967E+02 -0.92770095672E+01  0.39477564912E+02  0.46426486011E+02  0.10500000000E+00 0. -1.
    3000001    1    5    5    0    0 -0.35514504990E+01  0.56522610294E+01 -0.11032011126E+02  0.12933140565E+02  0.10000000000E+01 0. -1.
        -13    1    6    6    0    0 -0.93319739941E+01  0.25231778012E+01 -0.14900978147E+02  0.17762385526E+02  0.10500000000E+00 0. -1.
         13    1    6    6    0    0 -0.16572699355E+02  0.45476669570E+01 -0.26761510497E+02  0.31804482510E+02  0.10500000000E+00 0.  1.
</event>
<event>
11    0  0.3396091E-009  0.9118800E+02  0.7816531E-02  0.1126479E+00
         25   -1    0    0    0    0  0.00000000000E+00  0.00000000000E+00  0.99999998245E-14  0.12500000000E+03  0.12500000000E+03 0.  0.
    3000001    1    3    3    0    0  0.44932505244E+02  0.61733170676E+01 -0.19731288277E+02  0.49470835936E+02  0.10000000000E+01 0. -1.
    1000022    2    1    0    0    0  0.54043939627E+02  0.65166769088E+01 -0.29035075260E+02  0.62499999163E+02  0.99999905856E+01 0.  0.
    3000022    2    3    3    0    0  0.91114343826E+01  0.34335984116E+00 -0.93037869832E+01  0.13029163227E+02  0.25001936221E+00 0.  0.
    1000022    2    1    0    0    0 -0.54043939627E+02 -0.65166769088E+01  0.29035075260E+02  0.62500000837E+02  0.10000001046E+02 0.  0.
    3000022    2    5    5    0    0 -0.38272899531E+02 -0.28116718572E+01  0.15586877383E+02  0.41421414683E+02  0.25002116996E+00 0.  0.
        -13    1    4    4    0    0  0.22795751918E+01  0.62308557796E-01 -0.23457613754E+01  0.32732196446E+01  0.10500000000E+00 0.  1.
         13    1    4    4    0    0  0.68318591908E+01  0.28105128337E+00 -0.69580256078E+01  0.97559435825E+01  0.10500000000E+00 0. -1.
    3000001    1    5    5    0    0 -0.15771040096E+02 -0.37050050515E+01  0.13448197877E+02  0.21078586154E+02  0.10000000000E+01 0.  1.
        -13    1    6    6    0    0 -0.22182038553E+02 -0.16158119209E+01  0.89648895629E+01  0.23979865563E+02  0.10500000000E+00 0.  1.
         13    1    6    6    0    0 -0.16090860978E+02 -0.11958599363E+01  0.66219878204E+01  0.17441549120E+02  0.10500000000E+00 0. -1.
</event>
<event>
11    0  0.3396091E-009  0.9118800E+02  0.7816531E-02  0.1126479E+00
         25   -1    0    0    0    0  0.00000000000E+00  0.00000000000E+00  0.99999998245E-14  0.12500000000E+03  0.12500000000E+03 0.  0.
    3000001    1    3    3    0    0  0.20127034423E+02  0.60910195289E+01 -0.95897731137E+01  0.23133563970E+02  0.10000000000E+01 0. -1.
    1000022    2    1    0    0    0  0.47233113459E+02  0.26518211099E+02 -0.29530788208E+02  0.62500000097E+02  0.10000001649E+02 0.  0.
    3000022    2    3    3    0    0  0.27106079036E+02  0.20427191570E+02 -0.19941015094E+02  0.39366436127E+02  0.25006840805E+00 0.  0.
    1000022    2    1    0    0    0 -0.47233113459E+02 -0.26518211099E+02  0.29530788208E+02  0.62499999903E+02  0.10000000438E+02 0.  0.
    3000022    2    5    5    0    0 -0.28054563340E+02 -0.17981317192E+02  0.23007432626E+02  0.40494329945E+02  0.25001899926E+00 0.  0.
        -13    1    4    4    0    0  0.72072501569E+01  0.53903371267E+01 -0.52985433494E+01  0.10444413616E+02  0.10500000000E+00 0.  1.
         13    1    4    4    0    0  0.19898828880E+02  0.15036854443E+02 -0.14642471745E+02  0.28922022511E+02  0.10500000000E+00 0. -1.
    3000001    1    5    5    0    0 -0.19178550119E+02 -0.85368939065E+01  0.65233555819E+01  0.22005669958E+02  0.10000000000E+01 0.  1.
        -13    1    6    6    0    0 -0.95799659475E+01 -0.62058168674E+01  0.78810493498E+01  0.13871188644E+02  0.10500000000E+00 0. -1.
         13    1    6    6    0    0 -0.18474597393E+02 -0.11775500325E+02  0.15126383276E+02  0.26623141301E+02  0.10500000000E+00 0.  1.
</event>
<event>
11    0  0.3396091E-009  0.9118800E+02  0.7816531E-02  0.1126479E+00
         25   -1    0    0    0    0  0.00000000000E+00  0.00000000000E+00  0.99999998245E-14  0.12500000000E+03  0.12500000000E+03 0.  0.
    3000001    1    3    3    0    0 -0.22602986663E+01  0.74248445641E+01  0.12967872117E+01  0.79321449769E+01  0.10000000000E+01 0.  1.
    1000022    2    1    0    0    0  0.37047032347E+00  0.61300454921E+02 -0.69546325718E+01  0.62499999683E+02  0.10000001221E+02 0.  0.
    3000022    2    3    3    0    0  0.26307689898E+01  0.53875610357E+02 -0.82514197835E+01  0.54567854707E+02  0.25000400300E+00 0.  0.
    1000022    2    1    0    0    0 -0.37047032347E+00 -0.61300454921E+02  0.69546325718E+01  0.62500000317E+02  0.10000005177E+02 0.  0.
    3000022    2    5    5    0    0  0.32428325639E+01 -0.22891699886E+02  0.60416338408E+01  0.23897902086E+02  0.24999587728E+00 0.  0.
        -13    1    4    4    0    0  0.10517285343E+01  0.21416362828E+02 -0.33433725239E+01  0.21701518254E+02  0.10500000000E+00 0.  1.
         13    1    4    4    0    0  0.15790404555E+01  0.32459247529E+02 -0.49080472596E+01  0.32866336453E+02  0.10500000000E+00 0. -1.
    3000001    1    5    5    0    0 -0.36133028874E+01 -0.38408755035E+02  0.91299873098E+00  0.38602098230E+02  0.10000000000E+01 0.  1.
        -13    1    6    6    0    0  0.18594430018E+01 -0.12652419300E+02  0.33386183598E+01  0.13217361309E+02  0.10500000000E+00 0.  1.
         13    1    6    6    0    0  0.13833895621E+01 -0.10239280586E+02  0.27030154810E+01  0.10680540777E+02  0.10500000000E+00 0. -1.
</event>
<event>
11    0  0.3396091E-009  0.9118800E+02  0.7816531E-02  0.1126479E+00
         25   -1    0    0    0    0  0.00000000000E+00  0.00000000000E+00  0.99999998245E-14  0.12500000000E+03  0.12500000000E+03 0.  0.
    3000001    1    3    3    0    0 -0.25893458187E+01  0.36727443036E+00  0.17245556823E+02  0.17471371796E+02  0.10000000000E+01 0.  1.
    1000022    2    1    0    0    0 -0.15286103942E+02 -0.12862599452E+02  0.58370701494E+02  0.62499998805E+02  0.99999809628E+01 0.  0.
    3000022    2    3    3    0    0 -0.12696758123E+02 -0.13229873882E+02  0.41125144671E+02  0.45028627009E+02  0.24999264423E+00 0.  0.
    1000022    2    1    0    0    0  0.15286103942E+02  0.12862599452E+02 -0.58370701494E+02  0.62500001195E+02  0.99999959036E+01 0.  0.
    3000022    2    5    5    0    0  0.88104152645E+00  0.51948823160E+01 -0.83637922368E+01  0.98883039905E+01  0.24999755732E+00 0.  0.
        -13    1    4    4    0    0 -0.94444617941E+01 -0.98234198278E+01  0.30493010851E+02  0.33399583403E+02  0.10500000000E+00 0.  1.
         13    1    4    4    0    0 -0.32522963291E+01 -0.34064540546E+01  0.10632133820E+02  0.11629043606E+02  0.10500000000E+00 0. -1.
    3000001    1    5    5    0    0  0.14405062415E+02  0.76677171360E+01 -0.50006909258E+02  0.52611697205E+02  0.10000000000E+01 0. -1.
        -13    1    6    6    0    0  0.32073435464E+00  0.19187354717E+01 -0.32014750360E+01  0.37476504296E+01  0.10500000000E+00 0.  1.
         13    1    6    6    0    0  0.56030717181E+00  0.32761468444E+01 -0.51623172008E+01  0.61406535608E+01  0.10500000000E+00 0. -1.
</event>
<event>
11    0  0.3396091E-009  0.9118800E+02  0.7816531E-02  0.1126479E+00
         25   -1    0    0    0    0  0.00000000000E+00  0.00000000000E+00  0.99999998245E-14  0.12500000000E+03  0.12500000000E+03 0.  0.
    3000001    1    3    3    0    0 -0.25725138829E+02  0.51945076114E+01 -0.30420833842E+01  0.26438985389E+02  0.10000000000E+01 0. -1.
    1000022    2    1    0    0    0 -0.56485609216E+02  0.22357478957E+02 -0.10759608592E+02  0.62500000603E+02  0.99999992247E+01 0.  0.
    3000022    2    3    3    0    0 -0.30760470387E+02  0.17162971346E+02 -0.77175252075E+01  0.36061015214E+02  0.24999813803E+00 0.  0.
    1000022    2    1    0    0    0  0.56485609216E+02 -0.22357478957E+02  0.10759608592E+02  0.62499999397E+02  0.99999916932E+01 0.  0.
    3000022    2    5    5    0    0  0.95404945539E+01 -0.73111007555E+01 -0.45575517961E-01  0.12022387615E+02  0.24999251081E+00 0.  0.
        -13    1    4    4    0    0 -0.23271256284E+02  0.13003790694E+02 -0.58264389816E+01  0.27287512852E+02  0.10500000000E+00 0. -1.
         13    1    4    4    0    0 -0.74892141026E+01  0.41591806516E+01 -0.18910862260E+01  0.87735023612E+01  0.10500000000E+00 0.  1.
    3000001    1    5    5    0    0  0.46945114662E+02 -0.15046378202E+02  0.10805184110E+02  0.50477611782E+02  0.10000000000E+01 0. -1.
        -13    1    6    6    0    0  0.44885360488E+01 -0.34830210432E+01 -0.79580067339E-01  0.56829349316E+01  0.10500000000E+00 0. -1.
         13    1    6    6    0    0  0.50519585051E+01 -0.38280797122E+01  0.34004549378E-01  0.63394526838E+01  0.10500000000E+00 0.  1.
</event>
<event>
11    0  0.3396091E-009  0.9118800E+02  0.7816531E-02  0.1126479E+00
         25   -1    0    0    0    0  0.00000000000E+00  0.00000000000E+00  0.99999998245E-14  0.12500000000E+03  0.12500000000E+03 0.  0.
    3000001    1    3    3    0    0  0.16505191159E+02 -0.29698811877E+02 -0.12802167008E+02  0.36322668434E+02  0.10000000000E+01 0.  1.
    1000022    2    1    0    0    0  0.23780260975E+02 -0.54644608611E+02 -0.15959821238E+02  0.62500000003E+02  0.10000002210E+02 0.  0.
    3000022    2    3    3    0    0  0.72750698158E+01 -0.24945796734E+02 -0.31576542302E+01  0.26177331569E+02  0.24998463999E+00 0.  0.
    1000022    2    1    0    0    0 -0.23780260975E+02  0.54644608611E+02  0.15959821238E+02  0.62499999997E+02  0.10000002167E+02 0.  0.
    3000022    2    5    5    0    0 -0.11768107206E+02  0.15814541859E+02  0.64760117622E+01  0.20750645938E+02  0.24999414105E+00 0.  0.
        -13    1    4    4    0    0  0.37956438868E+01 -0.13101745052E+02 -0.15940878528E+01  0.13733709513E+02  0.10500000000E+00 0.  1.
         13    1    4    4    0    0  0.34794259290E+01 -0.11844051682E+02 -0.15635663773E+01  0.12443622056E+02  0.10500000000E+00 0. -1.
    3000001    1    5    5    0    0 -0.12012153768E+02  0.38830066753E+02  0.94838094756E+01  0.41749354059E+02  0.10000000000E+01 0.  1.
        -13    1    6    6    0    0 -0.82120689808E+01  0.10989523763E+02  0.44668101583E+01  0.14428136660E+02  0.10500000000E+00 0.  1.
         13    1    6    6    0    0 -0.35560382257E+01  0.48250180955E+01  0.20092016039E+01  0.63225092779E+01  0.10500000000E+00 0. -1.
</event>
<event>
11    0  0.3396091E-009  0.9118800E+02  0.7816531E-02  0.1126479E+00
         25   -1    0    0    0    0  0.00000000000E+00  0.00000000000E+00  0.99999998245E-14  0.12500000000E+03  0.12500000000E+03 0.  0.
    3000001    1    3    3    0    0  0.31396707733E+02  0.41850921763E+01 -0.48403427170E+02  0.57854645576E+02  0.10000000000E+01 0. -1.
    1000022    2    1    0    0    0  0.32506399638E+02  0.20978066775E+01 -0.52394494950E+02  0.62499998293E+02  0.99999937607E+01 0.  0.
    3000022    2    3    3    0    0  0.11096919056E+01 -0.20872854987E+01 -0.39910677804E+01  0.46453527165E+01  0.25000590900E+00 0.  0.
    1000022    2    1    0    0    0 -0.32506399638E+02 -0.20978066775E+01  0.52394494950E+02  0.62500001707E+02  0.10000015101E+02 0.  0.
    3000022    2    5    5    0    0 -0.27321123922E+02 -0.48058692651E+01  0.39107743776E+02  0.47948079360E+02  0.24999866278E+00 0.  0.
        -13    1    4    4    0    0  0.63391968491E+00 -0.10501509153E+01 -0.20454419161E+01  0.23873685815E+01  0.10500000000E+00 0.  1.
         13    1    4    4    0    0  0.47577222070E+00 -0.10371345835E+01 -0.19456258643E+01  0.22579841350E+01  0.10500000000E+00 0. -1.
    3000001    1    5    5    0    0 -0.51852757169E+01  0.27080625876E+01  0.13286751174E+02  0.14551922348E+02  0.10000000000E+01 0.  1.
        -13    1    6    6    0    0 -0.19372624189E+02 -0.34104616904E+01  0.27804734769E+02  0.34059420393E+02  0.10500000000E+00 0.  1.
         13    1    6    6    0    0 -0.79484997326E+01 -0.13954075747E+01  0.11303009006E+02  0.13888658967E+02  0.10500000000E+00 0. -1.
</event>
<event>
11    0  0.3396091E-009  0.9118800E+02  0.7816531E-02  0.1126479E+00
         25   -1    0    0    0    0  0.00000000000E+00  0.00000000000E+00  0.99999998245E-14  0.12500000000E+03  0.12500000000E+03 0.  0.
    3000001    1    3    3    0    0  0.17330531972E+02 -0.31609134117E+00  0.12730631082E+02  0.21529426837E+02  0.10000000000E+01 0.  1.
    1000022    2    1    0    0    0  0.46188524966E+02  0.11841632742E+02  0.39149021032E+02  0.62499999633E+02  0.10000000090E+02 0.  0.
    3000022    2    3    3    0    0  0.28857992994E+02  0.12157724083E+02  0.26418389949E+02  0.40970572796E+02  0.24998634474E+00 0.  0.
    1000022    2    1    0    0    0 -0.46188524966E+02 -0.11841632742E+02 -0.39149021032E+02  0.62500000367E+02  0.10000004681E+02 0.  0.
    3000022    2    5    5    0    0 -0.37945894656E+02 -0.67805966662E+01 -0.27640236275E+02  0.47433243345E+02  0.25000101839E+00 0.  0.
        -13    1    4    4    0    0  0.94201998752E+01  0.40200419796E+01  0.86698874201E+01  0.13419347081E+02  0.10500000000E+00 0.  1.
         13    1    4    4    0    0  0.19437793119E+02  0.81376821035E+01  0.17748502529E+02  0.27551225715E+02  0.10500000000E+00 0. -1.
    3000001    1    5    5    0    0 -0.82426303104E+01 -0.50610360757E+01 -0.11508784757E+02  0.15066757022E+02  0.10000000000E+01 0.  1.
        -13    1    6    6    0    0 -0.26261182147E+02 -0.47401872893E+01 -0.19146951950E+02  0.32844114500E+02  0.10500000000E+00 0.  1.
         13    1    6    6    0    0 -0.11684712508E+02 -0.20404093769E+01 -0.84932843254E+01  0.14589128845E+02  0.10500000000E+00 0. -1.
</event>
<event>
11    0  0.3396091E-009  0.9118800E+02  0.7816531E-02  0.1126479E+00
         25   -1    0    0    0    0  0.00000000000E+00  0.00000000000E+00  0.99999998245E-14  0.12500000000E+03  0.12500000000E+03 0.  0.
    3000001    1    3    3    0    0  0.44153668192E+01  0.36513906770E+01  0.89004238427E+01  0.10632293384E+02  0.10000000000E+01 0.  1.
    1000022    2    1    0    0    0  0.34681731250E+02  0.34420647475E+02  0.37664924371E+02  0.62499999798E+02  0.99999995897E+01 0.  0.
    3000022    2    3    3    0    0  0.30266364431E+02  0.30769256798E+02  0.28764500528E+02  0.51867706414E+02  0.24999651016E+00 0.  0.
    1000022    2    1    0    0    0 -0.34681731250E+02 -0.34420647475E+02 -0.37664924371E+02  0.62500000202E+02  0.10000002116E+02 0.  0.
    3000022    2    5    5    0    0 -0.92047164148E+01 -0.14938253855E+02 -0.16295391613E+02  0.23947453251E+02  0.24999382875E+00 0.  0.
        -13    1    4    4    0    0  0.21054096011E+02  0.21449829224E+02  0.20071784948E+02  0.36142187380E+02  0.10500000000E+00 0. -1.
         13    1    4    4    0    0  0.92122684200E+01  0.93194275737E+01  0.86927155797E+01  0.15725519034E+02  0.10500000000E+00 0.  1.
    3000001    1    5    5    0    0 -0.25477014835E+02 -0.19482393620E+02 -0.21369532758E+02  0.38552546951E+02  0.10000000000E+01 0.  1.
        -13    1    6    6    0    0 -0.64198823884E+01 -0.10357807737E+02 -0.11363993702E+02  0.16662846361E+02  0.10500000000E+00 0. -1.
         13    1    6    6    0    0 -0.27848340264E+01 -0.45804461183E+01 -0.49313979102E+01  0.72846068903E+01  0.10500000000E+00 0.  1.
</event>
<event>
11    0  0.3396091E-009  0.9118800E+02  0.7816531E-02  0.1126479E+00
         25   -1    0    0    0    0  0.00000000000E+00  0.00000000000E+00  0.99999998245E-14  0.12500000000E+03  0.12500000000E+03 0.  0.
    3000001    1    3    3    0    0  0.37635518905E+02 -0.11518475990E+01 -0.14953926832E+02  0.40526274981E+02  0.10000000000E+01 0. -1.
    1000022    2    1    0    0    0  0.55020628528E+02  0.29273453157E+01 -0.27756278488E+02  0.62499999318E+02  0.10000000255E+02 0.  0.
    3000022    2    3    3    0    0  0.17385109623E+02  0.40791929147E+01 -0.12802351656E+02  0.21973724337E+02  0.25000378166E+00 0.  0.
    1000022    2    1    0    0    0 -0.55020628528E+02 -0.29273453157E+01  0.27756278488E+02  0.62500000682E+02  0.10000008776E+02 0.  0.
    3000022    2    5    5    0    0 -0.39255866274E+02 -0.44503879586E+01  0.23877925682E+02  0.46163262687E+02  0.24999432008E+00 0.  0.
        -13    1    4    4    0    0  0.78616626135E+01  0.18867041859E+01 -0.58612337107E+01  0.99865147747E+01  0.10500000000E+00 0.  1.
         13    1    4    4    0    0  0.95234470092E+01  0.21924887289E+01 -0.69411179457E+01  0.11987209563E+02  0.10500000000E+00 0. -1.
    3000001    1    5    5    0    0 -0.15764762254E+02  0.15230426429E+01  0.38783528060E+01  0.16336737994E+02  0.10000000000E+01 0.  1.
        -13    1    6    6    0    0 -0.18153861354E+02 -0.20277218583E+01  0.10970192288E+02  0.21307991032E+02  0.10500000000E+00 0.  1.
         13    1    6    6    0    0 -0.21102004921E+02 -0.24226661003E+01  0.12907733393E+02  0.24855271655E+02  0.10500000000E+00 0. -1.
</event>
<event>
11    0  0.3396091E-009  0.9118800E+02  0.7816531E-02  0.1126479E+00
         25   -1    0    0    0    0  0.00000000000E+00  0.00000000000E+00  0.99999998245E-14  0.12500000000E+03  0.12500000000E+03 0.  0.
    3000001    1    3    3    0    0  0.97416199490E+01 -0.31283581033E+02 -0.39592448451E+01  0.33018740455E+02  0.10000000000E+01 0. -1.
    1000022    2    1    0    0    0  0.24371030414E+02 -0.56672549679E+02 -0.72461502961E+00  0.62500000787E+02  0.10000001042E+02 0.  0.
    3000022    2    3    3    0    0  0.14629410465E+02 -0.25388968646E+02  0.32346298155E+01  0.29481260332E+02  0.25000250782E+00 0.  0.
    1000022    2    1    0    0    0 -0.24371030414E+02  0.56672549679E+02  0.72461502961E+00  0.62499999213E+02  0.99999912097E+01 0.  0.
    3000022    2    5    5    0    0 -0.12438925668E+02  0.26751700803E+02  0.52157360662E+01  0.29960753843E+02  0.25000098436E+00 0.  0.
        -13    1    4    4    0    0  0.78608868273E+01 -0.13508533172E+02  0.17334406182E+01  0.15725452348E+02  0.10500000000E+00 0.  1.
         13    1    4    4    0    0  0.67685236382E+01 -0.11880435473E+02  0.15011891972E+01  0.13755807983E+02  0.10500000000E+00 0. -1.
    3000001    1    5    5    0    0 -0.11932104746E+02  0.29920848875E+02 -0.44911210366E+01  0.32539245370E+02  0.10000000000E+01 0. -1.
        -13    1    6    6    0    0 -0.65263508876E+01  0.13902846106E+02  0.27536001956E+01  0.15603708688E+02  0.10500000000E+00 0. -1.
         13    1    6    6    0    0 -0.59125747805E+01  0.12848854697E+02  0.24621358706E+01  0.14357045156E+02  0.10500000000E+00 0.  1.
</event>
<event>
11    0  0.3396091E-009  0.9118800E+02  0.7816531E-02  0.1126479E+00
         25   -1    0    0    0    0  0.00000000000E+00  0.00000000000E+00  0.99999998245E-14  0.12500000000E+03  0.12500000000E+03 0.  0.
    3000001    1    3    3    0    0 -0.10082411673E+02 -0.64427521591E+01 -0.26045696853E+01  0.12286084151E+02  0.10000000000E+01 0. -1.
    1000022    2    1    0    0    0 -0.53697282711E+02 -0.17195515804E+02 -0.25043284843E+02  0.62499999991E+02  0.99999974401E+01 0.  0.
    3000022    2    3    3    0    0 -0.43614871038E+02 -0.10752763644E+02 -0.22438715157E+02  0.50213915839E+02  0.25000867014E+00 0.  0.
    1000022    2    1    0    0    0  0.53697282711E+02  0.17195515804E+02  0.25043284843E+02  0.62500000009E+02  0.99999975569E+01 0.  0.
    3000022    2    5    5    0    0  0.15816200523E+01 -0.10235043711E+01  0.80785464703E-01  0.19021339933E+01  0.25000849944E+00 0.  0.
        -13    1    4    4    0    0 -0.11428336626E+02 -0.28002805719E+01 -0.59088696928E+01  0.13167164287E+02  0.10500000000E+00 0. -1.
         13    1    4    4    0    0 -0.32186534413E+02 -0.79524830726E+01 -0.16529845464E+02  0.37046751553E+02  0.10500000000E+00 0.  1.
    3000001    1    5    5    0    0  0.52115662659E+02  0.18219020175E+02  0.24962499378E+02  0.60597866016E+02  0.10000000000E+01 0.  1.
        -13    1    6    6    0    0  0.10213590285E+01 -0.67150022099E+00 -0.40791810645E-02  0.12268367665E+01  0.10500000000E+00 0.  1.
         13    1    6    6    0    0  0.56026102376E+00 -0.35200415008E+00  0.84864645767E-01  0.67529722680E+00  0.10500000000E+00 0. -1.
</event>
<event>
11    0  0.3396091E-009  0.9118800E+02  0.7816531E-02  0.1126479E+00
         25   -1    0    0    0    0  0.00000000000E+00  0.00000000000E+00  0.99999998245E-14  0.12500000000E+03  0.12500000000E+03 0.  0.
    3000001    1    3    3    0    0 -0.18410685231E+02 -0.10918388884E+02 -0.73949635695E+01  0.22668260469E+02  0.10000000000E+01 0. -1.
    1000022    2    1    0    0    0 -0.42726515970E+02 -0.40296778545E+02 -0.18890856509E+02  0.62499999824E+02  0.99999995140E+01 0.  0.
    3000022    2    3    3    0    0 -0.24315830740E+02 -0.29378389660E+02 -0.11495892939E+02  0.39831739355E+02  0.25000391728E+00 0.  0.
    1000022    2    1    0    0    0  0.42726515970E+02  0.40296778545E+02  0.18890856509E+02  0.62500000176E+02  0.10000001718E+02 0.  0.
    3000022    2    5    5    0    0  0.13130210263E+02  0.17121944875E+02  0.34615914442E+01  0.21854256887E+02  0.25002176724E+00 0.  0.
        -13    1    4    4    0    0 -0.11196822469E+02 -0.13581958399E+02 -0.53663374642E+01  0.18402364797E+02  0.10500000000E+00 0. -1.
         13    1    4    4    0    0 -0.13119008271E+02 -0.15796431262E+02 -0.61295554752E+01  0.21429374558E+02  0.10500000000E+00 0.  1.
    3000001    1    5    5    0    0  0.29596305707E+02  0.23174833670E+02  0.15429265065E+02  0.40645743290E+02  0.10000000000E+01 0.  1.
        -13    1    6    6    0    0  0.70886476276E+01  0.92282393151E+01  0.17995194117E+01  0.11775339535E+02  0.10500000000E+00 0.  1.
         13    1    6    6    0    0  0.60415626355E+01  0.78937055600E+01  0.16620720325E+01  0.10078917352E+02  0.10500000000E+00 0. -1.
</event>
<event>
11    0  0.3396091E-009  0.9118800E+02  0.7816531E-02  0.1126479E+00
         25   -1    0    0    0    0  0.00000000000E+00  0.00000000000E+00  0.99999998245E-14  0.12500000000E+03  0.12500000000E+03 0.  0.
    3000001    1    3    3    0    0 -0.92458254590E+01 -0.10046783309E+02  0.20554209726E+01  0.13843695267E+02  0.10000000000E+01 0. -1.
    1000022    2    1    0    0    0 -0.29083810624E+02 -0.54408106589E+02 -0.37374541390E+00  0.62500000200E+02  0.10000011818E+02 0.  0.
    3000022    2    3    3    0    0 -0.19837985165E+02 -0.44361323279E+02 -0.24291663865E+01  0.48656304932E+02  0.25000367475E+00 0.  0.
    1000022    2    1    0    0    0  0.29083810624E+02  0.54408106589E+02  0.37374541390E+00  0.62499999800E+02  0.10000009320E+02 0.  0.
    3000022    2    5    5    0    0  0.13874851339E+02  0.36034742670E+02 -0.36387008556E+00  0.38616176387E+02  0.24999660566E+00 0.  0.
        -13    1    4    4    0    0 -0.11905808476E+02 -0.26500289319E+02 -0.14906346093E+01  0.29090318424E+02  0.10500000000E+00 0.  1.
         13    1    4    4    0    0 -0.79321766897E+01 -0.17861033960E+02 -0.93853177723E+00  0.19565986508E+02  0.10500000000E+00 0. -1.
    3000001    1    5    5    0    0  0.15208959285E+02  0.18373363918E+02  0.73761549946E+00  0.23883823413E+02  0.10000000000E+01 0.  1.
        -13    1    6    6    0    0  0.57203785405E+01  0.15007825183E+02 -0.18603735754E+00  0.16062477464E+02  0.10500000000E+00 0.  1.
         13    1    6    6    0    0  0.81544727984E+01  0.21026917487E+02 -0.17783272802E+00  0.22553698923E+02  0.10500000000E+00 0. -1.
</event>
<event>
11    0  0.3396091E-009  0.9118800E+02  0.7816531E-02  0.1126479E+00
         25   -1    0    0    0    0  0.00000000000E+00  0.00000000000E+00  0.99999998245E-14  0.12500000000E+03  0.12500000000E+03 0.  0.
    3000001    1    3    3    0    0  0.27537332365E+02  0.19376804225E+02 -0.10705387826E+01  0.33703282763E+02  0.10000000000E+01 0. -1.
    1000022    2    1    0    0    0  0.54447563970E+02  0.28880221013E+02  0.27651635372E+01  0.62499994556E+02  0.99999401039E+01 0.  0.
    3000022    2    3    3    0    0  0.26910231605E+02  0.95034167883E+01  0.38357023198E+01  0.28796711793E+02  0.25000418282E+00 0.  0.
    1000022    2    1    0    0    0 -0.54447563970E+02 -0.28880221013E+02 -0.27651635372E+01  0.62500005444E+02  0.10000008155E+02 0.  0.
    3000022    2    5    5    0    0 -0.33825604672E+02 -0.14484671862E+02  0.21306207024E+01  0.36858910617E+02  0.24999375073E+00 0.  0.
        -13    1    4    4    0    0  0.15431411906E+02  0.54945635429E+01  0.21514453433E+01  0.16521454052E+02  0.10500000000E+00 0.  1.
         13    1    4    4    0    0  0.11478819699E+02  0.40088532454E+01  0.16842569765E+01  0.12275257740E+02  0.10500000000E+00 0. -1.
    3000001    1    5    5    0    0 -0.20621959298E+02 -0.14395549151E+02 -0.48957842396E+01  0.25641094827E+02  0.10000000000E+01 0.  1.
        -13    1    6    6    0    0 -0.83434227899E+01 -0.35993581322E+01  0.52531098139E+00  0.91024754568E+01  0.10500000000E+00 0. -1.
         13    1    6    6    0    0 -0.25482181882E+02 -0.10885313730E+02  0.16053097210E+01  0.27756435160E+02  0.10500000000E+00 0.  1.
</event>
<event>
11    0  0.3396091E-009  0.9118800E+02  0.7816531E-02  0.1126479E+00
         25   -1    0    0    0    0  0.00000000000E+00  0.00000000000E+00  0.99999998245E-14  0.12500000000E+03  0.12500000000E+03 0.  0.
    3000001    1    3    3    0    0  0.11824127263E+02 -0.34693402306E+01  0.59499340308E+01  0.13720350657E+02  0.10000000000E+01 0.  1.
    1000022    2    1    0    0    0  0.58693475787E+02  0.13175926631E-01  0.19008570662E+02  0.62500000585E+02  0.10000002046E+02 0.  0.
    3000022    2    3    3    0    0  0.46869348524E+02  0.34825161573E+01  0.13058636632E+02  0.48779649928E+02  0.25001322067E+00 0.  0.
    1000022    2    1    0    0    0 -0.58693475787E+02 -0.13175926631E-01 -0.19008570662E+02  0.62499999415E+02  0.99999947369E+01 0.  0.
    3000022    2    5    5    0    0 -0.11551335744E+02 -0.39231845400E+01 -0.45989665042E+01  0.13039851547E+02  0.25000210157E+00 0.  0.
        -13    1    4    4    0    0  0.26185434527E+02  0.18953288636E+01  0.73395405167E+01  0.27260761781E+02  0.10500000000E+00 0.  1.
         13    1    4    4    0    0  0.20683913996E+02  0.15871872937E+01  0.57190961149E+01  0.21518888147E+02  0.10500000000E+00 0. -1.
    3000001    1    5    5    0    0 -0.47142140043E+02  0.39100086133E+01 -0.14409604158E+02  0.49460147869E+02  0.10000000000E+01 0. -1.
        -13    1    6    6    0    0 -0.47786095933E+01 -0.16866674760E+01 -0.18861810293E+01  0.54082030929E+01  0.10500000000E+00 0. -1.
         13    1    6    6    0    0 -0.67727261506E+01 -0.22365170640E+01 -0.27127854749E+01  0.76316484538E+01  0.10500000000E+00 0.  1.
</event>
<event>
11    0  0.3396091E-009  0.9118800E+02  0.7816531E-02  0.1126479E+00
         25   -1    0    0    0    0  0.00000000000E+00  0.00000000000E+00  0.99999998245E-14  0.12500000000E+03  0.12500000000E+03 0.  0.
    3000001    1    3    3    0    0 -0.10698512593E+02  0.16241454913E+02 -0.22421344838E+00  0.19475453809E+02  0.10000000000E+01 0. -1.
    1000022    2    1    0    0    0 -0.34822101682E+02  0.49087040455E+02  0.13569590627E+02  0.62499999940E+02  0.99999948247E+01 0.  0.
    3000022    2    3    3    0    0 -0.24123589089E+02  0.32845585542E+02  0.13793804076E+02  0.43024546130E+02  0.24999750324E+00 0.  0.
    1000022    2    1    0    0    0  0.34822101682E+02 -0.49087040455E+02 -0.13569590627E+02  0.62500000060E+02  0.99999955795E+01 0.  0.
    3000022    2    5    5    0    0  0.20664873973E+02 -0.26543469870E+02 -0.12341988882E+02  0.35832666538E+02  0.24998527822E+00 0.  0.
        -13    1    4    4    0    0 -0.73589418000E+01  0.99869667931E+01  0.41537907944E+01  0.13082757091E+02  0.10500000000E+00 0. -1.
         13    1    4    4    0    0 -0.16764647289E+02  0.22858618749E+02  0.96400132812E+01  0.29941789039E+02  0.10500000000E+00 0.  1.
    3000001    1    5    5    0    0  0.14157227709E+02 -0.22543570585E+02 -0.12276017451E+01  0.26667333522E+02  0.10000000000E+01 0.  1.
        -13    1    6    6    0    0  0.12539732748E+02 -0.16154695464E+02 -0.74446031998E+01  0.21763552668E+02  0.10500000000E+00 0. -1.
         13    1    6    6    0    0  0.81251412246E+01 -0.10388774406E+02 -0.48973856823E+01  0.14069113870E+02  0.10500000000E+00 0.  1.
</event>
<event>
11    0  0.3396091E-009  0.9118800E+02  0.7816531E-02  0.1126479E+00
         25   -1    0    0    0    0  0.00000000000E+00  0.00000000000E+00  0.99999998245E-14  0.12500000000E+03  0.12500000000E+03 0.  0.
    3000001    1    3    3    0    0 -0.26657701921E+02  0.35546321226E+02 -0.12548804717E+01  0.44460642701E+02  0.10000000000E+01 0. -1.
    1000022    2    1    0    0    0 -0.35526894245E+02  0.50260501980E+02  0.42393172228E+01  0.62499999499E+02  0.99999926450E+01 0.  0.
    3000022    2    3    3    0    0 -0.88691923238E+01  0.14714180754E+02  0.54941976945E+01  0.18039356798E+02  0.24999526720E+00 0.  0.
    1000022    2    1    0    0    0  0.35526894245E+02 -0.50260501980E+02 -0.42393172228E+01  0.62500000501E+02  0.99999989117E+01 0.  0.
    3000022    2    5    5    0    0  0.23164508689E+02 -0.40129952078E+02 -0.35066748186E+01  0.46468987344E+02  0.24999995406E+00 0.  0.
        -13    1    4    4    0    0 -0.51338866031E+01  0.85583538158E+01  0.31272538331E+01  0.10459108625E+02  0.10500000000E+00 0.  1.
         13    1    4    4    0    0 -0.37353057207E+01  0.61558269379E+01  0.23669438614E+01  0.75802481726E+01  0.10500000000E+00 0. -1.
    3000001    1    5    5    0    0  0.12362385556E+02 -0.10130549902E+02 -0.73264240419E+00  0.16031013157E+02  0.10000000000E+01 0.  1.
        -13    1    6    6    0    0  0.76755050109E+01 -0.13216681435E+02 -0.11911283727E+01  0.15330487830E+02  0.10500000000E+00 0.  1.
         13    1    6    6    0    0  0.15489003678E+02 -0.26913270643E+02 -0.23155464459E+01  0.31138499514E+02  0.10500000000E+00 0. -1.
</event>
<event>
11    0  0.3396091E-009  0.9118800E+02  0.7816531E-02  0.1126479E+00
         25   -1    0    0    0    0  0.00000000000E+00  0.00000000000E+00  0.99999998245E-14  0.12500000000E+03  0.12500000000E+03 0.  0.
    3000001    1    3    3    0    0  0.62167406007E+00 -0.16807363284E+02  0.83465978069E+01  0.18802649657E+02  0.10000000000E+01 0. -1.
    1000022    2    1    0    0    0  0.16684104014E+02 -0.52585107590E+02  0.27616971015E+02  0.62500000189E+02  0.10000003428E+02 0.  0.
    3000022    2    3    3    0    0  0.16062429954E+02 -0.35777744306E+02  0.19270373208E+02  0.43697350532E+02  0.25003242591E+00 0.  0.
    1000022    2    1    0    0    0 -0.16684104014E+02  0.52585107590E+02 -0.27616971015E+02  0.62499999811E+02  0.10000001066E+02 0.  0.
    3000022    2    5    5    0    0 -0.16934012613E+02  0.39972766325E+02 -0.21494324312E+02  0.48442247176E+02  0.25000596522E+00 0.  0.
        -13    1    4    4    0    0  0.45525378126E+01 -0.10242118266E+02  0.55080193809E+01  0.12489030771E+02  0.10500000000E+00 0.  1.
         13    1    4    4    0    0  0.11509892141E+02 -0.25535626040E+02  0.13762353827E+02  0.31208319760E+02  0.10500000000E+00 0. -1.
    3000001    1    5    5    0    0  0.24990859911E+00  0.12612341265E+02 -0.61226467028E+01  0.14057752635E+02  0.10000000000E+01 0.  1.
        -13    1    6    6    0    0 -0.97644653679E+01  0.23167970027E+02 -0.12498799360E+02  0.28077226172E+02  0.10500000000E+00 0. -1.
         13    1    6    6    0    0 -0.71695472452E+01  0.16804796298E+02 -0.89955249526E+01  0.20365021004E+02  0.10500000000E+00 0.  1.
</event>
<event>
11    0  0.3396091E-009  0.9118800E+02  0.7816531E-02  0.1126479E+00
         25   -1    0    0    0    0  0.00000000000E+00  0.00000000000E+00  0.99999998245E-14  0.12500000000E+03  0.12500000000E+03 0.  0.
    3000001    1    3    3    0    0  0.21474167887E+02  0.18920835568E+02  0.36400336858E+02  0.46315466406E+02  0.10000000000E+01 0.  1.
    1000022    2    1    0    0    0  0.30471767973E+02  0.29334923700E+02  0.44913067413E+02  0.62499999778E+02  0.99999977978E+01 0.  0.
    3000022    2    3    3    0    0  0.89976000861E+01  0.10414088132E+02  0.85127305544E+01  0.16184533372E+02  0.25000008422E+00 0.  0.
    1000022    2    1    0    0    0 -0.30471767973E+02 -0.29334923700E+02 -0.44913067413E+02  0.62500000222E+02  0.10000000572E+02 0.  0.
    3000022    2    5    5    0    0 -0.99145209387E+01 -0.98944472704E+01 -0.85389609051E+01  0.16406528302E+02  0.25001068172E+00 0.  0.
        -13    1    4    4    0    0  0.57163400076E+01  0.66859494336E+01  0.54831492770E+01  0.10366022087E+02  0.10500000000E+00 0.  1.
         13    1    4    4    0    0  0.32812600786E+01  0.37281386984E+01  0.30295812774E+01  0.58185112850E+01  0.10500000000E+00 0. -1.
    3000001    1    5    5    0    0 -0.20557247034E+02 -0.19440476429E+02 -0.36374106508E+02  0.46093471920E+02  0.10000000000E+01 0. -1.
        -13    1    6    6    0    0 -0.43716610180E+01 -0.42766061841E+01 -0.37575039289E+01  0.71784846092E+01  0.10500000000E+00 0.  1.
         13    1    6    6    0    0 -0.55428599208E+01 -0.56178410863E+01 -0.47814569762E+01  0.92280436924E+01  0.10500000000E+00 0. -1.
</event>
<event>
11    0  0.3396091E-009  0.9118800E+02  0.7816531E-02  0.1126479E+00
         25   -1    0    0    0    0  0.00000000000E+00  0.00000000000E+00  0.99999998245E-14  0.12500000000E+03  0.12500000000E+03 0.  0.
    3000001    1    3    3    0    0 -0.13969124387E+02  0.85543134631E+01  0.17122204594E+01  0.16499830722E+02  0.10000000000E+01 0. -1.
    1000022    2    1    0    0    0 -0.44176532525E+02  0.38751632137E+02  0.18788158151E+02  0.62500001430E+02  0.10000013645E+02 0.  0.
    3000022    2    3    3    0    0 -0.30207408138E+02  0.30197318674E+02  0.17075937692E+02  0.46000170708E+02  0.24999125991E+00 0.  0.
    1000022    2    1    0    0    0  0.44176532525E+02 -0.38751632137E+02 -0.18788158151E+02  0.62499998570E+02  0.99999957648E+01 0.  0.
    3000022    2    5    5    0    0  0.24779072684E+02 -0.22590992853E+02 -0.15762634718E+02  0.37052375844E+02  0.25000251386E+00 0.  0.
        -13    1    4    4    0    0 -0.22966379388E+02  0.22983863698E+02  0.12995975929E+02  0.34994556549E+02  0.10500000000E+00 0. -1.
         13    1    4    4    0    0 -0.72410287499E+01  0.72134549753E+01  0.40799617628E+01  0.11005614159E+02  0.10500000000E+00 0.  1.
    3000001    1    5    5    0    0  0.19397459841E+02 -0.16160639283E+02 -0.30255234330E+01  0.25447622726E+02  0.10000000000E+01 0.  1.
        -13    1    6    6    0    0  0.10602956218E+02 -0.95792870949E+01 -0.67276275820E+01  0.15794221086E+02  0.10500000000E+00 0. -1.
         13    1    6    6    0    0  0.14176116465E+02 -0.13011705758E+02 -0.90350071365E+01  0.21258154758E+02  0.10500000000E+00 0.  1.
</event>
<event>
11    0  0.3396091E-009  0.9118800E+02  0.7816531E-02  0.1126479E+00
         25   -1    0    0    0    0  0.00000000000E+00  0.00000000000E+00  0.99999998245E-14  0.12500000000E+03  0.12500000000E+03 0.  0.
    3000001    1    3    3    0    0 -0.38267618169E+02 -0.16551704445E+02 -0.29153532748E+02  0.50885145102E+02  0.10000000000E+01 0.  1.
    1000022    2    1    0    0    0 -0.47770195259E+02 -0.22691353304E+02 -0.31770433848E+02  0.62500003419E+02  0.10000044529E+02 0.  0.
    3000022    2    3    3    0    0 -0.95025770902E+01 -0.61396488597E+01 -0.26169010994E+01  0.11614858317E+02  0.25000575522E+00 0.  0.
    1000022    2    1    0    0    0  0.47770195259E+02  0.22691353304E+02  0.31770433848E+02  0.62499996581E+02  0.10000001792E+02 0.  0.
    3000022    2    5    5    0    0  0.19192172628E+02  0.13176225500E+02  0.10084073948E+02  0.25371311708E+02  0.25000363007E+00 0.  0.
        -13    1    4    4    0    0 -0.25166805081E+01 -0.16114701213E+01 -0.72359992022E+00  0.30765465341E+01  0.10500000000E+00 0. -1.
         13    1    4    4    0    0 -0.69858965820E+01 -0.45281787384E+01 -0.18933011792E+01  0.85383117826E+01  0.10500000000E+00 0.  1.
    3000001    1    5    5    0    0  0.28578022632E+02  0.95151278044E+01  0.21686359900E+02  0.37128684873E+02  0.10000000000E+01 0. -1.
        -13    1    6    6    0    0  0.11090580235E+02  0.76852850799E+01  0.58747705548E+01  0.14716947061E+02  0.10500000000E+00 0.  1.
         13    1    6    6    0    0  0.81015923924E+01  0.54909404200E+01  0.42093033932E+01  0.10654364648E+02  0.10500000000E+00 0. -1.
</event>
<event>
11    0  0.3396091E-009  0.9118800E+02  0.7816531E-02  0.1126479E+00
         25   -1    0    0    0    0  0.00000000000E+00  0.00000000000E+00  0.99999998245E-14  0.12500000000E+03  0.12500000000E+03 0.  0.
    3000001    1    3    3    0    0 -0.28388361206E+02  0.24348607283E+01  0.12662207645E+02  0.31195498092E+02  0.10000000000E+01 0. -1.
    1000022    2    1    0    0    0 -0.52013036218E+02  0.11543906921E+01  0.33159640130E+02  0.62500004592E+02  0.10000014300E+02 0.  0.
    3000022    2    3    3    0    0 -0.23624675012E+02 -0.12804700362E+01  0.20497432484E+02  0.31304506500E+02  0.25003171661E+00 0.  0.
    1000022    2    1    0    0    0  0.52013036218E+02 -0.11543906921E+01 -0.33159640130E+02  0.62499995408E+02  0.99999568958E+01 0.  0.
    3000022    2    5    5    0    0  0.32421866584E+02  0.40638092774E+01 -0.20766365493E+02  0.38716875453E+02  0.25006082678E+00 0.  0.
        -13    1    4    4    0    0 -0.18163192132E+02 -0.97517296410E+00  0.15759480733E+02  0.24067088913E+02  0.10500000000E+00 0. -1.
         13    1    4    4    0    0 -0.54614828795E+01 -0.30529707206E+00  0.47379517509E+01  0.72374175877E+01  0.10500000000E+00 0.  1.
    3000001    1    5    5    0    0  0.19591169634E+02 -0.52181999695E+01 -0.12393274636E+02  0.23783119954E+02  0.10000000000E+01 0.  1.
        -13    1    6    6    0    0  0.19904995171E+02  0.25487654912E+01 -0.12717057873E+02  0.23757938131E+02  0.10500000000E+00 0. -1.
         13    1    6    6    0    0  0.12516871413E+02  0.15150437862E+01 -0.80493076201E+01  0.14958937322E+02  0.10500000000E+00 0.  1.
</event>
<event>
11    0  0.3396091E-009  0.9118800E+02  0.7816531E-02  0.1126479E+00
         25   -1    0    0    0    0  0.00000000000E+00  0.00000000000E+00  0.99999998245E-14  0.12500000000E+03  0.12500000000E+03 0.  0.
    3000001    1    3    3    0    0  0.15227193813E+02 -0.22069211052E+02  0.40190371987E+02  0.48323736489E+02  0.10000000000E+01 0.  1.
    1000022    2    1    0    0    0  0.23516702408E+02 -0.30013476939E+02  0.48501623009E+02  0.62500009174E+02  0.99999811025E+01 0.  0.
    3000022    2    3    3    0    0  0.82895085952E+01 -0.79442658873E+01  0.83112510226E+01  0.14176272684E+02  0.25000084277E+00 0.  0.
    1000022    2    1    0    0    0 -0.23516702408E+02  0.30013476939E+02 -0.48501623009E+02  0.62499990826E+02  0.99998664304E+01 0.  0.
    3000022    2    5    5    0    0 -0.34385111084E+01  0.11554835301E+02 -0.16594322963E+02  0.20512718788E+02  0.24999998271E+00 0.  0.
        -13    1    4    4    0    0  0.30976666793E+01 -0.30523576216E+01  0.31548790751E+01  0.53737056939E+01  0.10500000000E+00 0. -1.
         13    1    4    4    0    0  0.51918419159E+01 -0.48919082657E+01  0.51563719475E+01  0.88025669904E+01  0.10500000000E+00 0.  1.
    3000001    1    5    5    0    0 -0.20078191300E+02  0.18458641638E+02 -0.31907300046E+02  0.41987272038E+02  0.10000000000E+01 0.  1.
        -13    1    6    6    0    0 -0.18765279457E+01  0.60920993375E+01 -0.88228471224E+01  0.10885250930E+02  0.10500000000E+00 0.  1.
         13    1    6    6    0    0 -0.15619831627E+01  0.54627359636E+01 -0.77714758406E+01  0.96274678577E+01  0.10500000000E+00 0. -1.
</event>
<event>
11    0  0.3396091E-009  0.9118800E+02  0.7816531E-02  0.1126479E+00
         25   -1    0    0    0    0  0.00000000000E+00  0.00000000000E+00  0.99999998245E-14  0.12500000000E+03  0.12500000000E+03 0.  0.
    3000001    1    3    3    0    0  0.11876906573E+02  0.93036822282E+01 -0.16023771485E+02  0.22031356412E+02  0.10000000000E+01 0. -1.
    1000022    2    1    0    0    0  0.38609379012E+02  0.33048279051E+02 -0.34976809559E+02  0.62500000006E+02  0.99999948954E+01 0.  0.
    3000022    2    3    3    0    0  0.26732472439E+02  0.23744596823E+02 -0.18953038075E+02  0.40468643595E+02  0.25000229451E+00 0.  0.
    1000022    2    1    0    0    0 -0.38609379012E+02 -0.33048279051E+02  0.34976809559E+02  0.62499999994E+02  0.99999948167E+01 0.  0.
    3000022    2    5    5    0    0 -0.26883293306E+02 -0.21458356518E+02  0.18037236954E+02  0.38840403413E+02  0.24999388319E+00 0.  0.
        -13    1    4    4    0    0  0.16208681662E+02  0.14434819428E+02 -0.11567861432E+02  0.24594955098E+02  0.10500000000E+00 0. -1.
         13    1    4    4    0    0  0.10523790777E+02  0.93097773941E+01 -0.73851766430E+01  0.15873688497E+02  0.10500000000E+00 0.  1.
    3000001    1    5    5    0    0 -0.11726085707E+02 -0.11589922533E+02  0.16939572605E+02  0.23659596581E+02  0.10000000000E+01 0.  1.
        -13    1    6    6    0    0 -0.97698930053E+01 -0.78134320463E+01  0.64952680354E+01  0.14096100934E+02  0.10500000000E+00 0. -1.
         13    1    6    6    0    0 -0.17113400300E+02 -0.13644924471E+02  0.11541968919E+02  0.24744302479E+02  0.10500000000E+00 0.  1.
</event>
<event>
11    0  0.3396091E-009  0.9118800E+02  0.7816531E-02  0.1126479E+00
         25   -1    0    0    0    0  0.00000000000E+00  0.00000000000E+00  0.99999998245E-14  0.12500000000E+03  0.12500000000E+03 0.  0.
    3000001    1    3    3    0    0 -0.13026871799E+01  0.36227730659E+01  0.46542052127E+01  0.61223447091E+01  0.10000000000E+01 0.  1.
    1000022    2    1    0    0    0  0.24677426965E+01  0.16148130383E+02  0.59492845825E+02  0.62499997051E+02  0.99999529028E+01 0.  0.
    3000022    2    3    3    0    0  0.37704298764E+01  0.12525357317E+02  0.54838640613E+02  0.56377652342E+02  0.24992384651E+00 0.  0.
    1000022    2    1    0    0    0 -0.24677426965E+01 -0.16148130383E+02 -0.59492845825E+02  0.62500002949E+02  0.99999897688E+01 0.  0.
    3000022    2    5    5    0    0 -0.35676361451E+01 -0.16661157921E+02 -0.57437740237E+02  0.59912258404E+02  0.24998513937E+00 0.  0.
        -13    1    4    4    0    0  0.21720163920E+01  0.69892634009E+01  0.30634476027E+02  0.31496818959E+02  0.10500000000E+00 0. -1.
         13    1    4    4    0    0  0.15984134844E+01  0.55360939164E+01  0.24204164586E+02  0.24880833383E+02  0.10500000000E+00 0.  1.
    3000001    1    5    5    0    0  0.10998934486E+01  0.51302753823E+00 -0.20551055883E+01  0.25877445454E+01  0.10000000000E+01 0.  1.
        -13    1    6    6    0    0 -0.20862333054E+01 -0.97013800576E+01 -0.33674913592E+02  0.35106694160E+02  0.10500000000E+00 0.  1.
         13    1    6    6    0    0 -0.14814028397E+01 -0.69597778639E+01 -0.23762826645E+02  0.24805564244E+02  0.10500000000E+00 0. -1.
</event>
<event>
11    0  0.3396091E-009  0.9118800E+02  0.7816531E-02  0.1126479E+00
         25   -1    0    0    0    0  0.00000000000E+00  0.00000000000E+00  0.99999998245E-14  0.12500000000E+03  0.12500000000E+03 0.  0.
    3000001    1    3    3    0    0  0.25600650960E+02  0.28445269554E+02 -0.11912489758E+02  0.40092818582E+02  0.10000000000E+01 0. -1.
    1000022    2    1    0    0    0  0.41838154470E+02  0.43876726376E+02 -0.11430251254E+02  0.62499992373E+02  0.10000005798E+02 0.  0.
    3000022    2    3    3    0    0  0.16237503509E+02  0.15431456822E+02  0.48223850377E+00  0.22407173791E+02  0.25000693187E+00 0.  0.
    1000022    2    1    0    0    0 -0.41838154470E+02 -0.43876726376E+02  0.11430251254E+02  0.62500007627E+02  0.10000101139E+02 0.  0.
    3000022    2    5    5    0    0 -0.80469180990E+01 -0.88291534308E+01 -0.16928030536E+01  0.12067928757E+02  0.24996222469E+00 0.  0.
        -13    1    4    4    0    0  0.85546357987E+01  0.81808533825E+01  0.19832192202E+00  0.11838856038E+02  0.10500000000E+00 0. -1.
         13    1    4    4    0    0  0.76828677106E+01  0.72506034393E+01  0.28391658175E+00  0.10568317753E+02  0.10500000000E+00 0.  1.
    3000001    1    5    5    0    0 -0.33791236371E+02 -0.35047572945E+02  0.13123054308E+02  0.50432078870E+02  0.10000000000E+01 0.  1.
        -13    1    6    6    0    0 -0.50478728267E+01 -0.56200896889E+01 -0.10926133867E+01  0.76335612396E+01  0.10500000000E+00 0.  1.
         13    1    6    6    0    0 -0.29990452723E+01 -0.32090637419E+01 -0.60018966686E+00  0.44343675176E+01  0.10500000000E+00 0. -1.
</event>
<event>
11    0  0.3396091E-009  0.9118800E+02  0.7816531E-02  0.1126479E+00
         25   -1    0    0    0    0  0.00000000000E+00  0.00000000000E+00  0.99999998245E-14  0.12500000000E+03  0.12500000000E+03 0.  0.
    3000001    1    3    3    0    0  0.25741791146E+01  0.13284224953E+02 -0.29805029556E+02  0.32748081127E+02  0.10000000000E+01 0.  1.
    1000022    2    1    0    0    0  0.11297982204E+02  0.30618770643E+02 -0.52355481579E+02  0.62499999137E+02  0.99999961599E+01 0.  0.
    3000022    2    3    3    0    0  0.87238030898E+01  0.17334545690E+02 -0.22550452023E+02  0.29751918010E+02  0.25004834001E+00 0.  0.
    1000022    2    1    0    0    0 -0.11297982204E+02 -0.30618770643E+02  0.52355481579E+02  0.62500000863E+02  0.10000006948E+02 0.  0.
    3000022    2    5    5    0    0 -0.75704403611E+01 -0.10166176911E+02  0.25919232597E+02  0.28853627823E+02  0.24999969695E+00 0.  0.
        -13    1    4    4    0    0  0.21031909080E+01  0.42166959015E+01 -0.54974715357E+01  0.72413503303E+01  0.10500000000E+00 0. -1.
         13    1    4    4    0    0  0.66206121818E+01  0.13117849789E+02 -0.17052980488E+02  0.22510567679E+02  0.10500000000E+00 0.  1.
    3000001    1    5    5    0    0 -0.37275418433E+01 -0.20452593732E+02  0.26436248981E+02  0.33646373040E+02  0.10000000000E+01 0. -1.
        -13    1    6    6    0    0 -0.20625102198E+01 -0.27869418325E+01  0.71737986324E+01  0.79684004043E+01  0.10500000000E+00 0. -1.
         13    1    6    6    0    0 -0.55079301413E+01 -0.73792350783E+01  0.18745433965E+02  0.20885227418E+02  0.10500000000E+00 0.  1.
</event>
<event>
11    0  0.3396091E-009  0.9118800E+02  0.7816531E-02  0.1126479E+00
         25   -1    0    0    0    0  0.00000000000E+00  0.00000000000E+00  0.99999998245E-14  0.12500000000E+03  0.12500000000E+03 0.  0.
    3000001    1    3    3    0    0  0.39461222255E+01  0.30637884152E+02 -0.32185293824E+02  0.44622247416E+02  0.10000000000E+01 0. -1.
    1000022    2    1    0    0    0  0.76214805994E+01  0.37839531232E+02 -0.48128300705E+02  0.62499997673E+02  0.99999644965E+01 0.  0.
    3000022    2    3    3    0    0  0.36753583739E+01  0.72016470805E+01 -0.15943006881E+02  0.17877750257E+02  0.25001196517E+00 0.  0.
    1000022    2    1    0    0    0 -0.76214805994E+01 -0.37839531232E+02  0.48128300705E+02  0.62500002327E+02  0.99999935889E+01 0.  0.
    3000022    2    5    5    0    0 -0.51653224224E+01 -0.33804211619E+02  0.37076742608E+02  0.50439593804E+02  0.25000361328E+00 0.  0.
        -13    1    4    4    0    0  0.22810731201E+01  0.44471195886E+01 -0.99865945258E+01  0.11167956950E+02  0.10500000000E+00 0. -1.
         13    1    4    4    0    0  0.13942852539E+01  0.27545274919E+01 -0.59564123555E+01  0.67097933069E+01  0.10500000000E+00 0.  1.
    3000001    1    5    5    0    0 -0.24561581770E+01 -0.40353196129E+01  0.11051558097E+02  0.12060408523E+02  0.10000000000E+01 0. -1.
        -13    1    6    6    0    0 -0.14715976923E+01 -0.99207962552E+01  0.10879269433E+02  0.14797206713E+02  0.10500000000E+00 0. -1.
         13    1    6    6    0    0 -0.36937247301E+01 -0.23883415364E+02  0.26197473174E+02  0.35642387091E+02  0.10500000000E+00 0.  1.
</event>
<event>
11    0  0.3396091E-009  0.9118800E+02  0.7816531E-02  0.1126479E+00
         25   -1    0    0    0    0  0.00000000000E+00  0.00000000000E+00  0.99999998245E-14  0.12500000000E+03  0.12500000000E+03 0.  0.
    3000001    1    3    3    0    0 -0.11202880867E+01 -0.10280810537E+01 -0.18479392914E+01  0.25936221149E+01  0.10000000000E+01 0. -1.
    1000022    2    1    0    0    0 -0.49505635684E+02 -0.35190727429E+02 -0.10819190024E+02  0.62499999891E+02  0.99999926040E+01 0.  0.
    3000022    2    3    3    0    0 -0.48385347598E+02 -0.34162646376E+02 -0.89712507321E+01  0.59906377776E+02  0.24997802206E+00 0.  0.
    1000022    2    1    0    0    0  0.49505635684E+02  0.35190727429E+02  0.10819190024E+02  0.62500000109E+02  0.99999939684E+01 0.  0.
    3000022    2    5    5    0    0  0.42244205335E+02  0.27304069530E+02  0.11869146150E+02  0.51681952624E+02  0.24999869626E+00 0.  0.
        -13    1    4    4    0    0 -0.26516861712E+02 -0.18653727549E+02 -0.49472621211E+01  0.32796218288E+02  0.10500000000E+00 0.  1.
         13    1    4    4    0    0 -0.21868485886E+02 -0.15508918827E+02 -0.40239886111E+01  0.27110159488E+02  0.10500000000E+00 0. -1.
    3000001    1    5    5    0    0  0.72614303489E+01  0.78866578989E+01 -0.10499561264E+01  0.10818047485E+02  0.10000000000E+01 0. -1.
        -13    1    6    6    0    0  0.15653393191E+02  0.10170351787E+02  0.44457657687E+01  0.19189596977E+02  0.10500000000E+00 0.  1.
         13    1    6    6    0    0  0.26590812144E+02  0.17133717743E+02  0.74233803812E+01  0.32492355647E+02  0.10500000000E+00 0. -1.
</event>
<event>
11    0  0.3396091E-009  0.9118800E+02  0.7816531E-02  0.1126479E+00
         25   -1    0    0    0    0  0.00000000000E+00  0.00000000000E+00  0.99999998245E-14  0.12500000000E+03  0.12500000000E+03 0.  0.
    3000001    1    3    3    0    0 -0.19772049893E+02 -0.41180617507E+02 -0.32800558438E+02  0.56246367430E+02  0.10000000000E+01 0. -1.
    1000022    2    1    0    0    0 -0.24094688883E+02 -0.43252818805E+02 -0.36808824846E+02  0.62499998852E+02  0.99999951484E+01 0.  0.
    3000022    2    3    3    0    0 -0.43226389905E+01 -0.20722012982E+01 -0.40082664081E+01  0.62536314220E+01  0.24996059929E+00 0.  0.
    1000022    2    1    0    0    0  0.24094688883E+02  0.43252818805E+02  0.36808824846E+02  0.62500001148E+02  0.10000009499E+02 0.  0.
    3000022    2    5    5    0    0  0.71410073770E+00  0.29820742580E+01 -0.91050102572E-01  0.30779047558E+01  0.25000164193E+00 0.  0.
        -13    1    4    4    0    0 -0.21349734166E+01 -0.10721112474E+01 -0.19299712734E+01  0.30730031130E+01  0.10500000000E+00 0.  1.
         13    1    4    4    0    0 -0.21876655740E+01 -0.10000900508E+01 -0.20782951347E+01  0.31806283090E+01  0.10500000000E+00 0. -1.
    3000001    1    5    5    0    0  0.23380588146E+02  0.40270744547E+02  0.36899874949E+02  0.59422096392E+02  0.10000000000E+01 0. -1.
        -13    1    6    6    0    0  0.53319601739E+00  0.21263553547E+01 -0.30470301068E-01  0.21949119634E+01  0.10500000000E+00 0.  1.
         13    1    6    6    0    0  0.18090472030E+00  0.85571890320E+00 -0.60579801504E-01  0.88299279243E+00  0.10500000000E+00 0. -1.
</event>
<event>
11    0  0.3396091E-009  0.9118800E+02  0.7816531E-02  0.1126479E+00
         25   -1    0    0    0    0  0.00000000000E+00  0.00000000000E+00  0.99999998245E-14  0.12500000000E+03  0.12500000000E+03 0.  0.
    3000001    1    3    3    0    0 -0.67640911658E+00  0.11606503219E+00  0.20707380947E+00  0.12303982881E+01  0.10000000000E+01 0.  1.
    1000022    2    1    0    0    0 -0.42695022504E+02  0.32749965821E+02 -0.30179871814E+02  0.62500001841E+02  0.10000017978E+02 0.  0.
    3000022    2    3    3    0    0 -0.42018613387E+02  0.32633900789E+02 -0.30386945623E+02  0.61269603553E+02  0.25000709391E+00 0.  0.
    1000022    2    1    0    0    0  0.42695022504E+02 -0.32749965821E+02  0.30179871814E+02  0.62499998159E+02  0.99999949655E+01 0.  0.
    3000022    2    5    5    0    0  0.26347142873E+02 -0.20566484744E+02  0.13158902582E+02  0.35921740633E+02  0.25000118362E+00 0.  0.
        -13    1    4    4    0    0 -0.12318905742E+02  0.95148399424E+01 -0.89059199115E+01  0.17933601208E+02  0.10500000000E+00 0. -1.
         13    1    4    4    0    0 -0.29699707645E+02  0.23119060847E+02 -0.21481025712E+02  0.43336002345E+02  0.10500000000E+00 0.  1.
    3000001    1    5    5    0    0  0.16347879631E+02 -0.12183481077E+02  0.17020969231E+02  0.26578257526E+02  0.10000000000E+01 0.  1.
        -13    1    6    6    0    0  0.11038717390E+02 -0.85356870169E+01  0.54835437868E+01  0.14993048787E+02  0.10500000000E+00 0. -1.
         13    1    6    6    0    0  0.15308425483E+02 -0.12030797728E+02  0.76753587957E+01  0.20928691846E+02  0.10500000000E+00 0.  1.
</event>
<event>
11    0  0.3396091E-009  0.9118800E+02  0.7816531E-02  0.1126479E+00
         25   -1    0    0    0    0  0.00000000000E+00  0.00000000000E+00  0.99999998245E-14  0.12500000000E+03  0.12500000000E+03 0.  0.
    3000001    1    3    3    0    0  0.57642836004E+02 -0.68727803228E+01  0.18908433540E+02  0.61061121107E+02  0.10000000000E+01 0.  1.
    1000022    2    1    0    0    0  0.57941504348E+02 -0.63859797391E+01  0.20205232698E+02  0.62499999556E+02  0.99999926396E+01 0.  0.
    3000022    2    3    3    0    0  0.29866834471E+00  0.48680058370E+00  0.12967991579E+01  0.14388784494E+01  0.25001109516E+00 0.  0.
    1000022    2    1    0    0    0 -0.57941504348E+02  0.63859797391E+01 -0.20205232698E+02  0.62500000444E+02  0.99999981838E+01 0.  0.
    3000022    2    5    5    0    0 -0.54860937475E+02  0.65071498769E+01 -0.16675322697E+02  0.57707836101E+02  0.25000060457E+00 0.  0.
        -13    1    4    4    0    0  0.23789008300E+00  0.32334046628E+00  0.78133912251E+00  0.88467879656E+00  0.10500000000E+00 0.  1.
         13    1    4    4    0    0  0.60778261706E-01  0.16346011742E+00  0.51546003539E+00  0.55419965280E+00  0.10500000000E+00 0. -1.
    3000001    1    5    5    0    0 -0.30805668735E+01 -0.12117013781E+00 -0.35299100018E+01  0.47921643425E+01  0.10000000000E+01 0.  1.
        -13    1    6    6    0    0 -0.18444617137E+02  0.22160939712E+01 -0.56556530868E+01  0.19419382345E+02  0.10500000000E+00 0. -1.
         13    1    6    6    0    0 -0.36416320338E+02  0.42910559057E+01 -0.11019669610E+02  0.38288453756E+02  0.10500000000E+00 0.  1.
</event>
<event>
11    0  0.3396091E-009  0.9118800E+02  0.7816531E-02  0.1126479E+00
         25   -1    0    0    0    0  0.00000000000E+00  0.00000000000E+00  0.99999998245E-14  0.12500000000E+03  0.12500000000E+03 0.  0.
    3000001    1    3    3    0    0 -0.10432426595E+02 -0.31799246838E+02  0.25119166046E+02  0.41856900590E+02  0.10000000000E+01 0.  1.
    1000022    2    1    0    0    0 -0.11534513777E+02 -0.43837709727E+02  0.41850448735E+02  0.62499998806E+02  0.99999994636E+01 0.  0.
    3000022    2    3    3    0    0 -0.11020871826E+01 -0.12038462889E+02  0.16731282689E+02  0.20643098216E+02  0.24999735187E+00 0.  0.
    1000022    2    1    0    0    0  0.11534513777E+02  0.43837709727E+02 -0.41850448735E+02  0.62500001194E+02  0.10000014390E+02 0.  0.
    3000022    2    5    5    0    0  0.51787427202E+01  0.29274932597E+02 -0.32453602101E+02  0.44012950858E+02  0.24999839583E+00 0.  0.
        -13    1    4    4    0    0 -0.42600216096E+00 -0.47380561557E+01  0.66905037354E+01  0.82100255304E+01  0.10500000000E+00 0. -1.
         13    1    4    4    0    0 -0.67608502162E+00 -0.73004067329E+01  0.10040778953E+02  0.12433072686E+02  0.10500000000E+00 0.  1.
    3000001    1    5    5    0    0  0.63557710571E+01  0.14562777130E+02 -0.93968466339E+01  0.18487050336E+02  0.10000000000E+01 0. -1.
        -13    1    6    6    0    0  0.21448136715E+01  0.12150390157E+02 -0.13373885219E+02  0.18196264383E+02  0.10500000000E+00 0. -1.
         13    1    6    6    0    0  0.30339290487E+01  0.17124542440E+02 -0.19079716882E+02  0.25816686475E+02  0.10500000000E+00 0.  1.
</event>
<event>
11    0  0.3396091E-009  0.9118800E+02  0.7816531E-02  0.1126479E+00
         25   -1    0    0    0    0  0.00000000000E+00  0.00000000000E+00  0.99999998245E-14  0.12500000000E+03  0.12500000000E+03 0.  0.
    3000001    1    3    3    0    0 -0.12035851237E+02  0.25652574022E+01  0.20633422134E+02  0.24045381459E+02  0.10000000000E+01 0.  1.
    1000022    2    1    0    0    0 -0.20968486045E+02  0.13052147408E+02  0.56535068736E+02  0.62499998299E+02  0.99999915681E+01 0.  0.
    3000022    2    3    3    0    0 -0.89326348088E+01  0.10486890005E+02  0.35901646602E+02  0.38454616840E+02  0.25000193474E+00 0.  0.
    1000022    2    1    0    0    0  0.20968486045E+02 -0.13052147408E+02 -0.56535068736E+02  0.62500001701E+02  0.10000012830E+02 0.  0.
    3000022    2    5    5    0    0  0.19945858168E+02 -0.14183745703E+02 -0.49339518669E+02  0.55076914523E+02  0.25002131038E+00 0.  0.
        -13    1    4    4    0    0 -0.29077835144E+01  0.34273116302E+01  0.11572507893E+02  0.12415137289E+02  0.10500000000E+00 0.  1.
         13    1    4    4    0    0 -0.60248512944E+01  0.70595783753E+01  0.24329138710E+02  0.26039479552E+02  0.10500000000E+00 0. -1.
    3000001    1    5    5    0    0  0.10226278776E+01  0.11315982955E+01 -0.71955500677E+01  0.74230871782E+01  0.10000000000E+01 0.  1.
        -13    1    6    6    0    0  0.12759705716E+02 -0.90242642172E+01 -0.31409866282E+02  0.35083303144E+02  0.10500000000E+00 0.  1.
         13    1    6    6    0    0  0.71861524522E+01 -0.51594814859E+01 -0.17929652387E+02  0.19993611379E+02  0.10500000000E+00 0. -1.
</event>
<event>
11    0  0.3396091E-009  0.9118800E+02  0.7816531E-02  0.1126479E+00
         25   -1    0    0    0    0  0.00000000000E+00  0.00000000000E+00  0.99999998245E-14  0.12500000000E+03  0.12500000000E+03 0.  0.
    3000001    1    3    3    0    0  0.30115344904E+02 -0.20455136659E+02  0.41188239099E+02  0.54980156916E+02  0.10000000000E+01 0. -1.
    1000022    2    1    0    0    0  0.34043501461E+02 -0.19662692499E+02  0.47546480721E+02  0.62500005123E+02  0.10000067172E+02 0.  0.
    3000022    2    3    3    0    0  0.39281565568E+01  0.79244415939E+00  0.63582416218E+01  0.75198482075E+01  0.24999772275E+00 0.  0.
    1000022    2    1    0    0    0 -0.34043501461E+02  0.19662692499E+02 -0.47546480721E+02  0.62499994877E+02  0.10000003131E+02 0.  0.
    3000022    2    5    5    0    0 -0.25008897559E+02  0.18734969312E+02 -0.34211412272E+02  0.46334946516E+02  0.25001350849E+00 0.  0.
        -13    1    4    4    0    0  0.15546445173E+01  0.31116382628E+00  0.26353997365E+01  0.30773526403E+01  0.10500000000E+00 0. -1.
         13    1    4    4    0    0  0.23735120396E+01  0.48128033311E+00  0.37228418854E+01  0.44424955672E+01  0.10500000000E+00 0.  1.
    3000001    1    5    5    0    0 -0.90346039027E+01  0.92772318750E+00 -0.13335068448E+02  0.16165048361E+02  0.10000000000E+01 0. -1.
        -13    1    6    6    0    0 -0.67268419489E+01  0.50719478458E+01 -0.91877070187E+01  0.12465955351E+02  0.10500000000E+00 0.  1.
         13    1    6    6    0    0 -0.18282055610E+02  0.13663021466E+02 -0.25023705253E+02  0.33868991164E+02  0.10500000000E+00 0. -1.
</event>
<event>
11    0  0.3396091E-009  0.9118800E+02  0.7816531E-02  0.1126479E+00
         25   -1    0    0    0    0  0.00000000000E+00  0.00000000000E+00  0.99999998245E-14  0.12500000000E+03  0.12500000000E+03 0.  0.
    3000001    1    3    3    0    0  0.15145021915E+01  0.32330139545E+02  0.60902499178E+00  0.32386765065E+02  0.10000000000E+01 0. -1.
    1000022    2    1    0    0    0 -0.19516556219E+01  0.60965516207E+02  0.92545724145E+01  0.62500001821E+02  0.99999995512E+01 0.  0.
    3000022    2    3    3    0    0 -0.34661578134E+01  0.28635376661E+02  0.86455474227E+01  0.30113236756E+02  0.24998235812E+00 0.  0.
    1000022    2    1    0    0    0  0.19516556219E+01 -0.60965516207E+02 -0.92545724145E+01  0.62499998179E+02  0.99999767869E+01 0.  0.
    3000022    2    5    5    0    0  0.39141819375E+00 -0.55662706073E+02 -0.59474411883E+01  0.55981466665E+02  0.24999544720E+00 0.  0.
        -13    1    4    4    0    0 -0.16864221750E+01  0.13873474393E+02  0.42592098219E+01  0.14610585368E+02  0.10500000000E+00 0.  1.
         13    1    4    4    0    0 -0.17797356383E+01  0.14761902269E+02  0.43863376008E+01  0.15502651389E+02  0.10500000000E+00 0. -1.
    3000001    1    5    5    0    0  0.15602374281E+01 -0.53028101343E+01 -0.33071312262E+01  0.65185315140E+01  0.10000000000E+01 0. -1.
        -13    1    6    6    0    0  0.27413249188E+00 -0.34758238240E+02 -0.36611247195E+01  0.34951754367E+02  0.10500000000E+00 0. -1.
         13    1    6    6    0    0  0.11728570187E+00 -0.20904467833E+02 -0.22863164688E+01  0.21029712297E+02  0.10500000000E+00 0.  1.
</event>
<event>
11    0  0.3396091E-009  0.9118800E+02  0.7816531E-02  0.1126479E+00
         25   -1    0    0    0    0  0.00000000000E+00  0.00000000000E+00  0.99999998245E-14  0.12500000000E+03  0.12500000000E+03 0.  0.
    3000001    1    3    3    0    0  0.12459096224E+02 -0.27834822097E+02  0.98029004199E+00  0.30528140599E+02  0.10000000000E+01 0. -1.
    1000022    2    1    0    0    0  0.18843064919E+02 -0.57963301276E+02  0.95626629625E+01  0.62500002422E+02  0.10000019478E+02 0.  0.
    3000022    2    3    3    0    0  0.63839686949E+01 -0.30128479179E+02  0.85823729205E+01  0.31971861823E+02  0.25001913301E+00 0.  0.
    1000022    2    1    0    0    0 -0.18843064919E+02  0.57963301276E+02 -0.95626629625E+01  0.62499997578E+02  0.99999891977E+01 0.  0.
    3000022    2    5    5    0    0 -0.18148999721E+02  0.45233369681E+02 -0.97773866022E+01  0.49710197300E+02  0.25000645609E+00 0.  0.
        -13    1    4    4    0    0  0.32025558238E+01 -0.15434976836E+02  0.44064080124E+01  0.16368333156E+02  0.10500000000E+00 0.  1.
         13    1    4    4    0    0  0.31814128711E+01 -0.14693502342E+02  0.41759649081E+01  0.15603528667E+02  0.10500000000E+00 0. -1.
    3000001    1    5    5    0    0 -0.69406519723E+00  0.12729931595E+02  0.21472363973E+00  0.12789800278E+02  0.10000000000E+01 0. -1.
        -13    1    6    6    0    0 -0.13889013634E+02  0.34575523434E+02 -0.74751783673E+01  0.38003431912E+02  0.10500000000E+00 0.  1.
         13    1    6    6    0    0 -0.42599860875E+01  0.10657846247E+02 -0.23022082349E+01  0.11706765388E+02  0.10500000000E+00 0. -1.
</event>
<event>
11    0  0.3396091E-009  0.9118800E+02  0.7816531E-02  0.1126479E+00
         25   -1    0    0    0    0  0.00000000000E+00  0.00000000000E+00  0.99999998245E-14  0.12500000000E+03  0.12500000000E+03 0.  0.
    3000001    1    3    3    0    0 -0.15219881963E+02 -0.13678063574E+02 -0.13475813820E+02  0.24522067372E+02  0.10000000000E+01 0.  1.
    1000022    2    1    0    0    0 -0.30112480128E+02 -0.43246903474E+02 -0.32081055301E+02  0.62499998884E+02  0.99999815842E+01 0.  0.
    3000022    2    3    3    0    0 -0.14892598166E+02 -0.29568839900E+02 -0.18605241482E+02  0.37977931512E+02  0.24999638410E+00 0.  0.
    1000022    2    1    0    0    0  0.30112480128E+02  0.43246903474E+02  0.32081055301E+02  0.62500001116E+02  0.99999955344E+01 0.  0.
    3000022    2    5    5    0    0  0.24789188302E+02  0.33224830074E+02  0.29328572349E+02  0.50780122555E+02  0.25000096999E+00 0.  0.
        -13    1    4    4    0    0 -0.83844296852E+01 -0.16742801150E+02 -0.10465533940E+02  0.21451304789E+02  0.10500000000E+00 0.  1.
         13    1    4    4    0    0 -0.65081684807E+01 -0.12826038750E+02 -0.81397075411E+01  0.16526626723E+02  0.10500000000E+00 0. -1.
    3000001    1    5    5    0    0  0.53232918260E+01  0.10022073399E+02  0.27524829527E+01  0.11719878561E+02  0.10000000000E+01 0.  1.
        -13    1    6    6    0    0  0.18226122295E+02  0.24481647633E+02  0.21605671888E+02  0.37394634474E+02  0.10500000000E+00 0. -1.
         13    1    6    6    0    0  0.65630660079E+01  0.87431824416E+01  0.77229004607E+01  0.13385488081E+02  0.10500000000E+00 0.  1.
</event>
<event>
11    0  0.3396091E-009  0.9118800E+02  0.7816531E-02  0.1126479E+00
         25   -1    0    0    0    0  0.00000000000E+00  0.00000000000E+00  0.99999998245E-14  0.12500000000E+03  0.12500000000E+03 0.  0.
    3000001    1    3    3    0    0  0.83378233162E+01  0.64700146879E+01 -0.20002177553E+02  0.22637744909E+02  0.10000000000E+01 0.  1.
    1000022    2    1    0    0    0  0.25905264098E+02  0.28506828635E+02 -0.48192613943E+02  0.62499999585E+02  0.99999961294E+01 0.  0.
    3000022    2    3    3    0    0  0.17567440782E+02  0.22036813947E+02 -0.28190436391E+02  0.39862254676E+02  0.24999875987E+00 0.  0.
    1000022    2    1    0    0    0 -0.25905264098E+02 -0.28506828635E+02  0.48192613943E+02  0.62500000415E+02  0.10000001322E+02 0.  0.
    3000022    2    5    5    0    0 -0.11484011429E+02 -0.18343700956E+02  0.21649310363E+02  0.30612563113E+02  0.24999578156E+00 0.  0.
        -13    1    4    4    0    0  0.87068354412E+01  0.10966152298E+02 -0.14094064215E+02  0.19867540128E+02  0.10500000000E+00 0. -1.
         13    1    4    4    0    0  0.88606053409E+01  0.11070661649E+02 -0.14096372175E+02  0.19994714548E+02  0.10500000000E+00 0.  1.
    3000001    1    5    5    0    0 -0.14421252669E+02 -0.10163127679E+02  0.26543303580E+02  0.31887437302E+02  0.10000000000E+01 0. -1.
        -13    1    6    6    0    0 -0.44902844409E+01 -0.72770738706E+01  0.85946980471E+01  0.12124286288E+02  0.10500000000E+00 0.  1.
         13    1    6    6    0    0 -0.69937269884E+01 -0.11066627085E+02  0.13054612316E+02  0.18488276825E+02  0.10500000000E+00 0. -1.
</event>
<event>
11    0  0.3396091E-009  0.9118800E+02  0.7816531E-02  0.1126479E+00
         25   -1    0    0    0    0  0.00000000000E+00  0.00000000000E+00  0.99999998245E-14  0.12500000000E+03  0.12500000000E+03 0.  0.
    3000001    1    3    3    0    0 -0.53666298398E+02 -0.24138107643E+01  0.15555067039E+02  0.55936197375E+02  0.10000000000E+01 0.  1.
    1000022    2    1    0    0    0 -0.59352106572E+02  0.59772030121E+00  0.16829136645E+02  0.62499997660E+02  0.10000002166E+02 0.  0.
    3000022    2    3    3    0    0 -0.56858081736E+01  0.30115310655E+01  0.12740696059E+01  0.65638002859E+01  0.24997377285E+00 0.  0.
    1000022    2    1    0    0    0  0.59352106572E+02 -0.59772030121E+00 -0.16829136645E+02  0.62500002340E+02  0.10000031410E+02 0.  0.
    3000022    2    5    5    0    0  0.52968026655E+02  0.24474171115E+01 -0.15385376640E+02  0.55212082115E+02  0.24999783368E+00 0.  0.
        -13    1    4    4    0    0 -0.26262682272E+01  0.13814712645E+01  0.51981981479E+00  0.30144626878E+01  0.10500000000E+00 0. -1.
         13    1    4    4    0    0 -0.30595399463E+01  0.16300598009E+01  0.75424979114E+00  0.35493375981E+01  0.10500000000E+00 0.  1.
    3000001    1    5    5    0    0  0.63840799169E+01 -0.30451374127E+01 -0.14437600046E+01  0.72879202244E+01  0.10000000000E+01 0.  1.
        -13    1    6    6    0    0  0.38977064736E+02  0.17963727715E+01 -0.11355912538E+02  0.40637498756E+02  0.10500000000E+00 0. -1.
         13    1    6    6    0    0  0.13990961918E+02  0.65104433992E+00 -0.40294641027E+01  0.14574583359E+02  0.10500000000E+00 0.  1.
</event>
<event>
11    0  0.3396091E-009  0.9118800E+02  0.7816531E-02  0.1126479E+00
         25   -1    0    0    0    0  0.00000000000E+00  0.00000000000E+00  0.99999998245E-14  0.12500000000E+03  0.12500000000E+03 0.  0.
    3000001    1    3    3    0    0  0.13700329700E+02 -0.30236641648E+02 -0.31762193741E+01  0.33362282619E+02  0.10000000000E+01 0. -1.
    1000022    2    1    0    0    0  0.33013636209E+02 -0.52047829006E+02 -0.27153814360E+01  0.62500000056E+02  0.10000001536E+02 0.  0.
    3000022    2    3    3    0    0  0.19313306509E+02 -0.21811187358E+02  0.46083793809E+00  0.29137717438E+02  0.25000714196E+00 0.  0.
    1000022    2    1    0    0    0 -0.33013636209E+02  0.52047829006E+02  0.27153814360E+01  0.62499999944E+02  0.10000000834E+02 0.  0.
    3000022    2    5    5    0    0 -0.25544676279E+01  0.70692623348E+00  0.73774143033E+00  0.27625719099E+01  0.24998315475E+00 0.  0.
        -13    1    4    4    0    0  0.14056982806E+02 -0.15921041493E+02  0.31613375095E+00  0.21241216853E+02  0.10500000000E+00 0.  1.
         13    1    4    4    0    0  0.52563237036E+01 -0.58901458649E+01  0.14470418714E+00  0.78965005850E+01  0.10500000000E+00 0. -1.
    3000001    1    5    5    0    0 -0.30459168581E+02  0.51340902772E+02  0.19776400057E+01  0.59737428034E+02  0.10000000000E+01 0.  1.
        -13    1    6    6    0    0 -0.11149113681E+01  0.30642677553E+00  0.25387227426E+00  0.11884447228E+01  0.10500000000E+00 0.  1.
         13    1    6    6    0    0 -0.14395562598E+01  0.40049945796E+00  0.48386915607E+00  0.15741271871E+01  0.10500000000E+00 0. -1.
</event>
<event>
11    0  0.3396091E-009  0.9118800E+02  0.7816531E-02  0.1126479E+00
         25   -1    0    0    0    0  0.00000000000E+00  0.00000000000E+00  0.99999998245E-14  0.12500000000E+03  0.12500000000E+03 0.  0.
    3000001    1    3    3    0    0 -0.22085515048E+01 -0.32334070532E+02 -0.19531836926E+02  0.37853169888E+02  0.10000000000E+01 0.  1.
    1000022    2    1    0    0    0 -0.16668633046E+01 -0.56339284874E+02 -0.25086990776E+02  0.62499994720E+02  0.99999390170E+01 0.  0.
    3000022    2    3    3    0    0  0.54168820017E+00 -0.24005214343E+02 -0.55551538503E+01  0.24646824831E+02  0.24999646176E+00 0.  0.
    1000022    2    1    0    0    0  0.16668633046E+01  0.56339284874E+02  0.25086990776E+02  0.62500005280E+02  0.10000005018E+02 0.  0.
    3000022    2    5    5    0    0 -0.41662736598E+01  0.21880773370E+02  0.93290223526E+01  0.24149932649E+02  0.25001886681E+00 0.  0.
        -13    1    4    4    0    0  0.27359751125E+00 -0.14439867096E+02 -0.33772272341E+01  0.14832441004E+02  0.10500000000E+00 0.  1.
         13    1    4    4    0    0  0.26809068892E+00 -0.95653472470E+01 -0.21779266162E+01  0.98143838278E+01  0.10500000000E+00 0. -1.
    3000001    1    5    5    0    0  0.58331369644E+01  0.34458511505E+02  0.15757968423E+02  0.38350072631E+02  0.10000000000E+01 0. -1.
        -13    1    6    6    0    0 -0.19271508945E+01  0.10212884708E+02  0.44235881223E+01  0.11295843550E+02  0.10500000000E+00 0. -1.
         13    1    6    6    0    0 -0.22391227654E+01  0.11667888661E+02  0.49054342302E+01  0.12854089099E+02  0.10500000000E+00 0.  1.
</event>
<event>
11    0  0.3396091E-009  0.9118800E+02  0.7816531E-02  0.1126479E+00
         25   -1    0    0    0    0  0.00000000000E+00  0.00000000000E+00  0.99999998245E-14  0.12500000000E+03  0.12500000000E+03 0.  0.
    3000001    1    3    3    0    0  0.16788289020E+01 -0.93907757060E+00 -0.62467839310E+00  0.22562261103E+01  0.10000000000E+01 0.  1.
    1000022    2    1    0    0    0  0.45577880443E+02  0.11619364674E+02 -0.39923641584E+02  0.62499999294E+02  0.99999966682E+01 0.  0.
    3000022    2    3    3    0    0  0.43899051541E+02  0.12558442245E+02 -0.39298963191E+02  0.60243773184E+02  0.25000353440E+00 0.  0.
    1000022    2    1    0    0    0 -0.45577880443E+02 -0.11619364674E+02  0.39923641584E+02  0.62500000706E+02  0.10000005487E+02 0.  0.
    3000022    2    5    5    0    0 -0.17118205136E+01 -0.27322868802E+01  0.18166669918E+01  0.37092456669E+01  0.25000678210E+00 0.  0.
        -13    1    4    4    0    0  0.12876020911E+02  0.37251551970E+01 -0.11512756710E+02  0.17669841193E+02  0.10500000000E+00 0. -1.
         13    1    4    4    0    0  0.31023030630E+02  0.88332870478E+01 -0.27786206482E+02  0.42573931991E+02  0.10500000000E+00 0.  1.
    3000001    1    5    5    0    0 -0.43866059929E+02 -0.88870777940E+01  0.38106974592E+02  0.58790755039E+02  0.10000000000E+01 0. -1.
        -13    1    6    6    0    0 -0.87225545781E+00 -0.14678735500E+01  0.89934613792E+00  0.19327003953E+01  0.10500000000E+00 0. -1.
         13    1    6    6    0    0 -0.83956505584E+00 -0.12644133303E+01  0.91732085391E+00  0.17765452715E+01  0.10500000000E+00 0.  1.
</event>
<event>
11    0  0.3396091E-009  0.9118800E+02  0.7816531E-02  0.1126479E+00
         25   -1    0    0    0    0  0.00000000000E+00  0.00000000000E+00  0.99999998245E-14  0.12500000000E+03  0.12500000000E+03 0.  0.
    3000001    1    3    3    0    0  0.46330571497E+01  0.35647503864E+01 -0.61691299002E+01  0.85575012472E+01  0.10000000000E+01 0.  1.
    1000022    2    1    0    0    0  0.15533963940E+02  0.41645399815E+02 -0.42785589435E+02  0.62500000630E+02  0.10000002697E+02 0.  0.
    3000022    2    3    3    0    0  0.10900906790E+02  0.38080649429E+02 -0.36616459535E+02  0.53942499383E+02  0.25000198300E+00 0.  0.
    1000022    2    1    0    0    0 -0.15533963940E+02 -0.41645399815E+02  0.42785589435E+02  0.62499999370E+02  0.99999948258E+01 0.  0.
    3000022    2    5    5    0    0 -0.15585490270E+02 -0.36386233949E+02  0.33853392818E+02  0.52086276839E+02  0.25000322474E+00 0.  0.
        -13    1    4    4    0    0  0.50131515350E+01  0.17277143503E+02 -0.16607796856E+02  0.24483899145E+02  0.10500000000E+00 0.  1.
         13    1    4    4    0    0  0.58877552555E+01  0.20803505926E+02 -0.20008662679E+02  0.29458600238E+02  0.10500000000E+00 0. -1.
    3000001    1    5    5    0    0  0.51526330271E-01 -0.52591658660E+01  0.89321966166E+01  0.10413722532E+02  0.10000000000E+01 0. -1.
        -13    1    6    6    0    0 -0.10965266732E+02 -0.25613974307E+02  0.23887080227E+02  0.36700359413E+02  0.10500000000E+00 0.  1.
         13    1    6    6    0    0 -0.46202235382E+01 -0.10772259642E+02  0.99663125914E+01  0.15385917425E+02  0.10500000000E+00 0. -1.
</event>
<event>
11    0  0.3396091E-009  0.9118800E+02  0.7816531E-02  0.1126479E+00
         25   -1    0    0    0    0  0.00000000000E+00  0.00000000000E+00  0.99999998245E-14  0.12500000000E+03  0.12500000000E+03 0.  0.
    3000001    1    3    3    0    0  0.43669957756E+01 -0.22506387766E+02 -0.16135087001E+02  0.28052614404E+02  0.10000000000E+01 0.  1.
    1000022    2    1    0    0    0  0.32679221581E+01 -0.54689743981E+02 -0.28365518840E+02  0.62499999528E+02  0.99999934970E+01 0.  0.
    3000022    2    3    3    0    0 -0.10990736175E+01 -0.32183356215E+02 -0.12230431839E+02  0.34447385124E+02  0.24999758409E+00 0.  0.
    1000022    2    1    0    0    0 -0.32679221581E+01  0.54689743981E+02  0.28365518840E+02  0.62500000472E+02  0.99999994018E+01 0.  0.
    3000022    2    5    5    0    0 -0.47436853647E+01  0.45419075635E+02  0.26742861530E+02  0.52921055574E+02  0.24999576754E+00 0.  0.
        -13    1    4    4    0    0 -0.41707641026E+00 -0.13657591940E+02 -0.52351384635E+01  0.14632890010E+02  0.10500000000E+00 0. -1.
         13    1    4    4    0    0 -0.68199720727E+00 -0.18525764275E+02 -0.69952933759E+01  0.19814495113E+02  0.10500000000E+00 0.  1.
    3000001    1    5    5    0    0  0.14757632066E+01  0.92706683457E+01  0.16226573109E+01  0.95789448984E+01  0.10000000000E+01 0.  1.
        -13    1    6    6    0    0 -0.28818226937E+01  0.27812092315E+02  0.16307864485E+02  0.32369350473E+02  0.10500000000E+00 0. -1.
         13    1    6    6    0    0 -0.18618626709E+01  0.17606983320E+02  0.10434997045E+02  0.20551705101E+02  0.10500000000E+00 0.  1.
</event>
<event>
11    0  0.3396091E-009  0.9118800E+02  0.7816531E-02  0.1126479E+00
         25   -1    0    0    0    0  0.00000000000E+00  0.00000000000E+00  0.99999998245E-14  0.12500000000E+03  0.12500000000E+03 0.  0.
    3000001    1    3    3    0    0  0.25453334167E+02  0.31076336991E+02 -0.96745730558E+01  0.41330476707E+02  0.10000000000E+01 0. -1.
    1000022    2    1    0    0    0  0.35881034074E+02  0.45551107014E+02 -0.21068885292E+02  0.62499999508E+02  0.10000002738E+02 0.  0.
    3000022    2    3    3    0    0  0.10427699907E+02  0.14474770022E+02 -0.11394312236E+02  0.21169522801E+02  0.24990351357E+00 0.  0.
    1000022    2    1    0    0    0 -0.35881034074E+02 -0.45551107014E+02  0.21068885292E+02  0.62500000492E+02  0.10000008882E+02 0.  0.
    3000022    2    5    5    0    0 -0.13815148405E+02 -0.22402713760E+02  0.53837393187E+01  0.26866094941E+02  0.24999814066E+00 0.  0.
        -13    1    4    4    0    0  0.72316043162E+01  0.10072371483E+02 -0.78686556523E+01  0.14685895786E+02  0.10500000000E+00 0. -1.
         13    1    4    4    0    0  0.31960955906E+01  0.44023985393E+01 -0.35256565839E+01  0.64836270151E+01  0.10500000000E+00 0.  1.
    3000001    1    5    5    0    0 -0.22065885669E+02 -0.23148393253E+02  0.15685145973E+02  0.35633905550E+02  0.10000000000E+01 0. -1.
        -13    1    6    6    0    0 -0.32219372925E+01 -0.52048985556E+01  0.12474315972E+01  0.62481164746E+01  0.10500000000E+00 0. -1.
         13    1    6    6    0    0 -0.10593211112E+02 -0.17197815205E+02  0.41363077215E+01  0.20617978467E+02  0.10500000000E+00 0.  1.
</event>
<event>
11    0  0.3396091E-009  0.9118800E+02  0.7816531E-02  0.1126479E+00
         25   -1    0    0    0    0  0.00000000000E+00  0.00000000000E+00  0.99999998245E-14  0.12500000000E+03  0.12500000000E+03 0.  0.
    3000001    1    3    3    0    0 -0.97766567037E+01 -0.45149447532E+02  0.34719364038E+01  0.46336918015E+02  0.10000000000E+01 0. -1.
    1000022    2    1    0    0    0 -0.18470708512E+02 -0.58771847894E+02  0.33095167575E+01  0.62499999282E+02  0.99999915640E+01 0.  0.
    3000022    2    3    3    0    0 -0.86940518085E+01 -0.13622400362E+02 -0.16241964629E+00  0.16163081267E+02  0.24997486282E+00 0.  0.
    1000022    2    1    0    0    0  0.18470708512E+02  0.58771847894E+02 -0.33095167575E+01  0.62500000718E+02  0.10000000539E+02 0.  0.
    3000022    2    5    5    0    0  0.66623949569E+01  0.18584458167E+02 -0.56493205547E+01  0.20536477940E+02  0.25002309879E+00 0.  0.
        -13    1    4    4    0    0 -0.50367554110E+01 -0.78890256841E+01 -0.29235731819E-01  0.93604225889E+01  0.10500000000E+00 0.  1.
         13    1    4    4    0    0 -0.36572963976E+01 -0.57333746781E+01 -0.13318391447E+00  0.68026586783E+01  0.10500000000E+00 0. -1.
    3000001    1    5    5    0    0  0.11808313555E+02  0.40187389727E+02  0.23398037972E+01  0.41963522778E+02  0.10000000000E+01 0.  1.
        -13    1    6    6    0    0  0.17098403628E+01  0.47494838116E+01 -0.14147659842E+01  0.52434471803E+01  0.10500000000E+00 0. -1.
         13    1    6    6    0    0  0.49525545941E+01  0.13834974355E+02 -0.42345545705E+01  0.15293030760E+02  0.10500000000E+00 0.  1.
</event>
<event>
11    0  0.3396091E-009  0.9118800E+02  0.7816531E-02  0.1126479E+00
         25   -1    0    0    0    0  0.00000000000E+00  0.00000000000E+00  0.99999998245E-14  0.12500000000E+03  0.12500000000E+03 0.  0.
    3000001    1    3    3    0    0  0.62952874333E+01 -0.63990692376E+00  0.95769703219E+01  0.11522086846E+02  0.10000000000E+01 0. -1.
    1000022    2    1    0    0    0  0.42097318184E+02  0.13177546056E+02  0.43132563105E+02  0.62500000836E+02  0.10000009310E+02 0.  0.
    3000022    2    3    3    0    0  0.35802030751E+02  0.13817452979E+02  0.33555592783E+02  0.50977913990E+02  0.24999013957E+00 0.  0.
    1000022    2    1    0    0    0 -0.42097318184E+02 -0.13177546056E+02 -0.43132563105E+02  0.62499999164E+02  0.99999988561E+01 0.  0.
    3000022    2    5    5    0    0 -0.30339643915E+02 -0.12981111304E+02 -0.27789373795E+02  0.43142960418E+02  0.24998814154E+00 0.  0.
        -13    1    4    4    0    0  0.12183987666E+02  0.47557084269E+01  0.11467172681E+02  0.17394636886E+02  0.10500000000E+00 0.  1.
         13    1    4    4    0    0  0.23618043085E+02  0.90617445525E+01  0.22088420102E+02  0.33583277104E+02  0.10500000000E+00 0. -1.
    3000001    1    5    5    0    0 -0.11757674269E+02 -0.19643475163E+00 -0.15343189310E+02  0.19357038746E+02  0.10000000000E+01 0.  1.
        -13    1    6    6    0    0 -0.13064413545E+02 -0.55672390950E+01 -0.12040213268E+02  0.18618560980E+02  0.10500000000E+00 0. -1.
         13    1    6    6    0    0 -0.17275230370E+02 -0.74138722090E+01 -0.15749160527E+02  0.24524399438E+02  0.10500000000E+00 0.  1.
</event>
<event>
11    0  0.3396091E-009  0.9118800E+02  0.7816531E-02  0.1126479E+00
         25   -1    0    0    0    0  0.00000000000E+00  0.00000000000E+00  0.99999998245E-14  0.12500000000E+03  0.12500000000E+03 0.  0.
    3000001    1    3    3    0    0 -0.12595684820E+01 -0.47422395702E+01 -0.89780170978E+01  0.10280084626E+02  0.10000000000E+01 0.  1.
    1000022    2    1    0    0    0  0.60704880662E+01 -0.42410243091E+02 -0.44393376642E+02  0.62499988944E+02  0.99998592015E+01 0.  0.
    3000022    2    3    3    0    0  0.73300565482E+01 -0.37668003520E+02 -0.35415359544E+02  0.52219904319E+02  0.24999447437E+00 0.  0.
    1000022    2    1    0    0    0 -0.60704880662E+01  0.42410243091E+02  0.44393376642E+02  0.62500011056E+02  0.99999973963E+01 0.  0.
    3000022    2    5    5    0    0 -0.28699538228E+01  0.23361021634E+02  0.17304008493E+02  0.29214126296E+02  0.24999711930E+00 0.  0.
        -13    1    4    4    0    0  0.45392659343E+01 -0.23618854747E+02 -0.22225932236E+02  0.32748409481E+02  0.10500000000E+00 0. -1.
         13    1    4    4    0    0  0.27907906140E+01 -0.14049148773E+02 -0.13189427308E+02  0.19471494838E+02  0.10500000000E+00 0.  1.
    3000001    1    5    5    0    0 -0.32005342434E+01  0.19049221456E+02  0.27089368149E+02  0.33285884760E+02  0.10000000000E+01 0. -1.
        -13    1    6    6    0    0 -0.21890225575E+01  0.17823796429E+02  0.13181208414E+02  0.22276328673E+02  0.10500000000E+00 0. -1.
         13    1    6    6    0    0 -0.68093126531E+00  0.55372252058E+01  0.41228000785E+01  0.69377976228E+01  0.10500000000E+00 0.  1.
</event>
<event>
11    0  0.3396091E-009  0.9118800E+02  0.7816531E-02  0.1126479E+00
         25   -1    0    0    0    0  0.00000000000E+00  0.00000000000E+00  0.99999998245E-14  0.12500000000E+03  0.12500000000E+03 0.  0.
    3000001    1    3    3    0    0  0.12510708291E+02  0.15498715549E+02 -0.12362628244E+02  0.23464070037E+02  0.10000000000E+01 0. -1.
    1000022    2    1    0    0    0  0.41882590700E+02  0.38445392470E+02 -0.23959348658E+02  0.62500000767E+02  0.10000005091E+02 0.  0.
    3000022    2    3    3    0    0  0.29371882410E+02  0.22946676921E+02 -0.11596720414E+02  0.39035930730E+02  0.25001117513E+00 0.  0.
    1000022    2    1    0    0    0 -0.41882590700E+02 -0.38445392470E+02  0.23959348658E+02  0.62499999233E+02  0.99999955041E+01 0.  0.
    3000022    2    5    5    0    0 -0.19857359750E+02 -0.17588188614E+02  0.58752592394E+01  0.27170577483E+02  0.24998931592E+00 0.  0.
        -13    1    4    4    0    0  0.17062792438E+02  0.13406607930E+02 -0.67761227241E+01  0.22733299060E+02  0.10500000000E+00 0. -1.
         13    1    4    4    0    0  0.12309089972E+02  0.95400689907E+01 -0.48205976901E+01  0.16302631670E+02  0.10500000000E+00 0.  1.
    3000001    1    5    5    0    0 -0.22025230951E+02 -0.20857203855E+02  0.18084089419E+02  0.35329421750E+02  0.10000000000E+01 0.  1.
        -13    1    6    6    0    0 -0.64521075713E+01 -0.56462078431E+01  0.18959756265E+01  0.87815205800E+01  0.10500000000E+00 0.  1.
         13    1    6    6    0    0 -0.13405252179E+02 -0.11941980771E+02  0.39792836129E+01  0.18389056903E+02  0.10500000000E+00 0. -1.
</event>
<event>
11    0  0.3396091E-009  0.9118800E+02  0.7816531E-02  0.1126479E+00
         25   -1    0    0    0    0  0.00000000000E+00  0.00000000000E+00  0.99999998245E-14  0.12500000000E+03  0.12500000000E+03 0.  0.
    3000001    1    3    3    0    0 -0.23805347564E+01  0.15410558486E+02 -0.33761033548E+01  0.15985941713E+02  0.10000000000E+01 0. -1.
    1000022    2    1    0    0    0 -0.38198159274E+01  0.54828572460E+02 -0.28026536178E+02  0.62500000838E+02  0.10000001142E+02 0.  0.
    3000022    2    3    3    0    0 -0.14392811710E+01  0.39418013974E+02 -0.24650432824E+02  0.46514059126E+02  0.25000393670E+00 0.  0.
    1000022    2    1    0    0    0  0.38198159274E+01 -0.54828572460E+02  0.28026536178E+02  0.62499999162E+02  0.99999906654E+01 0.  0.
    3000022    2    5    5    0    0 -0.25115436147E+01 -0.90183791996E+01  0.69830982119E+01  0.11681831134E+02  0.25000658529E+00 0.  0.
        -13    1    4    4    0    0 -0.60447476999E+00  0.16474269414E+02 -0.10226333638E+02  0.19399893483E+02  0.10500000000E+00 0. -1.
         13    1    4    4    0    0 -0.83480640097E+00  0.22943744561E+02 -0.14424099185E+02  0.27114165643E+02  0.10500000000E+00 0.  1.
    3000001    1    5    5    0    0  0.63313595421E+01 -0.45810193261E+02  0.21043437967E+02  0.50818168028E+02  0.10000000000E+01 0.  1.
        -13    1    6    6    0    0 -0.12546493368E+01 -0.44834656413E+01  0.33885584175E+01  0.57592501477E+01  0.10500000000E+00 0. -1.
         13    1    6    6    0    0 -0.12568942779E+01 -0.45349135583E+01  0.35945397944E+01  0.59225809864E+01  0.10500000000E+00 0.  1.
</event>
<event>
11    0  0.3396091E-009  0.9118800E+02  0.7816531E-02  0.1126479E+00
         25   -1    0    0    0    0  0.00000000000E+00  0.00000000000E+00  0.99999998245E-14  0.12500000000E+03  0.12500000000E+03 0.  0.
    3000001    1    3    3    0    0  0.36137234810E+02  0.60634896934E+01 -0.73147928211E+01  0.37378761898E+02  0.10000000000E+01 0. -1.
    1000022    2    1    0    0    0  0.60120669702E+02  0.13043050942E+02 -0.46512140075E+01  0.62499999507E+02  0.10000002163E+02 0.  0.
    3000022    2    3    3    0    0  0.23983434892E+02  0.69795612490E+01  0.26635788135E+01  0.25121237609E+02  0.25000492826E+00 0.  0.
    1000022    2    1    0    0    0 -0.60120669702E+02 -0.13043050942E+02  0.46512140075E+01  0.62500000493E+02  0.10000008330E+02 0.  0.
    3000022    2    5    5    0    0 -0.57367356086E+02 -0.13692248312E+02  0.29547410878E+01  0.59053231940E+02  0.24999901569E+00 0.  0.
        -13    1    4    4    0    0  0.57118899559E+01  0.16499899029E+01  0.62084308613E+00  0.59786808483E+01  0.10500000000E+00 0.  1.
         13    1    4    4    0    0  0.18271544936E+02  0.53295713461E+01  0.20427357274E+01  0.19142556761E+02  0.10500000000E+00 0. -1.
    3000001    1    5    5    0    0 -0.27533136165E+01  0.64919736989E+00  0.16964729197E+01  0.34467685538E+01  0.10000000000E+01 0.  1.
        -13    1    6    6    0    0 -0.31597452939E+02 -0.76100247373E+01  0.16302375763E+01  0.32541976097E+02  0.10500000000E+00 0.  1.
         13    1    6    6    0    0 -0.25769903147E+02 -0.60822235750E+01  0.13245035115E+01  0.26511255843E+02  0.10500000000E+00 0. -1.
</event>
<event>
11    0  0.3396091E-009  0.9118800E+02  0.7816531E-02  0.1126479E+00
         25   -1    0    0    0    0  0.00000000000E+00  0.00000000000E+00  0.99999998245E-14  0.12500000000E+03  0.12500000000E+03 0.  0.
    3000001    1    3    3    0    0 -0.30665392886E+02 -0.64474002745E+01 -0.96611514211E+01  0.32806602048E+02  0.10000000000E+01 0. -1.
    1000022    2    1    0    0    0 -0.56376655220E+02 -0.53793518807E+01 -0.24474177488E+02  0.62500001609E+02  0.10000007848E+02 0.  0.
    3000022    2    3    3    0    0 -0.25711262334E+02  0.10680483938E+01 -0.14813026067E+02  0.29693399561E+02  0.24999611546E+00 0.  0.
    1000022    2    1    0    0    0  0.56376655220E+02  0.53793518807E+01  0.24474177488E+02  0.62499998391E+02  0.99999877351E+01 0.  0.
    3000022    2    5    5    0    0  0.42377123243E+02  0.69581718283E+00  0.15143985453E+02  0.45007860835E+02  0.25001141788E+00 0.  0.
        -13    1    4    4    0    0 -0.88623505133E+01  0.39426408748E+00 -0.50500417477E+01  0.10208361644E+02  0.10500000000E+00 0. -1.
         13    1    4    4    0    0 -0.16848911821E+02  0.67378430628E+00 -0.97629843191E+01  0.19485037918E+02  0.10500000000E+00 0.  1.
    3000001    1    5    5    0    0  0.13999531977E+02  0.46835346979E+01  0.93301920348E+01  0.17492137556E+02  0.10000000000E+01 0.  1.
        -13    1    6    6    0    0  0.14100687529E+02  0.28218064538E+00  0.50214074537E+01  0.14971124624E+02  0.10500000000E+00 0.  1.
         13    1    6    6    0    0  0.28276435714E+02  0.41363653744E+00  0.10122577999E+02  0.30036736211E+02  0.10500000000E+00 0. -1.
</event>
<event>
11    0  0.3396091E-009  0.9118800E+02  0.7816531E-02  0.1126479E+00
         25   -1    0    0    0    0  0.00000000000E+00  0.00000000000E+00  0.99999998245E-14  0.12500000000E+03  0.12500000000E+03 0.  0.
    3000001    1    3    3    0    0 -0.51424123765E+01 -0.22165470565E+02 -0.41788670243E+02  0.47592493643E+02  0.10000000000E+01 0.  1.
    1000022    2    1    0    0    0 -0.10968760482E+02 -0.25501307975E+02 -0.55096455370E+02  0.62500001338E+02  0.10000017895E+02 0.  0.
    3000022    2    3    3    0    0 -0.58263481056E+01 -0.33358374108E+01 -0.13307785127E+02  0.14907507695E+02  0.24999445752E+00 0.  0.
    1000022    2    1    0    0    0  0.10968760482E+02  0.25501307975E+02  0.55096455370E+02  0.62499998662E+02  0.10000001173E+02 0.  0.
    3000022    2    5    5    0    0  0.29286311219E+01  0.79332636935E+00  0.29966448704E+01  0.42718414762E+01  0.25000428429E+00 0.  0.
        -13    1    4    4    0    0 -0.34087522681E+01 -0.19752324542E+01 -0.76722822540E+01  0.86253159512E+01  0.10500000000E+00 0. -1.
         13    1    4    4    0    0 -0.24175958374E+01 -0.13606049567E+01 -0.56355028727E+01  0.62821917440E+01  0.10500000000E+00 0.  1.
    3000001    1    5    5    0    0  0.80401293602E+01  0.24707981606E+02  0.52099810500E+02  0.58228157186E+02  0.10000000000E+01 0.  1.
        -13    1    6    6    0    0  0.21668992393E+01  0.61242207437E+00  0.22454908649E+01  0.31817868148E+01  0.10500000000E+00 0. -1.
         13    1    6    6    0    0  0.76173188257E+00  0.18090429498E+00  0.75115400556E+00  0.10900546614E+01  0.10500000000E+00 0.  1.
</event>
<event>
11    0  0.3396091E-009  0.9118800E+02  0.7816531E-02  0.1126479E+00
         25   -1    0    0    0    0  0.00000000000E+00  0.00000000000E+00  0.99999998245E-14  0.12500000000E+03  0.12500000000E+03 0.  0.
    3000001    1    3    3    0    0 -0.44916230536E+01 -0.27689856921E+02 -0.30168949459E+01  0.28231268287E+02  0.10000000000E+01 0. -1.
    1000022    2    1    0    0    0 -0.14718746786E+02 -0.59838351541E+02  0.29967709363E+01  0.62500006903E+02  0.10000020232E+02 0.  0.
    3000022    2    3    3    0    0 -0.10227123732E+02 -0.32148494620E+02  0.60136658822E+01  0.34268738616E+02  0.25000558192E+00 0.  0.
    1000022    2    1    0    0    0  0.14718746786E+02  0.59838351541E+02 -0.29967709363E+01  0.62499993097E+02  0.99999339494E+01 0.  0.
    3000022    2    5    5    0    0  0.65384761992E+01  0.39421107107E+02 -0.55129683138E+01  0.40338947400E+02  0.25000230835E+00 0.  0.
        -13    1    4    4    0    0 -0.74756454238E+01 -0.23485520806E+02  0.44294023910E+01  0.25041677112E+02  0.10500000000E+00 0. -1.
         13    1    4    4    0    0 -0.27514783084E+01 -0.86629738148E+01  0.15842634912E+01  0.92270615045E+01  0.10500000000E+00 0.  1.
    3000001    1    5    5    0    0  0.81802705866E+01  0.20417244435E+02  0.25161973775E+01  0.22161045698E+02  0.10000000000E+01 0.  1.
        -13    1    6    6    0    0  0.35760623106E+01  0.21734433144E+02 -0.29780736875E+01  0.22227319983E+02  0.10500000000E+00 0.  1.
         13    1    6    6    0    0  0.29624138886E+01  0.17686673963E+02 -0.25348946263E+01  0.18111627417E+02  0.10500000000E+00 0. -1.
</event>
<event>
11    0  0.3396091E-009  0.9118800E+02  0.7816531E-02  0.1126479E+00
         25   -1    0    0    0    0  0.00000000000E+00  0.00000000000E+00  0.99999998245E-14  0.12500000000E+03  0.12500000000E+03 0.  0.
    3000001    1    3    3    0    0  0.56995670238E+01 -0.28615588598E+02 -0.75331940635E+01  0.30151052849E+02  0.10000000000E+01 0. -1.
    1000022    2    1    0    0    0  0.23674317657E+01 -0.60502434352E+02 -0.11836420093E+02  0.62499998780E+02  0.99999855640E+01 0.  0.
    3000022    2    3    3    0    0 -0.33321352581E+01 -0.31886845753E+02 -0.43032260298E+01  0.32348945932E+02  0.24998230014E+00 0.  0.
    1000022    2    1    0    0    0 -0.23674317657E+01  0.60502434352E+02  0.11836420093E+02  0.62500001220E+02  0.10000000809E+02 0.  0.
    3000022    2    5    5    0    0  0.27494424195E+01  0.69086182605E+01  0.25076855685E+01  0.78510779687E+01  0.24999694635E+00 0.  0.
        -13    1    4    4    0    0 -0.81342619114E+00 -0.80440634409E+01 -0.10907853352E+01  0.81590107524E+01  0.10500000000E+00 0.  1.
         13    1    4    4    0    0 -0.25187090670E+01 -0.23842782312E+02 -0.32124406946E+01  0.24189935179E+02  0.10500000000E+00 0. -1.
    3000001    1    5    5    0    0 -0.51168741852E+01  0.53593816091E+02  0.93287345248E+01  0.54648923251E+02  0.10000000000E+01 0.  1.
        -13    1    6    6    0    0  0.21099966345E+01  0.53187980302E+01  0.19237570202E+01  0.60376787225E+01  0.10500000000E+00 0. -1.
         13    1    6    6    0    0  0.63944578501E+00  0.15898202303E+01  0.58392854830E+00  0.18133992462E+01  0.10500000000E+00 0.  1.
</event>
<event>
11    0  0.3396091E-009  0.9118800E+02  0.7816531E-02  0.1126479E+00
         25   -1    0    0    0    0  0.00000000000E+00  0.00000000000E+00  0.99999998245E-14  0.12500000000E+03  0.12500000000E+03 0.  0.
    3000001    1    3    3    0    0 -0.78188478438E+01 -0.30583997834E+02 -0.33148716661E+02  0.45785944584E+02  0.10000000000E+01 0.  1.
    1000022    2    1    0    0    0 -0.92721492466E+01 -0.36937449662E+02 -0.48537634010E+02  0.62500002136E+02  0.10000020624E+02 0.  0.
    3000022    2    3    3    0    0 -0.14533014028E+01 -0.63534518281E+01 -0.15388917349E+02  0.16714057552E+02  0.25001518123E+00 0.  0.
    1000022    2    1    0    0    0  0.92721492466E+01  0.36937449662E+02  0.48537634010E+02  0.62499997864E+02  0.99999939274E+01 0.  0.
    3000022    2    5    5    0    0  0.93119097741E+01  0.29047004110E+02  0.32349019721E+02  0.44463037353E+02  0.25000454528E+00 0.  0.
        -13    1    4    4    0    0 -0.11249572344E+01 -0.48433763233E+01 -0.11725960616E+02  0.12737071891E+02  0.10500000000E+00 0.  1.
         13    1    4    4    0    0 -0.32834416835E+00 -0.15100755048E+01 -0.36629567326E+01  0.39769856610E+01  0.10500000000E+00 0. -1.
    3000001    1    5    5    0    0 -0.39760527522E-01  0.78904455516E+01  0.16188614289E+02  0.18036960511E+02  0.10000000000E+01 0.  1.
        -13    1    6    6    0    0  0.57775204831E+01  0.18046400716E+02  0.20182880325E+02  0.27684147178E+02  0.10500000000E+00 0.  1.
         13    1    6    6    0    0  0.35343892910E+01  0.11000603394E+02  0.12166139396E+02  0.16778890175E+02  0.10500000000E+00 0. -1.
</event>
<event>
11    0  0.3396091E-009  0.9118800E+02  0.7816531E-02  0.1126479E+00
         25   -1    0    0    0    0  0.00000000000E+00  0.00000000000E+00  0.99999998245E-14  0.12500000000E+03  0.12500000000E+03 0.  0.
    3000001    1    3    3    0    0  0.36302307903E+01 -0.29045987509E+02  0.89055606199E+01  0.30613019712E+02  0.10000000000E+01 0.  1.
    1000022    2    1    0    0    0  0.85288433336E+01 -0.54752032572E+02  0.27124228712E+02  0.62500000180E+02  0.99999999947E+01 0.  0.
    3000022    2    3    3    0    0  0.48986125433E+01 -0.25706045063E+02  0.18218668093E+02  0.31886980468E+02  0.24999729420E+00 0.  0.
    1000022    2    1    0    0    0 -0.85288433336E+01  0.54752032572E+02 -0.27124228712E+02  0.62499999820E+02  0.99999977460E+01 0.  0.
    3000022    2    5    5    0    0 -0.15010469077E+01  0.35729377859E+02 -0.20050429512E+02  0.40999070769E+02  0.24999261468E+00 0.  0.
        -13    1    4    4    0    0  0.11364231643E+01 -0.60238010539E+01  0.42775513658E+01  0.74757011332E+01  0.10500000000E+00 0.  1.
         13    1    4    4    0    0  0.37621893790E+01 -0.19682244009E+02  0.13941116727E+02  0.24411279335E+02  0.10500000000E+00 0. -1.
    3000001    1    5    5    0    0 -0.70277964259E+01  0.19022654713E+02 -0.70737992002E+01  0.21500929051E+02  0.10000000000E+01 0. -1.
        -13    1    6    6    0    0 -0.72694575248E+00  0.18834220008E+02 -0.10544118590E+02  0.21597355284E+02  0.10500000000E+00 0.  1.
         13    1    6    6    0    0 -0.77410115522E+00  0.16895157851E+02 -0.95063109221E+01  0.19401715485E+02  0.10500000000E+00 0. -1.
</event>
<event>
11    0  0.3396091E-009  0.9118800E+02  0.7816531E-02  0.1126479E+00
         25   -1    0    0    0    0  0.00000000000E+00  0.00000000000E+00  0.99999998245E-14  0.12500000000E+03  0.12500000000E+03 0.  0.
    3000001    1    3    3    0    0  0.95555447669E+01  0.22595230762E+02 -0.17505403799E+02  0.30154469837E+02  0.10000000000E+01 0. -1.
    1000022    2    1    0    0    0  0.27989017871E+02  0.40709278427E+02 -0.36954306994E+02  0.62500010290E+02  0.10000000474E+02 0.  0.
    3000022    2    3    3    0    0  0.18433473104E+02  0.18114047664E+02 -0.19448903194E+02  0.32345540452E+02  0.24999651098E+00 0.  0.
    1000022    2    1    0    0    0 -0.27989017871E+02 -0.40709278427E+02  0.36954306994E+02  0.62499989710E+02  0.99998718489E+01 0.  0.
    3000022    2    5    5    0    0 -0.27346120755E+02 -0.35278894817E+02  0.30949507404E+02  0.54317080633E+02  0.25000023844E+00 0.  0.
        -13    1    4    4    0    0  0.98507887241E+01  0.97333208684E+01 -0.10490874079E+02  0.17373688081E+02  0.10500000000E+00 0.  1.
         13    1    4    4    0    0  0.85826843796E+01  0.83807267960E+01 -0.89580291153E+01  0.14971852371E+02  0.10500000000E+00 0. -1.
    3000001    1    5    5    0    0 -0.64289711600E+00 -0.54303836096E+01  0.60047995895E+01  0.81829090768E+01  0.10000000000E+01 0.  1.
        -13    1    6    6    0    0 -0.14124186814E+02 -0.18137557929E+02  0.15885675157E+02  0.27943324086E+02  0.10500000000E+00 0.  1.
         13    1    6    6    0    0 -0.13221933941E+02 -0.17141336888E+02  0.15063832247E+02  0.26373756547E+02  0.10500000000E+00 0. -1.
</event>
<event>
11    0  0.3396091E-009  0.9118800E+02  0.7816531E-02  0.1126479E+00
         25   -1    0    0    0    0  0.00000000000E+00  0.00000000000E+00  0.99999998245E-14  0.12500000000E+03  0.12500000000E+03 0.  0.
    3000001    1    3    3    0    0  0.40302995745E+02  0.21081567515E+02  0.71583988434E+01  0.46054387727E+02  0.10000000000E+01 0. -1.
    1000022    2    1    0    0    0  0.51547474201E+02  0.33076988427E+02  0.74175893522E+01  0.62499997892E+02  0.99999922401E+01 0.  0.
    3000022    2    3    3    0    0  0.11244478456E+02  0.11995420913E+02  0.25919050886E+00  0.16445610165E+02  0.24999074227E+00 0.  0.
    1000022    2    1    0    0    0 -0.51547474201E+02 -0.33076988427E+02 -0.74175893522E+01  0.62500002108E+02  0.10000018591E+02 0.  0.
    3000022    2    5    5    0    0 -0.18845523506E+02 -0.13713938578E+02  0.18092316843E+01  0.23378658763E+02  0.24999743644E+00 0.  0.
        -13    1    4    4    0    0  0.83894325311E+01  0.89820975796E+01  0.17700888160E+00  0.12292396523E+02  0.10500000000E+00 0.  1.
         13    1    4    4    0    0  0.28550459250E+01  0.30133233330E+01  0.82181627264E-01  0.41532136428E+01  0.10500000000E+00 0. -1.
    3000001    1    5    5    0    0 -0.32701950695E+02 -0.19363049849E+02 -0.92268210366E+01  0.39121343345E+02  0.10000000000E+01 0.  1.
        -13    1    6    6    0    0 -0.88346073583E+01 -0.63949825085E+01  0.78493643722E+00  0.10934954900E+02  0.10500000000E+00 0.  1.
         13    1    6    6    0    0 -0.10010916148E+02 -0.73189560694E+01  0.10242952471E+01  0.12443703862E+02  0.10500000000E+00 0. -1.
</event>
<event>
11    0  0.3396091E-009  0.9118800E+02  0.7816531E-02  0.1126479E+00
         25   -1    0    0    0    0  0.00000000000E+00  0.00000000000E+00  0.99999998245E-14  0.12500000000E+03  0.12500000000E+03 0.  0.
    3000001    1    3    3    0    0 -0.39787288890E+01  0.21052340709E+02 -0.76631027591E+01  0.22776182226E+02  0.10000000000E+01 0.  1.
    1000022    2    1    0    0    0 -0.49879769905E+01  0.60704049031E+02 -0.98177679729E+01  0.62499999206E+02  0.99999924787E+01 0.  0.
    3000022    2    3    3    0    0 -0.10092481015E+01  0.39651708322E+02 -0.21546652138E+01  0.39723816980E+02  0.24999738196E+00 0.  0.
    1000022    2    1    0    0    0  0.49879769905E+01 -0.60704049031E+02  0.98177679729E+01  0.62500000794E+02  0.10000002399E+02 0.  0.
    3000022    2    5    5    0    0  0.21265462836E+01 -0.42314361008E+02  0.11160812171E+02  0.43813851404E+02  0.24999990511E+00 0.  0.
        -13    1    4    4    0    0 -0.56793370555E+00  0.21488092747E+02 -0.11039580252E+01  0.21524182375E+02  0.10500000000E+00 0. -1.
         13    1    4    4    0    0 -0.44131439595E+00  0.18163615575E+02 -0.10507071886E+01  0.18199634605E+02  0.10500000000E+00 0.  1.
    3000001    1    5    5    0    0  0.28614307069E+01 -0.18389688023E+02 -0.13430441978E+01  0.18686149390E+02  0.10000000000E+01 0.  1.
        -13    1    6    6    0    0  0.83008990447E+00 -0.17755629122E+02  0.47012631304E+01  0.18386525360E+02  0.10500000000E+00 0. -1.
         13    1    6    6    0    0  0.12964563791E+01 -0.24558731886E+02  0.64595490403E+01  0.25427326045E+02  0.10500000000E+00 0.  1.
</event>
<event>
11    0  0.3396091E-009  0.9118800E+02  0.7816531E-02  0.1126479E+00
         25   -1    0    0    0    0  0.00000000000E+00  0.00000000000E+00  0.99999998245E-14  0.12500000000E+03  0.12500000000E+03 0.  0.
    3000001    1    3    3    0    0 -0.46491072893E+02 -0.10239550420E+02 -0.10132082773E+02  0.48681899643E+02  0.10000000000E+01 0.  1.
    1000022    2    1    0    0    0 -0.59265874032E+02 -0.82730181575E+01 -0.15012103606E+02  0.62500000000E+02  0.10000004555E+02 0.  0.
    3000022    2    3    3    0    0 -0.12774801139E+02  0.19665322621E+01 -0.48800208334E+01  0.13818100357E+02  0.25000172243E+00 0.  0.
    1000022    2    1    0    0    0  0.59265874032E+02  0.82730181575E+01  0.15012103606E+02  0.62500000000E+02  0.10000004551E+02 0.  0.
    3000022    2    5    5    0    0  0.50866402354E+02  0.72093165399E+01  0.92277279793E+01  0.52197496080E+02  0.25000004272E+00 0.  0.
        -13    1    4    4    0    0 -0.69034213041E+01  0.11190905407E+01 -0.26004633862E+01  0.74621058799E+01  0.10500000000E+00 0.  1.
         13    1    4    4    0    0 -0.58713798351E+01  0.84744172143E+00 -0.22795574472E+01  0.63559944772E+01  0.10500000000E+00 0. -1.
    3000001    1    5    5    0    0  0.83994716788E+01  0.10637016176E+01  0.57843756270E+01  0.10302503919E+02  0.10000000000E+01 0. -1.
        -13    1    6    6    0    0  0.35220515217E+02  0.49492579636E+01  0.64112933955E+01  0.36139944031E+02  0.10500000000E+00 0. -1.
         13    1    6    6    0    0  0.15645887136E+02  0.22600585763E+01  0.28164345838E+01  0.16057552049E+02  0.10500000000E+00 0.  1.
</event>
<event>
11    0  0.3396091E-009  0.9118800E+02  0.7816531E-02  0.1126479E+00
         25   -1    0    0    0    0  0.00000000000E+00  0.00000000000E+00  0.99999998245E-14  0.12500000000E+03  0.12500000000E+03 0.  0.
    3000001    1    3    3    0    0  0.38010225038E+02  0.40047838011E+01  0.42543230884E+02  0.57199143305E+02  0.10000000000E+01 0. -1.
    1000022    2    1    0    0    0  0.41192748561E+02  0.14355508534E+01  0.45905844950E+02  0.62499997604E+02  0.99999879873E+01 0.  0.
    3000022    2    3    3    0    0  0.31825235236E+01 -0.25692329476E+01  0.33626140651E+01  0.53008542998E+01  0.24993807064E+00 0.  0.
    1000022    2    1    0    0    0 -0.41192748561E+02 -0.14355508534E+01 -0.45905844950E+02  0.62500002396E+02  0.10000017931E+02 0.  0.
    3000022    2    5    5    0    0 -0.38198106010E+02 -0.25019675068E+01 -0.44932433200E+02  0.59028308439E+02  0.24999968468E+00 0.  0.
        -13    1    4    4    0    0  0.15909804653E+01 -0.11974184510E+01  0.16378939847E+01  0.25804556755E+01  0.10500000000E+00 0. -1.
         13    1    4    4    0    0  0.15915430584E+01 -0.13718144966E+01  0.17247200804E+01  0.27203986243E+01  0.10500000000E+00 0.  1.
    3000001    1    5    5    0    0 -0.29946425517E+01  0.10664166533E+01 -0.97341174999E+00  0.34716939563E+01  0.10000000000E+01 0. -1.
        -13    1    6    6    0    0 -0.13965033889E+02 -0.85599077224E+00 -0.16432133330E+02  0.21581958264E+02  0.10500000000E+00 0.  1.
         13    1    6    6    0    0 -0.24233072120E+02 -0.16459767345E+01 -0.28500299870E+02  0.37446350175E+02  0.10500000000E+00 0. -1.
</event>
<event>
11    0  0.3396091E-009  0.9118800E+02  0.7816531E-02  0.1126479E+00
         25   -1    0    0    0    0  0.00000000000E+00  0.00000000000E+00  0.99999998245E-14  0.12500000000E+03  0.12500000000E+03 0.  0.
    3000001    1    3    3    0    0  0.22079102490E+02 -0.50075528531E+01  0.57680032650E+02  0.61972159224E+02  0.10000000000E+01 0.  1.
    1000022    2    1    0    0    0  0.21949479525E+02 -0.53618705204E+01  0.57408368137E+02  0.62499999480E+02  0.99999947944E+01 0.  0.
    3000022    2    3    3    0    0 -0.12962296482E+00 -0.35431766733E+00 -0.27166451358E+00  0.52784025535E+00  0.24994120276E+00 0.  0.
    1000022    2    1    0    0    0 -0.21949479525E+02  0.53618705204E+01 -0.57408368137E+02  0.62500000520E+02  0.10000001301E+02 0.  0.
    3000022    2    5    5    0    0 -0.18623985817E+02  0.80327590057E+01 -0.45719724015E+02  0.50017334335E+02  0.25000990889E+00 0.  0.
        -13    1    4    4    0    0 -0.65357182108E-01 -0.28594771969E+00 -0.19426962499E+00  0.36715575284E+00  0.10500000000E+00 0. -1.
         13    1    4    4    0    0 -0.64265782707E-01 -0.68369947640E-01 -0.77394888592E-01  0.16068450251E+00  0.10500000000E+00 0.  1.
    3000001    1    5    5    0    0 -0.33254937082E+01 -0.26708884853E+01 -0.11688644122E+02  0.12482666186E+02  0.10000000000E+01 0.  1.
        -13    1    6    6    0    0 -0.97812787312E+01  0.41457193513E+01 -0.23926736482E+02  0.26179383993E+02  0.10500000000E+00 0. -1.
         13    1    6    6    0    0 -0.88427070859E+01  0.38870396544E+01 -0.21792987533E+02  0.23837950342E+02  0.10500000000E+00 0.  1.
</event>
<event>
11    0  0.3396091E-009  0.9118800E+02  0.7816531E-02  0.1126479E+00
         25   -1    0    0    0    0  0.00000000000E+00  0.00000000000E+00  0.99999998245E-14  0.12500000000E+03  0.12500000000E+03 0.  0.
    3000001    1    3    3    0    0  0.44024684732E+02 -0.98176617273E+01 -0.15274133744E+02  0.47632536246E+02  0.10000000000E+01 0. -1.
    1000022    2    1    0    0    0  0.57679830860E+02 -0.15692685292E+02 -0.15265215117E+02  0.62500000576E+02  0.10000000985E+02 0.  0.
    3000022    2    3    3    0    0  0.13655146128E+02 -0.58750235642E+01  0.89186270677E-02  0.14867464330E+02  0.24999682106E+00 0.  0.
    1000022    2    1    0    0    0 -0.57679830860E+02  0.15692685292E+02  0.15265215117E+02  0.62499999424E+02  0.99999937885E+01 0.  0.
    3000022    2    5    5    0    0 -0.11294826722E+02  0.50242599145E+01 -0.43296595654E+00  0.12371995296E+02  0.25001941171E+00 0.  0.
        -13    1    4    4    0    0  0.39223791956E+01 -0.16554965339E+01 -0.27118101703E-01  0.42588129472E+01  0.10500000000E+00 0.  1.
         13    1    4    4    0    0  0.97327669323E+01 -0.42195270303E+01  0.36036728770E-01  0.10608651383E+02  0.10500000000E+00 0. -1.
    3000001    1    5    5    0    0 -0.46385004138E+02  0.10668425377E+02  0.15698181074E+02  0.50128004129E+02  0.10000000000E+01 0.  1.
        -13    1    6    6    0    0 -0.48457878246E+01  0.20969310753E+01 -0.14746157745E+00  0.52831382239E+01  0.10500000000E+00 0. -1.
         13    1    6    6    0    0 -0.64490388975E+01  0.29273288392E+01 -0.28550437909E+00  0.70888570718E+01  0.10500000000E+00 0.  1.
</event>
<event>
11    0  0.3396091E-009  0.9118800E+02  0.7816531E-02  0.1126479E+00
         25   -1    0    0    0    0  0.00000000000E+00  0.00000000000E+00  0.99999998245E-14  0.12500000000E+03  0.12500000000E+03 0.  0.
    3000001    1    3    3    0    0  0.13514034881E+02 -0.47533039806E+02  0.12975692925E+02  0.51101737924E+02  0.10000000000E+01 0.  1.
    1000022    2    1    0    0    0  0.20580577875E+02 -0.55825355663E+02  0.16316244767E+02  0.62499997362E+02  0.99999653149E+01 0.  0.
    3000022    2    3    3    0    0  0.70665429943E+01 -0.82923158571E+01  0.33405518428E+01  0.11398259438E+02  0.24999886399E+00 0.  0.
    1000022    2    1    0    0    0 -0.20580577875E+02  0.55825355663E+02 -0.16316244767E+02  0.62500002638E+02  0.99999982946E+01 0.  0.
    3000022    2    5    5    0    0 -0.13409860210E+02  0.36207404722E+02 -0.56415375584E+01  0.39021660172E+02  0.25001803358E+00 0.  0.
        -13    1    4    4    0    0  0.46911389145E+01 -0.54762700462E+01  0.22642027247E+01  0.75587007424E+01  0.10500000000E+00 0. -1.
         13    1    4    4    0    0  0.23754040798E+01 -0.28160458109E+01  0.10763491181E+01  0.38395586954E+01  0.10500000000E+00 0.  1.
    3000001    1    5    5    0    0 -0.71707176654E+01  0.19617950942E+02 -0.10674707209E+02  0.23478342467E+02  0.10000000000E+01 0.  1.
        -13    1    6    6    0    0 -0.98666566677E+01  0.26549050246E+02 -0.41246517309E+01  0.28622137580E+02  0.10500000000E+00 0. -1.
         13    1    6    6    0    0 -0.35432035421E+01  0.96583544757E+01 -0.15168858275E+01  0.10399522592E+02  0.10500000000E+00 0.  1.
</event>
<event>
11    0  0.3396091E-009  0.9118800E+02  0.7816531E-02  0.1126479E+00
         25   -1    0    0    0    0  0.00000000000E+00  0.00000000000E+00  0.99999998245E-14  0.12500000000E+03  0.12500000000E+03 0.  0.
    3000001    1    3    3    0    0 -0.67729327644E+01  0.59352473087E+02 -0.74174464834E+01  0.60204710714E+02  0.10000000000E+01 0.  1.
    1000022    2    1    0    0    0 -0.52981381732E+01  0.60921189210E+02 -0.81724141406E+01  0.62500003295E+02  0.10000024806E+02 0.  0.
    3000022    2    3    3    0    0  0.14747945911E+01  0.15687161225E+01 -0.75496765720E+00  0.22952925809E+01  0.25000501893E+00 0.  0.
    1000022    2    1    0    0    0  0.52981381732E+01 -0.60921189210E+02  0.81724141406E+01  0.62499996705E+02  0.99999836248E+01 0.  0.
    3000022    2    5    5    0    0  0.30530242160E+01 -0.12605814079E+02  0.53726508016E+01  0.14041203020E+02  0.25000031917E+00 0.  0.
        -13    1    4    4    0    0  0.91231276656E+00  0.93394896736E+00 -0.39599321699E+00  0.13683606562E+01  0.10500000000E+00 0.  1.
         13    1    4    4    0    0  0.56248182457E+00  0.63476715511E+00 -0.35897444020E+00  0.92693192463E+00  0.10500000000E+00 0. -1.
    3000001    1    5    5    0    0  0.22451139572E+01 -0.48315375130E+02  0.27997633390E+01  0.48458793685E+02  0.10000000000E+01 0.  1.
        -13    1    6    6    0    0  0.22599639785E+01 -0.92208857231E+01  0.39578029790E+01  0.10286272412E+02  0.10500000000E+00 0.  1.
         13    1    6    6    0    0  0.79306023759E+00 -0.33849283559E+01  0.14148478225E+01  0.37549306087E+01  0.10500000000E+00 0. -1.
</event>
<event>
11    0  0.3396091E-009  0.9118800E+02  0.7816531E-02  0.1126479E+00
         25   -1    0    0    0    0  0.00000000000E+00  0.00000000000E+00  0.99999998245E-14  0.12500000000E+03  0.12500000000E+03 0.  0.
    3000001    1    3    3    0    0 -0.72825267614E+00  0.70777592838E+01 -0.63948465570E+01  0.96186844697E+01  0.10000000000E+01 0.  1.
    1000022    2    1    0    0    0 -0.11109586450E+02  0.56381869900E+02 -0.22447986972E+02  0.62499997194E+02  0.99999682855E+01 0.  0.
    3000022    2    3    3    0    0 -0.10381333774E+02  0.49304110616E+02 -0.16053140415E+02  0.52881312725E+02  0.25000748844E+00 0.  0.
    1000022    2    1    0    0    0  0.11109586450E+02 -0.56381869900E+02  0.22447986972E+02  0.62500002806E+02  0.10000003356E+02 0.  0.
    3000022    2    5    5    0    0  0.11546217524E+02 -0.36491508714E+02  0.16756388297E+02  0.41782584765E+02  0.24998710807E+00 0.  0.
        -13    1    4    4    0    0 -0.24069686010E+01  0.11389566527E+02 -0.37114700066E+01  0.12218909858E+02  0.10500000000E+00 0. -1.
         13    1    4    4    0    0 -0.79743651729E+01  0.37914544089E+02 -0.12341670409E+02  0.40662402867E+02  0.10500000000E+00 0.  1.
    3000001    1    5    5    0    0 -0.43663107369E+00 -0.19890361186E+02  0.56915986750E+01  0.20717418041E+02  0.10000000000E+01 0. -1.
        -13    1    6    6    0    0  0.62382045606E+01 -0.19937114083E+02  0.91480036158E+01  0.22805716592E+02  0.10500000000E+00 0.  1.
         13    1    6    6    0    0  0.53080129631E+01 -0.16554394630E+02  0.76083846814E+01  0.18976868173E+02  0.10500000000E+00 0. -1.
</event>
<event>
11    0  0.3396091E-009  0.9118800E+02  0.7816531E-02  0.1126479E+00
         25   -1    0    0    0    0  0.00000000000E+00  0.00000000000E+00  0.99999998245E-14  0.12500000000E+03  0.12500000000E+03 0.  0.
    3000001    1    3    3    0    0  0.20219660858E+02 -0.45536705867E+01 -0.22650868335E+02  0.30718600836E+02  0.10000000000E+01 0.  1.
    1000022    2    1    0    0    0  0.35930030447E+02 -0.17836507101E+02 -0.46873688090E+02  0.62499994041E+02  0.99999273260E+01 0.  0.
    3000022    2    3    3    0    0  0.15710369588E+02 -0.13282836514E+02 -0.24222819755E+02  0.31781393205E+02  0.24999732688E+00 0.  0.
    1000022    2    1    0    0    0 -0.35930030447E+02  0.17836507101E+02  0.46873688090E+02  0.62500005959E+02  0.10000001813E+02 0.  0.
    3000022    2    5    5    0    0 -0.23011726247E+02  0.13433283279E+02  0.37124299428E+02  0.45697579268E+02  0.24999682890E+00 0.  0.
        -13    1    4    4    0    0  0.73753630762E+01 -0.62772767663E+01 -0.11495191746E+02  0.15031654679E+02  0.10500000000E+00 0. -1.
         13    1    4    4    0    0  0.83350065123E+01 -0.70055597481E+01 -0.12727628009E+02  0.16749738526E+02  0.10500000000E+00 0.  1.
    3000001    1    5    5    0    0 -0.12918304200E+02  0.44032238219E+01  0.97493886617E+01  0.16802426691E+02  0.10000000000E+01 0. -1.
        -13    1    6    6    0    0 -0.13183726047E+02  0.77390155343E+01  0.21391047132E+02  0.26292411764E+02  0.10500000000E+00 0.  1.
         13    1    6    6    0    0 -0.98280001996E+01  0.56942677450E+01  0.15733252296E+02  0.19405167505E+02  0.10500000000E+00 0. -1.
</event>
<event>
11    0  0.3396091E-009  0.9118800E+02  0.7816531E-02  0.1126479E+00
         25   -1    0    0    0    0  0.00000000000E+00  0.00000000000E+00  0.99999998245E-14  0.12500000000E+03  0.12500000000E+03 0.  0.
    3000001    1    3    3    0    0 -0.22306578634E+02  0.13787525238E+02  0.20961865402E+02  0.33586888866E+02  0.10000000000E+01 0. -1.
    1000022    2    1    0    0    0 -0.46887164293E+02  0.24645746230E+02  0.31629570924E+02  0.62500010418E+02  0.10000128134E+02 0.  0.
    3000022    2    3    3    0    0 -0.24580585659E+02  0.10858220992E+02  0.10667705522E+02  0.28913121552E+02  0.25000464408E+00 0.  0.
    1000022    2    1    0    0    0  0.46887164293E+02 -0.24645746230E+02 -0.31629570924E+02  0.62499989582E+02  0.99999979108E+01 0.  0.
    3000022    2    5    5    0    0  0.65845588720E+01 -0.79814021437E+00 -0.14958159525E+01  0.68039259410E+01  0.24999901240E+00 0.  0.
        -13    1    4    4    0    0 -0.14697639017E+02  0.64936254045E+01  0.64467456991E+01  0.17313558810E+02  0.10500000000E+00 0.  1.
         13    1    4    4    0    0 -0.98829466418E+01  0.43645955878E+01  0.42209598227E+01  0.11599562742E+02  0.10500000000E+00 0. -1.
    3000001    1    5    5    0    0  0.40302605421E+02 -0.23847606016E+02 -0.30133754971E+02  0.55696063641E+02  0.10000000000E+01 0.  1.
        -13    1    6    6    0    0  0.18142797730E+01 -0.19087436361E+00 -0.43714419009E+00  0.18788731092E+01  0.10500000000E+00 0.  1.
         13    1    6    6    0    0  0.47702790990E+01 -0.60726585076E+00 -0.10586717624E+01  0.49250528318E+01  0.10500000000E+00 0. -1.
</event>
<event>
11    0  0.3396091E-009  0.9118800E+02  0.7816531E-02  0.1126479E+00
         25   -1    0    0    0    0  0.00000000000E+00  0.00000000000E+00  0.99999998245E-14  0.12500000000E+03  0.12500000000E+03 0.  0.
    3000001    1    3    3    0    0 -0.49629597572E+01  0.22545511915E+02 -0.60122991378E+01  0.23876323377E+02  0.10000000000E+01 0.  1.
    1000022    2    1    0    0    0 -0.22261505076E+02  0.53214442783E+02 -0.21883750380E+02  0.62500000779E+02  0.10000001890E+02 0.  0.
    3000022    2    3    3    0    0 -0.17298545318E+02  0.30668930868E+02 -0.15871451242E+02  0.38623677402E+02  0.25000171685E+00 0.  0.
    1000022    2    1    0    0    0  0.22261505076E+02 -0.53214442783E+02  0.21883750380E+02  0.62499999221E+02  0.99999921504E+01 0.  0.
    3000022    2    5    5    0    0  0.61422479718E+00 -0.98367891436E+00  0.24218170753E+01  0.26967862162E+01  0.25012325320E+00 0.  0.
        -13    1    4    4    0    0 -0.12576115985E+02  0.22286043042E+02 -0.11493884228E+02  0.28052572207E+02  0.10500000000E+00 0. -1.
         13    1    4    4    0    0 -0.47224293334E+01  0.83828878252E+01 -0.43775670138E+01  0.10571105196E+02  0.10500000000E+00 0.  1.
    3000001    1    5    5    0    0  0.21647280278E+02 -0.52230763868E+02  0.19461933305E+02  0.59803213005E+02  0.10000000000E+01 0.  1.
        -13    1    6    6    0    0  0.30153034203E+00 -0.47659039680E+00  0.13332537636E+01  0.14514301746E+01  0.10500000000E+00 0.  1.
         13    1    6    6    0    0  0.31269445515E+00 -0.50708851755E+00  0.10885633117E+01  0.12453560416E+01  0.10500000000E+00 0. -1.
</event>
<event>
11    0  0.3396091E-009  0.9118800E+02  0.7816531E-02  0.1126479E+00
         25   -1    0    0    0    0  0.00000000000E+00  0.00000000000E+00  0.99999998245E-14  0.12500000000E+03  0.12500000000E+03 0.  0.
    3000001    1    3    3    0    0 -0.16638303802E+02 -0.31765124036E+01 -0.12701005317E+02  0.21195257028E+02  0.10000000000E+01 0.  1.
    1000022    2    1    0    0    0 -0.39157541742E+02 -0.83837227310E+01 -0.46932398331E+02  0.62500001104E+02  0.10000012137E+02 0.  0.
    3000022    2    3    3    0    0 -0.22519237940E+02 -0.52072103274E+01 -0.34231393014E+02  0.41304744075E+02  0.24999721817E+00 0.  0.
    1000022    2    1    0    0    0  0.39157541742E+02  0.83837227310E+01  0.46932398331E+02  0.62499998896E+02  0.99999983429E+01 0.  0.
    3000022    2    5    5    0    0  0.21231810244E+02  0.16032991807E+01  0.18563000344E+02  0.28249031970E+02  0.24998193250E+00 0.  0.
        -13    1    4    4    0    0 -0.12830963827E+02 -0.30332145001E+01 -0.19506378060E+02  0.23544507490E+02  0.10500000000E+00 0.  1.
         13    1    4    4    0    0 -0.96882741138E+01 -0.21739958273E+01 -0.14725014954E+02  0.17760236585E+02  0.10500000000E+00 0. -1.
    3000001    1    5    5    0    0  0.17925731498E+02  0.67804235503E+01  0.28369397987E+02  0.34250966927E+02  0.10000000000E+01 0.  1.
        -13    1    6    6    0    0  0.99672832709E+01  0.70854245601E+00  0.86439107419E+01  0.13212758460E+02  0.10500000000E+00 0.  1.
         13    1    6    6    0    0  0.11264526973E+02  0.89475672470E+00  0.99190896018E+01  0.15036273509E+02  0.10500000000E+00 0. -1.
</event>
<event>
11    0  0.3396091E-009  0.9118800E+02  0.7816531E-02  0.1126479E+00
         25   -1    0    0    0    0  0.00000000000E+00  0.00000000000E+00  0.99999998245E-14  0.12500000000E+03  0.12500000000E+03 0.  0.
    3000001    1    3    3    0    0  0.16883514442E+02  0.50641051323E+01 -0.12897229448E+02  0.21864051503E+02  0.10000000000E+01 0. -1.
    1000022    2    1    0    0    0  0.54975644110E+02  0.96606608486E+01 -0.26279254718E+02  0.62499992610E+02  0.10000001718E+02 0.  0.
    3000022    2    3    3    0    0  0.38092129668E+02  0.45965557164E+01 -0.13382025270E+02  0.40635941106E+02  0.24988434816E+00 0.  0.
    1000022    2    1    0    0    0 -0.54975644110E+02 -0.96606608486E+01  0.26279254718E+02  0.62500007390E+02  0.10000094097E+02 0.  0.
    3000022    2    5    5    0    0 -0.27322644890E+02 -0.76338470814E+00  0.95001359485E+01  0.28938292368E+02  0.25000425906E+00 0.  0.
        -13    1    4    4    0    0  0.23563798875E+02  0.29042068021E+01 -0.82721437314E+01  0.25142124443E+02  0.10500000000E+00 0.  1.
         13    1    4    4    0    0  0.14528330793E+02  0.16923489143E+01 -0.51098815385E+01  0.15493816664E+02  0.10500000000E+00 0. -1.
    3000001    1    5    5    0    0 -0.27652999220E+02 -0.88972761405E+01  0.16779118770E+02  0.33561715023E+02  0.10000000000E+01 0. -1.
        -13    1    6    6    0    0 -0.71440127946E+01 -0.23106306125E+00  0.24924400292E+01  0.75705740368E+01  0.10500000000E+00 0. -1.
         13    1    6    6    0    0 -0.20178632095E+02 -0.53232164689E+00  0.70076959193E+01  0.21367718331E+02  0.10500000000E+00 0.  1.
</event>
<event>
11    0  0.3396091E-009  0.9118800E+02  0.7816531E-02  0.1126479E+00
         25   -1    0    0    0    0  0.00000000000E+00  0.00000000000E+00  0.99999998245E-14  0.12500000000E+03  0.12500000000E+03 0.  0.
    3000001    1    3    3    0    0 -0.33921249880E+02 -0.42292116892E+02  0.24208215383E+02  0.59382758749E+02  0.10000000000E+01 0.  1.
    1000022    2    1    0    0    0 -0.35110783629E+02 -0.42945304954E+02  0.27003398068E+02  0.62500000000E+02  0.10000007405E+02 0.  0.
    3000022    2    3    3    0    0 -0.11895337492E+01 -0.65318806276E+00  0.27951826846E+01  0.31172412509E+01  0.25000318047E+00 0.  0.
    1000022    2    1    0    0    0  0.35110783629E+02  0.42945304954E+02 -0.27003398068E+02  0.62500000000E+02  0.10000007409E+02 0.  0.
    3000022    2    5    5    0    0  0.28671313819E+02  0.28277813910E+02 -0.20421670909E+02  0.45152919631E+02  0.25002560285E+00 0.  0.
        -13    1    4    4    0    0 -0.78106612764E+00 -0.45281528236E+00  0.17306844574E+01  0.19548400617E+01  0.10500000000E+00 0.  1.
         13    1    4    4    0    0 -0.40846762156E+00 -0.20037278039E+00  0.10644982272E+01  0.11624011892E+01  0.10500000000E+00 0. -1.
    3000001    1    5    5    0    0  0.64394698098E+01  0.14667491044E+02 -0.65817271587E+01  0.17347080370E+02  0.10000000000E+01 0.  1.
        -13    1    6    6    0    0  0.12359304442E+02  0.12248781947E+02 -0.87676862391E+01  0.19485081792E+02  0.10500000000E+00 0. -1.
         13    1    6    6    0    0  0.16312009377E+02  0.16029031963E+02 -0.11653984670E+02  0.25667837838E+02  0.10500000000E+00 0.  1.
</event>
<event>
11    0  0.3396091E-009  0.9118800E+02  0.7816531E-02  0.1126479E+00
         25   -1    0    0    0    0  0.00000000000E+00  0.00000000000E+00  0.99999998245E-14  0.12500000000E+03  0.12500000000E+03 0.  0.
    3000001    1    3    3    0    0  0.16134942367E+02 -0.55609241869E+01  0.12709348151E+02  0.21302295027E+02  0.10000000000E+01 0.  1.
    1000022    2    1    0    0    0  0.44957263765E+02 -0.28392690891E+02  0.31288169124E+02  0.62499999943E+02  0.10000000224E+02 0.  0.
    3000022    2    3    3    0    0  0.28822321398E+02 -0.22831766704E+02  0.18578820973E+02  0.41197704916E+02  0.25004001084E+00 0.  0.
    1000022    2    1    0    0    0 -0.44957263765E+02  0.28392690891E+02 -0.31288169124E+02  0.62500000057E+02  0.10000000939E+02 0.  0.
    3000022    2    5    5    0    0 -0.25594308032E+02  0.21079665070E+02 -0.16460510671E+02  0.37019343540E+02  0.25000290818E+00 0.  0.
        -13    1    4    4    0    0  0.10533027855E+02 -0.82722426078E+01  0.67868602557E+01  0.15014898291E+02  0.10500000000E+00 0.  1.
         13    1    4    4    0    0  0.18289293543E+02 -0.14559524096E+02  0.11791960718E+02  0.26182806625E+02  0.10500000000E+00 0. -1.
    3000001    1    5    5    0    0 -0.19362955732E+02  0.73130258203E+01 -0.14827658453E+02  0.25480656517E+02  0.10000000000E+01 0. -1.
        -13    1    6    6    0    0 -0.10644038609E+02  0.86845622453E+01 -0.68065216475E+01  0.15331566823E+02  0.10500000000E+00 0.  1.
         13    1    6    6    0    0 -0.14950269423E+02  0.12395102825E+02 -0.96539890235E+01  0.21687776717E+02  0.10500000000E+00 0. -1.
</event>
<event>
11    0  0.3396091E-009  0.9118800E+02  0.7816531E-02  0.1126479E+00
         25   -1    0    0    0    0  0.00000000000E+00  0.00000000000E+00  0.99999998245E-14  0.12500000000E+03  0.12500000000E+03 0.  0.
    3000001    1    3    3    0    0  0.11886406381E+02  0.10059789732E+02  0.66075076393E+01  0.16945358754E+02  0.10000000000E+01 0.  1.
    1000022    2    1    0    0    0  0.32462704279E+02  0.48007959470E+02  0.21157945056E+02  0.62500000163E+02  0.10000001995E+02 0.  0.
    3000022    2    3    3    0    0  0.20576297899E+02  0.37948169738E+02  0.14550437416E+02  0.45554641410E+02  0.25000658253E+00 0.  0.
    1000022    2    1    0    0    0 -0.32462704279E+02 -0.48007959470E+02 -0.21157945056E+02  0.62499999837E+02  0.99999999520E+01 0.  0.
    3000022    2    5    5    0    0 -0.56083902012E+01 -0.84087639786E+01 -0.79284663108E+01  0.12848518731E+02  0.25000647633E+00 0.  0.
        -13    1    4    4    0    0  0.12925875558E+02  0.23949425452E+02  0.92021910237E+01  0.28728811028E+02  0.10500000000E+00 0.  1.
         13    1    4    4    0    0  0.76504223402E+01  0.13998744286E+02  0.53482463925E+01  0.16825830382E+02  0.10500000000E+00 0. -1.
    3000001    1    5    5    0    0 -0.26854314078E+02 -0.39599195491E+02 -0.13229478745E+02  0.49651481106E+02  0.10000000000E+01 0. -1.
        -13    1    6    6    0    0 -0.19721780414E+01 -0.29480537015E+01 -0.28547176530E+01  0.45542227363E+01  0.10500000000E+00 0. -1.
         13    1    6    6    0    0 -0.36362121598E+01 -0.54607102771E+01 -0.50737486577E+01  0.82942959944E+01  0.10500000000E+00 0.  1.
</event>
<event>
11    0  0.3396091E-009  0.9118800E+02  0.7816531E-02  0.1126479E+00
         25   -1    0    0    0    0  0.00000000000E+00  0.00000000000E+00  0.99999998245E-14  0.12500000000E+03  0.12500000000E+03 0.  0.
    3000001    1    3    3    0    0  0.10414525968E+01  0.61863961376E+01 -0.10493673035E+02  0.12266755661E+02  0.10000000000E+01 0. -1.
    1000022    2    1    0    0    0  0.23453736602E+02  0.24032280149E+02 -0.51755403148E+02  0.62500000863E+02  0.10000005157E+02 0.  0.
    3000022    2    3    3    0    0  0.22412284006E+02  0.17845884011E+02 -0.41261730112E+02  0.50233245202E+02  0.25000230170E+00 0.  0.
    1000022    2    1    0    0    0 -0.23453736602E+02 -0.24032280149E+02  0.51755403148E+02  0.62499999137E+02  0.99999943694E+01 0.  0.
    3000022    2    5    5    0    0 -0.61802558916E+01 -0.13056240321E+02  0.23752492512E+02  0.27801157799E+02  0.25000039396E+00 0.  0.
        -13    1    4    4    0    0  0.17154010089E+02  0.13643716559E+02 -0.31580981563E+02  0.38441910530E+02  0.10500000000E+00 0. -1.
         13    1    4    4    0    0  0.52582739165E+01  0.42021674525E+01 -0.96807485489E+01  0.11791334672E+02  0.10500000000E+00 0.  1.
    3000001    1    5    5    0    0 -0.17273480711E+02 -0.10976039828E+02  0.28002910635E+02  0.34698841338E+02  0.10000000000E+01 0.  1.
        -13    1    6    6    0    0 -0.32427885343E+01 -0.67051230660E+01  0.12297855849E+02  0.14377852284E+02  0.10500000000E+00 0.  1.
         13    1    6    6    0    0 -0.29374673573E+01 -0.63511172552E+01  0.11454636663E+02  0.13423305515E+02  0.10500000000E+00 0. -1.
</event>
<event>
11    0  0.3396091E-009  0.9118800E+02  0.7816531E-02  0.1126479E+00
         25   -1    0    0    0    0  0.00000000000E+00  0.00000000000E+00  0.99999998245E-14  0.12500000000E+03  0.12500000000E+03 0.  0.
    3000001    1    3    3    0    0 -0.47456484492E+01 -0.28506078789E+02  0.20274351293E+02  0.35315252052E+02  0.10000000000E+01 0.  1.
    1000022    2    1    0    0    0 -0.10380133697E+02 -0.53903877963E+02  0.28158032225E+02  0.62500000541E+02  0.10000002692E+02 0.  0.
    3000022    2    3    3    0    0 -0.56344852481E+01 -0.25397799174E+02  0.78836809314E+01  0.27184748489E+02  0.24999698245E+00 0.  0.
    1000022    2    1    0    0    0  0.10380133697E+02  0.53903877963E+02 -0.28158032225E+02  0.62499999459E+02  0.99999959276E+01 0.  0.
    3000022    2    5    5    0    0  0.10303564612E+02  0.40110678978E+02 -0.24789504402E+02  0.48266054793E+02  0.25000990682E+00 0.  0.
        -13    1    4    4    0    0 -0.32468381936E+01 -0.14823667820E+02  0.46508482281E+01  0.15872129666E+02  0.10500000000E+00 0.  1.
         13    1    4    4    0    0 -0.23876470545E+01 -0.10574131354E+02  0.32328327033E+01  0.11312618823E+02  0.10500000000E+00 0. -1.
    3000001    1    5    5    0    0  0.76569085470E-01  0.13793198985E+02 -0.33685278222E+01  0.14233944666E+02  0.10000000000E+01 0.  1.
        -13    1    6    6    0    0  0.72672697781E+01  0.28291280505E+02 -0.17536260469E+02  0.34069652462E+02  0.10500000000E+00 0.  1.
         13    1    6    6    0    0  0.30362948337E+01  0.11819398473E+02 -0.72532439332E+01  0.14196402331E+02  0.10500000000E+00 0. -1.
</event>
<event>
11    0  0.3396091E-009  0.9118800E+02  0.7816531E-02  0.1126479E+00
         25   -1    0    0    0    0  0.00000000000E+00  0.00000000000E+00  0.99999998245E-14  0.12500000000E+03  0.12500000000E+03 0.  0.
    3000001    1    3    3    0    0 -0.46027023336E+01  0.27551306112E+02  0.13324689119E+01  0.27982759168E+02  0.10000000000E+01 0. -1.
    1000022    2    1    0    0    0  0.67479019873E+00  0.61583560960E+02  0.36413879306E+01  0.62499999889E+02  0.99999978826E+01 0.  0.
    3000022    2    3    3    0    0  0.52774925323E+01  0.34032254849E+02  0.23089190187E+01  0.34517240721E+02  0.25000489331E+00 0.  0.
    1000022    2    1    0    0    0 -0.67479019873E+00 -0.61583560960E+02 -0.36413879306E+01  0.62500000111E+02  0.99999992751E+01 0.  0.
    3000022    2    5    5    0    0 -0.36720884041E+01 -0.30755816857E+02 -0.54799036765E+01  0.31456260917E+02  0.25000555696E+00 0.  0.
        -13    1    4    4    0    0  0.25251885530E+01  0.15853199276E+02  0.10630350010E+01  0.16088554097E+02  0.10500000000E+00 0.  1.
         13    1    4    4    0    0  0.27523039793E+01  0.18179055573E+02  0.12458840177E+01  0.18428686624E+02  0.10500000000E+00 0. -1.
    3000001    1    5    5    0    0  0.29972982054E+01 -0.30827744103E+02  0.18385157459E+01  0.31043739194E+02  0.10000000000E+01 0.  1.
        -13    1    6    6    0    0 -0.19437264110E+01 -0.16269658762E+02 -0.29673303157E+01  0.16652205343E+02  0.10500000000E+00 0. -1.
         13    1    6    6    0    0 -0.17283619932E+01 -0.14486158096E+02 -0.25125733608E+01  0.14804055574E+02  0.10500000000E+00 0.  1.
</event>
<event>
11    0  0.3396091E-009  0.9118800E+02  0.7816531E-02  0.1126479E+00
         25   -1    0    0    0    0  0.00000000000E+00  0.00000000000E+00  0.99999998245E-14  0.12500000000E+03  0.12500000000E+03 0.  0.
    3000001    1    3    3    0    0  0.91148214802E+01  0.39712996541E+01  0.41057103431E+01  0.10803149956E+02  0.10000000000E+01 0. -1.
    1000022    2    1    0    0    0  0.49896117712E+02  0.57512745042E+01  0.35826673927E+02  0.62500001549E+02  0.99999953877E+01 0.  0.
    3000022    2    3    3    0    0  0.40781296232E+02  0.17799748501E+01  0.31720963584E+02  0.51696851593E+02  0.25000208856E+00 0.  0.
    1000022    2    1    0    0    0 -0.49896117712E+02 -0.57512745042E+01 -0.35826673927E+02  0.62499998451E+02  0.99999760239E+01 0.  0.
    3000022    2    5    5    0    0 -0.72517104300E+01  0.13313585103E+01 -0.21239833518E+01  0.76768234707E+01  0.24998735588E+00 0.  0.
        -13    1    4    4    0    0  0.11402173759E+02  0.46215892520E+00  0.88459252987E+01  0.14438995003E+02  0.10500000000E+00 0.  1.
         13    1    4    4    0    0  0.29379122473E+02  0.13178159249E+01  0.22875038286E+02  0.37257856590E+02  0.10500000000E+00 0. -1.
    3000001    1    5    5    0    0 -0.42644407282E+02 -0.70826330144E+01 -0.33702690576E+02  0.54823174980E+02  0.10000000000E+01 0.  1.
        -13    1    6    6    0    0 -0.45937469239E+01  0.80261062151E+00 -0.12977342876E+01  0.48416767645E+01  0.10500000000E+00 0. -1.
         13    1    6    6    0    0 -0.26579635061E+01  0.52874788875E+00 -0.82624906421E+00  0.28351467062E+01  0.10500000000E+00 0.  1.
</event>
<event>
11    0  0.3396091E-009  0.9118800E+02  0.7816531E-02  0.1126479E+00
         25   -1    0    0    0    0  0.00000000000E+00  0.00000000000E+00  0.99999998245E-14  0.12500000000E+03  0.12500000000E+03 0.  0.
    3000001    1    3    3    0    0  0.26419190002E+01 -0.71731619145E+01 -0.20422879505E+01  0.79752697715E+01  0.10000000000E+01 0. -1.
    1000022    2    1    0    0    0 -0.37422024372E+00 -0.54200897319E+02 -0.29468162946E+02  0.62499999242E+02  0.99999983452E+01 0.  0.
    3000022    2    3    3    0    0 -0.30161392439E+01 -0.47027735405E+02 -0.27425874995E+02  0.54524729471E+02  0.25002277515E+00 0.  0.
    1000022    2    1    0    0    0  0.37422024372E+00  0.54200897319E+02  0.29468162946E+02  0.62500000758E+02  0.10000007815E+02 0.  0.
    3000022    2    5    5    0    0 -0.34432009253E+00  0.43477949082E+02  0.27723418036E+02  0.51566471870E+02  0.25000186244E+00 0.  0.
        -13    1    4    4    0    0 -0.17956934850E+01 -0.27639254725E+02 -0.16050240623E+02  0.32012094057E+02  0.10500000000E+00 0. -1.
         13    1    4    4    0    0 -0.12204457589E+01 -0.19388480680E+02 -0.11375634372E+02  0.22512635414E+02  0.10500000000E+00 0.  1.
    3000001    1    5    5    0    0  0.71854033624E+00  0.10722948238E+02  0.17447449100E+01  0.10933528887E+02  0.10000000000E+01 0.  1.
        -13    1    6    6    0    0 -0.16349428948E+00  0.24611531455E+02  0.15761703804E+02  0.29226640976E+02  0.10500000000E+00 0.  1.
         13    1    6    6    0    0 -0.18082580304E+00  0.18866417627E+02  0.11961714232E+02  0.22339830895E+02  0.10500000000E+00 0. -1.
</event>
<event>
11    0  0.3396091E-009  0.9118800E+02  0.7816531E-02  0.1126479E+00
         25   -1    0    0    0    0  0.00000000000E+00  0.00000000000E+00  0.99999998245E-14  0.12500000000E+03  0.12500000000E+03 0.  0.
    3000001    1    3    3    0    0  0.11715430042E+02 -0.37106363500E+00  0.16864650663E+02  0.20562233129E+02  0.10000000000E+01 0.  1.
    1000022    2    1    0    0    0  0.28290910665E+02 -0.12958144545E+02  0.53272515498E+02  0.62499999867E+02  0.99999969822E+01 0.  0.
    3000022    2    3    3    0    0  0.16575480623E+02 -0.12587080910E+02  0.36407864835E+02  0.41937766738E+02  0.24998680181E+00 0.  0.
    1000022    2    1    0    0    0 -0.28290910665E+02  0.12958144545E+02 -0.53272515498E+02  0.62500000133E+02  0.99999986390E+01 0.  0.
    3000022    2    5    5    0    0  0.76346832248E+00  0.44383213463E+00 -0.78346532093E+00  0.12067269132E+01  0.25000218152E+00 0.  0.
        -13    1    4    4    0    0  0.68781010744E+01 -0.52522985824E+01  0.15017888649E+02  0.17333289337E+02  0.10500000000E+00 0.  1.
         13    1    4    4    0    0  0.96973795489E+01 -0.73347823278E+01  0.21389976187E+02  0.24604477401E+02  0.10500000000E+00 0. -1.
    3000001    1    5    5    0    0 -0.29054378987E+02  0.12514312411E+02 -0.52489050177E+02  0.61293273219E+02  0.10000000000E+01 0. -1.
        -13    1    6    6    0    0  0.35557555921E+00  0.14124487051E+00 -0.29622638063E+00  0.49513549694E+00  0.10500000000E+00 0.  1.
         13    1    6    6    0    0  0.40789276328E+00  0.30258726412E+00 -0.48723894030E+00  0.71159141625E+00  0.10500000000E+00 0. -1.
</event>
<event>
11    0  0.3396091E-009  0.9118800E+02  0.7816531E-02  0.1126479E+00
         25   -1    0    0    0    0  0.00000000000E+00  0.00000000000E+00  0.99999998245E-14  0.12500000000E+03  0.12500000000E+03 0.  0.
    3000001    1    3    3    0    0 -0.36939996150E+02 -0.42233962123E+02  0.98441111369E+01  0.56975234938E+02  0.10000000000E+01 0. -1.
    1000022    2    1    0    0    0 -0.39716471397E+02 -0.45220414273E+02  0.13563373721E+02  0.62500008215E+02  0.10000097647E+02 0.  0.
    3000022    2    3    3    0    0 -0.27764752470E+01 -0.29864521503E+01  0.37192625840E+01  0.55247732773E+01  0.24998870899E+00 0.  0.
    1000022    2    1    0    0    0  0.39716471397E+02  0.45220414273E+02 -0.13563373721E+02  0.62499991785E+02  0.99999949542E+01 0.  0.
    3000022    2    5    5    0    0  0.21433088789E+02  0.17325001335E+02 -0.45289192882E+01  0.27930387947E+02  0.24998930311E+00 0.  0.
        -13    1    4    4    0    0 -0.10886871567E+01 -0.12521340953E+01  0.14709520109E+01  0.22198658374E+01  0.10500000000E+00 0. -1.
         13    1    4    4    0    0 -0.16877880903E+01 -0.17343180549E+01  0.22483105731E+01  0.33049074399E+01  0.10500000000E+00 0.  1.
    3000001    1    5    5    0    0  0.18283382609E+02  0.27895412938E+02 -0.90344544326E+01  0.34569603838E+02  0.10000000000E+01 0. -1.
        -13    1    6    6    0    0  0.12109068375E+02  0.97038324593E+01 -0.25573893584E+01  0.15727211026E+02  0.10500000000E+00 0. -1.
         13    1    6    6    0    0  0.93240204134E+01  0.76211688753E+01 -0.19715299297E+01  0.12203176921E+02  0.10500000000E+00 0.  1.
</event>
<event>
11    0  0.3396091E-009  0.9118800E+02  0.7816531E-02  0.1126479E+00
         25   -1    0    0    0    0  0.00000000000E+00  0.00000000000E+00  0.99999998245E-14  0.12500000000E+03  0.12500000000E+03 0.  0.
    3000001    1    3    3    0    0  0.15921393614E+02  0.10782589439E+02 -0.53442915556E+01  0.19982904240E+02  0.10000000000E+01 0.  1.
    1000022    2    1    0    0    0  0.55141144554E+02  0.27195876795E+02 -0.51076872421E+01  0.62499998953E+02  0.99999931370E+01 0.  0.
    3000022    2    3    3    0    0  0.39219750940E+02  0.16413287356E+02  0.23660431350E+00  0.42517094713E+02  0.24999120145E+00 0.  0.
    1000022    2    1    0    0    0 -0.55141144554E+02 -0.27195876795E+02  0.51076872421E+01  0.62500001047E+02  0.10000006229E+02 0.  0.
    3000022    2    5    5    0    0 -0.51136202581E+01 -0.60953630283E+01  0.49383460974E-01  0.79603704514E+01  0.24999281207E+00 0.  0.
        -13    1    4    4    0    0  0.16016712440E+02  0.67706953960E+01  0.10991073126E+00  0.17389666440E+02  0.10500000000E+00 0. -1.
         13    1    4    4    0    0  0.23203038500E+02  0.96425919599E+01  0.12669358225E+00  0.25127428273E+02  0.10500000000E+00 0.  1.
    3000001    1    5    5    0    0 -0.50027524296E+02 -0.21100513767E+02  0.50583037811E+01  0.54539630596E+02  0.10000000000E+01 0.  1.
        -13    1    6    6    0    0 -0.23736103978E+01 -0.29052363130E+01 -0.23267027589E-01  0.37531307877E+01  0.10500000000E+00 0.  1.
         13    1    6    6    0    0 -0.27400098603E+01 -0.31901267153E+01  0.72650488562E-01  0.42072396637E+01  0.10500000000E+00 0. -1.
</event>
<event>
11    0  0.3396091E-009  0.9118800E+02  0.7816531E-02  0.1126479E+00
         25   -1    0    0    0    0  0.00000000000E+00  0.00000000000E+00  0.99999998245E-14  0.12500000000E+03  0.12500000000E+03 0.  0.
    3000001    1    3    3    0    0  0.91889626842E+01  0.11920277222E+02  0.48313681981E+02  0.50613653404E+02  0.10000000000E+01 0.  1.
    1000022    2    1    0    0    0  0.67405822911E+01  0.13355418018E+02  0.59853549773E+02  0.62500000717E+02  0.10000001455E+02 0.  0.
    3000022    2    3    3    0    0 -0.24483803931E+01  0.14351407958E+01  0.11539867792E+02  0.11886347313E+02  0.25001629379E+00 0.  0.
    1000022    2    1    0    0    0 -0.67405822911E+01 -0.13355418018E+02 -0.59853549773E+02  0.62499999283E+02  0.99999924960E+01 0.  0.
    3000022    2    5    5    0    0 -0.12009694784E+01 -0.10112014255E+02 -0.24151885883E+02  0.26212042843E+02  0.24987661554E+00 0.  0.
        -13    1    4    4    0    0 -0.67236487103E+00  0.42727970789E+00  0.33744148953E+01  0.34687668348E+01  0.10500000000E+00 0. -1.
         13    1    4    4    0    0 -0.17760155221E+01  0.10078610880E+01  0.81654528964E+01  0.84175804785E+01  0.10500000000E+00 0.  1.
    3000001    1    5    5    0    0 -0.55396128126E+01 -0.32434037630E+01 -0.35701663890E+02  0.36287956440E+02  0.10000000000E+01 0. -1.
        -13    1    6    6    0    0 -0.28183833416E+00 -0.26207611835E+01 -0.62807443487E+01  0.68122387364E+01  0.10500000000E+00 0. -1.
         13    1    6    6    0    0 -0.91913114428E+00 -0.74912530717E+01 -0.17871141534E+02  0.19399804107E+02  0.10500000000E+00 0.  1.
</event>
<event>
11    0  0.3396091E-009  0.9118800E+02  0.7816531E-02  0.1126479E+00
         25   -1    0    0    0    0  0.00000000000E+00  0.00000000000E+00  0.99999998245E-14  0.12500000000E+03  0.12500000000E+03 0.  0.
    3000001    1    3    3    0    0  0.66969225355E+01  0.19906776821E+02 -0.92560138396E+01  0.22973948878E+02  0.10000000000E+01 0. -1.
    1000022    2    1    0    0    0  0.24567297863E+02  0.54849314331E+02 -0.13937393866E+02  0.62500004319E+02  0.10000009261E+02 0.  0.
    3000022    2    3    3    0    0  0.17870375328E+02  0.34942537510E+02 -0.46813800269E+01  0.39526055441E+02  0.24999559676E+00 0.  0.
    1000022    2    1    0    0    0 -0.24567297863E+02 -0.54849314331E+02  0.13937393866E+02  0.62499995681E+02  0.99999552745E+01 0.  0.
    3000022    2    5    5    0    0 -0.13025137028E+02 -0.26543608647E+02  0.11815601607E+02  0.31841612596E+02  0.24999354711E+00 0.  0.
        -13    1    4    4    0    0  0.98403599507E+01  0.19289108584E+02 -0.25195495735E+01  0.21800494237E+02  0.10500000000E+00 0. -1.
         13    1    4    4    0    0  0.80300153769E+01  0.15653428926E+02 -0.21618304533E+01  0.17725561204E+02  0.10500000000E+00 0.  1.
    3000001    1    5    5    0    0 -0.11542160835E+02 -0.28305705684E+02  0.21217922595E+01  0.30658383085E+02  0.10000000000E+01 0.  1.
        -13    1    6    6    0    0 -0.56981319999E+01 -0.11563952650E+02  0.50845834428E+01  0.13858489202E+02  0.10500000000E+00 0. -1.
         13    1    6    6    0    0 -0.73270050285E+01 -0.14979655997E+02  0.67310181642E+01  0.17983123394E+02  0.10500000000E+00 0.  1.
</event>
<event>
11    0  0.3396091E-009  0.9118800E+02  0.7816531E-02  0.1126479E+00
         25   -1    0    0    0    0  0.00000000000E+00  0.00000000000E+00  0.99999998245E-14  0.12500000000E+03  0.12500000000E+03 0.  0.
    3000001    1    3    3    0    0  0.45100489658E+01 -0.10614879763E+01 -0.22769178285E+01  0.52584839256E+01  0.10000000000E+01 0. -1.
    1000022    2    1    0    0    0  0.61655788181E+02  0.19686628451E+01 -0.96872711505E+00  0.62500000316E+02  0.99999878857E+01 0.  0.
    3000022    2    3    3    0    0  0.57145739215E+02  0.30301508215E+01  0.13081907134E+01  0.57241516391E+02  0.25002266288E+00 0.  0.
    1000022    2    1    0    0    0 -0.61655788181E+02 -0.19686628451E+01  0.96872711505E+00  0.62499999684E+02  0.99999839321E+01 0.  0.
    3000022    2    5    5    0    0 -0.36974846753E+02 -0.56373137905E+01  0.24568364481E+01  0.37483558311E+02  0.24999841202E+00 0.  0.
        -13    1    4    4    0    0  0.35807387453E+02  0.19253551018E+01  0.87352341644E+00  0.35869904609E+02  0.10500000000E+00 0.  1.
         13    1    4    4    0    0  0.21338351762E+02  0.11047957196E+01  0.43466729701E+00  0.21371611782E+02  0.10500000000E+00 0. -1.
    3000001    1    5    5    0    0 -0.24680941428E+02  0.36686509454E+01 -0.14881093330E+01  0.25016441372E+02  0.10000000000E+01 0. -1.
        -13    1    6    6    0    0 -0.25577720727E+02 -0.39081267541E+01  0.17469386636E+01  0.25933686048E+02  0.10500000000E+00 0.  1.
         13    1    6    6    0    0 -0.11397126025E+02 -0.17291870364E+01  0.70989778447E+00  0.11549872264E+02  0.10500000000E+00 0. -1.
</event>
<event>
11    0  0.3396091E-009  0.9118800E+02  0.7816531E-02  0.1126479E+00
         25   -1    0    0    0    0  0.00000000000E+00  0.00000000000E+00  0.99999998245E-14  0.12500000000E+03  0.12500000000E+03 0.  0.
    3000001    1    3    3    0    0 -0.19626626812E+02 -0.52678781956E+02  0.32320986767E+01  0.56317892452E+02  0.10000000000E+01 0.  1.
    1000022    2    1    0    0    0 -0.22193802057E+02 -0.57186695913E+02  0.65853453190E+01  0.62499999054E+02  0.10000003476E+02 0.  0.
    3000022    2    3    3    0    0 -0.25671752447E+01 -0.45079139570E+01  0.33532466423E+01  0.61821066012E+01  0.25000400791E+00 0.  0.
    1000022    2    1    0    0    0  0.22193802057E+02  0.57186695913E+02 -0.65853453190E+01  0.62500000946E+02  0.10000015305E+02 0.  0.
    3000022    2    5    5    0    0  0.22127489789E+02  0.51626442984E+02 -0.40727817863E+01  0.56316653514E+02  0.24998411439E+00 0.  0.
        -13    1    4    4    0    0 -0.17115339554E+01 -0.29407169297E+01  0.22520809982E+01  0.40816734758E+01  0.10500000000E+00 0.  1.
         13    1    4    4    0    0 -0.85564128929E+00 -0.15671970273E+01  0.11011656441E+01  0.21004331254E+01  0.10500000000E+00 0. -1.
    3000001    1    5    5    0    0  0.66312267725E-01  0.55602529299E+01 -0.25125635327E+01  0.61833474322E+01  0.10000000000E+01 0.  1.
        -13    1    6    6    0    0  0.10451821510E+02  0.24217187463E+02 -0.19005709153E+01  0.26444960509E+02  0.10500000000E+00 0. -1.
         13    1    6    6    0    0  0.11675668279E+02  0.27409255521E+02 -0.21722108710E+01  0.29871693005E+02  0.10500000000E+00 0.  1.
</event>
<event>
11    0  0.3396091E-009  0.9118800E+02  0.7816531E-02  0.1126479E+00
         25   -1    0    0    0    0  0.00000000000E+00  0.00000000000E+00  0.99999998245E-14  0.12500000000E+03  0.12500000000E+03 0.  0.
    3000001    1    3    3    0    0 -0.12024286032E+02 -0.39919938160E+01 -0.13972377935E+02  0.18887742437E+02  0.10000000000E+01 0.  1.
    1000022    2    1    0    0    0 -0.47334812653E+02 -0.22170463814E+01 -0.39506331930E+02  0.62500000296E+02  0.99999995387E+01 0.  0.
    3000022    2    3    3    0    0 -0.35310526621E+02  0.17749474346E+01 -0.25533953996E+02  0.43612257859E+02  0.25000046031E+00 0.  0.
    1000022    2    1    0    0    0  0.47334812653E+02  0.22170463814E+01  0.39506331930E+02  0.62499999704E+02  0.99999958443E+01 0.  0.
    3000022    2    5    5    0    0  0.93501200575E+01  0.40623060269E+01  0.10704450270E+02  0.14784276489E+02  0.25000077563E+00 0.  0.
        -13    1    4    4    0    0 -0.10375245641E+02  0.47881766184E+00 -0.74876887367E+01  0.12804354575E+02  0.10500000000E+00 0. -1.
         13    1    4    4    0    0 -0.24935280980E+02  0.12961297728E+01 -0.18046265259E+02  0.30807903283E+02  0.10500000000E+00 0.  1.
    3000001    1    5    5    0    0  0.37984692596E+02 -0.18452596456E+01  0.28801881661E+02  0.47715723215E+02  0.10000000000E+01 0.  1.
        -13    1    6    6    0    0  0.49317180271E+01  0.21221107723E+01  0.55433264247E+01  0.77178163802E+01  0.10500000000E+00 0. -1.
         13    1    6    6    0    0  0.44184020304E+01  0.19401952547E+01  0.51611238450E+01  0.70664601090E+01  0.10500000000E+00 0.  1.
</event>
<event>
11    0  0.3396091E-009  0.9118800E+02  0.7816531E-02  0.1126479E+00
         25   -1    0    0    0    0  0.00000000000E+00  0.00000000000E+00  0.99999998245E-14  0.12500000000E+03  0.12500000000E+03 0.  0.
    3000001    1    3    3    0    0  0.48830070450E+02  0.61064440658E+01 -0.16051160312E+02  0.51771654277E+02  0.10000000000E+01 0. -1.
    1000022    2    1    0    0    0  0.56644927106E+02  0.75255201736E+01 -0.23258739251E+02  0.62500002414E+02  0.10000006472E+02 0.  0.
    3000022    2    3    3    0    0  0.78148566564E+01  0.14190761079E+01 -0.72075789390E+01  0.10728348136E+02  0.24999602989E+00 0.  0.
    1000022    2    1    0    0    0 -0.56644927106E+02 -0.75255201736E+01  0.23258739251E+02  0.62499997586E+02  0.99999763002E+01 0.  0.
    3000022    2    5    5    0    0 -0.10314127294E+02 -0.29166492487E+01  0.83890385809E+01  0.13613468762E+02  0.24999751248E+00 0.  0.
        -13    1    4    4    0    0  0.44324569530E+01  0.77743939649E+00 -0.41640327706E+01  0.61319883047E+01  0.10500000000E+00 0.  1.
         13    1    4    4    0    0  0.33823997034E+01  0.64163671138E+00 -0.30435461684E+01  0.45963598316E+01  0.10500000000E+00 0. -1.
    3000001    1    5    5    0    0 -0.46330799812E+02 -0.46088709250E+01  0.14869700670E+02  0.48886528824E+02  0.10000000000E+01 0.  1.
        -13    1    6    6    0    0 -0.55792960152E+01 -0.16450428351E+01  0.45304687028E+01  0.73736613444E+01  0.10500000000E+00 0. -1.
         13    1    6    6    0    0 -0.47348312787E+01 -0.12716064136E+01  0.38585698781E+01  0.62398074179E+01  0.10500000000E+00 0.  1.
</event>
<event>
11    0  0.3396091E-009  0.9118800E+02  0.7816531E-02  0.1126479E+00
         25   -1    0    0    0    0  0.00000000000E+00  0.00000000000E+00  0.99999998245E-14  0.12500000000E+03  0.12500000000E+03 0.  0.
    3000001    1    3    3    0    0  0.63088076305E+01 -0.15326670996E+02  0.13967211168E+01  0.16663094773E+02  0.10000000000E+01 0.  1.
    1000022    2    1    0    0    0  0.30683324956E+02 -0.50379881289E+02  0.18073492094E+02  0.62499999513E+02  0.99999976818E+01 0.  0.
    3000022    2    3    3    0    0  0.24374517326E+02 -0.35053210293E+02  0.16676770978E+02  0.45836904740E+02  0.24999845962E+00 0.  0.
    1000022    2    1    0    0    0 -0.30683324956E+02  0.50379881289E+02 -0.18073492094E+02  0.62500000487E+02  0.10000003765E+02 0.  0.
    3000022    2    5    5    0    0 -0.29297158588E+02  0.49787741320E+02 -0.18467668208E+02  0.60648659958E+02  0.24999730248E+00 0.  0.
        -13    1    4    4    0    0  0.66896501959E+01 -0.96439379484E+01  0.45466390117E+01  0.12587291615E+02  0.10500000000E+00 0.  1.
         13    1    4    4    0    0  0.17684867130E+02 -0.25409272344E+02  0.12130131966E+02  0.33249613125E+02  0.10500000000E+00 0. -1.
    3000001    1    5    5    0    0 -0.13861663683E+01  0.59213996928E+00  0.39417611352E+00  0.18513405284E+01  0.10000000000E+01 0. -1.
        -13    1    6    6    0    0 -0.18406248334E+02  0.31316511827E+02 -0.11672127824E+02  0.38154468725E+02  0.10500000000E+00 0. -1.
         13    1    6    6    0    0 -0.10890910254E+02  0.18471229493E+02 -0.67955403837E+01  0.22494191233E+02  0.10500000000E+00 0.  1.
</event>
<event>
11    0  0.3396091E-009  0.9118800E+02  0.7816531E-02  0.1126479E+00
         25   -1    0    0    0    0  0.00000000000E+00  0.00000000000E+00  0.99999998245E-14  0.12500000000E+03  0.12500000000E+03 0.  0.
    3000001    1    3    3    0    0 -0.39876719295E+02 -0.32185196858E+02  0.17281043508E+00  0.51254946122E+02  0.10000000000E+01 0.  1.
    1000022    2    1    0    0    0 -0.45298305858E+02 -0.41848922531E+02 -0.17265162504E+01  0.62499995652E+02  0.99999883777E+01 0.  0.
    3000022    2    3    3    0    0 -0.54215865633E+01 -0.96637256721E+01 -0.18993266855E+01  0.11245049530E+02  0.25000468464E+00 0.  0.
    1000022    2    1    0    0    0  0.45298305858E+02  0.41848922531E+02  0.17265162504E+01  0.62500004348E+02  0.10000042730E+02 0.  0.
    3000022    2    5    5    0    0  0.24647374173E+02  0.26269264715E+02  0.51417469845E+01  0.36387736770E+02  0.25000581420E+00 0.  0.
        -13    1    4    4    0    0 -0.36532441085E+01 -0.66042707914E+01 -0.13162083787E+01  0.76619850364E+01  0.10500000000E+00 0. -1.
         13    1    4    4    0    0 -0.17683424548E+01 -0.30594548808E+01 -0.58311830683E+00  0.35830644935E+01  0.10500000000E+00 0.  1.
    3000001    1    5    5    0    0  0.20650931685E+02  0.15579657816E+02 -0.34152307341E+01  0.26112267578E+02  0.10000000000E+01 0.  1.
        -13    1    6    6    0    0  0.11459947851E+02  0.12203063528E+02  0.24570599857E+01  0.16920204874E+02  0.10500000000E+00 0. -1.
         13    1    6    6    0    0  0.13187426322E+02  0.14066201187E+02  0.26846869988E+01  0.19467531896E+02  0.10500000000E+00 0.  1.
</event>
<event>
11    0  0.3396091E-009  0.9118800E+02  0.7816531E-02  0.1126479E+00
         25   -1    0    0    0    0  0.00000000000E+00  0.00000000000E+00  0.99999998245E-14  0.12500000000E+03  0.12500000000E+03 0.  0.
    3000001    1    3    3    0    0 -0.75909229538E+00  0.31164445438E+02  0.27717063601E+02  0.41725705449E+02  0.10000000000E+01 0.  1.
    1000022    2    1    0    0    0  0.25557236762E+01  0.41973370310E+02  0.45143706400E+02  0.62499998317E+02  0.10000001173E+02 0.  0.
    3000022    2    3    3    0    0  0.33148159716E+01  0.10808924872E+02  0.17426642799E+02  0.20774292868E+02  0.25000622845E+00 0.  0.
    1000022    2    1    0    0    0 -0.25557236762E+01 -0.41973370310E+02 -0.45143706400E+02  0.62500001683E+02  0.10000022206E+02 0.  0.
    3000022    2    5    5    0    0 -0.55940254676E+01 -0.15603695151E+02 -0.15486553981E+02  0.22686213425E+02  0.25000418884E+00 0.  0.
        -13    1    4    4    0    0  0.20895507918E+01  0.70060237534E+01  0.11283326642E+02  0.13445262231E+02  0.10500000000E+00 0.  1.
         13    1    4    4    0    0  0.12252651798E+01  0.38029011184E+01  0.61433161567E+01  0.73290306370E+01  0.10500000000E+00 0. -1.
    3000001    1    5    5    0    0  0.30383017914E+01 -0.26369675159E+02 -0.29657152419E+02  0.39813788257E+02  0.10000000000E+01 0. -1.
        -13    1    6    6    0    0 -0.38770592433E+01 -0.10881888270E+02 -0.10736121072E+02  0.15770935336E+02  0.10500000000E+00 0. -1.
         13    1    6    6    0    0 -0.17169662243E+01 -0.47218068812E+01 -0.47504329086E+01  0.69152780897E+01  0.10500000000E+00 0.  1.
</event>
<event>
11    0  0.3396091E-009  0.9118800E+02  0.7816531E-02  0.1126479E+00
         25   -1    0    0    0    0  0.00000000000E+00  0.00000000000E+00  0.99999998245E-14  0.12500000000E+03  0.12500000000E+03 0.  0.
    3000001    1    3    3    0    0 -0.78039894330E+00  0.97544560118E+00 -0.31831876618E+01  0.35627517907E+01  0.10000000000E+01 0. -1.
    1000022    2    1    0    0    0  0.22804174130E+02  0.11541694066E+02 -0.56151663023E+02  0.62500002990E+02  0.10000002694E+02 0.  0.
    3000022    2    3    3    0    0  0.23584573074E+02  0.10566248465E+02 -0.52968475361E+02  0.58937251200E+02  0.25000643988E+00 0.  0.
    1000022    2    1    0    0    0 -0.22804174130E+02 -0.11541694066E+02  0.56151663023E+02  0.62499997010E+02  0.99999653141E+01 0.  0.
    3000022    2    5    5    0    0 -0.14214844123E+02 -0.17083773181E+01  0.30815954535E+02  0.33980375118E+02  0.24998554338E+00 0.  0.
        -13    1    4    4    0    0  0.12090921395E+02  0.54676764528E+01 -0.27084678680E+02  0.30160847305E+02  0.10500000000E+00 0. -1.
         13    1    4    4    0    0  0.11493651678E+02  0.50985720123E+01 -0.25883796681E+02  0.28776403895E+02  0.10500000000E+00 0.  1.
    3000001    1    5    5    0    0 -0.85893300075E+01 -0.98333167482E+01  0.25335708488E+02  0.28519621891E+02  0.10000000000E+01 0.  1.
        -13    1    6    6    0    0 -0.89676409694E+01 -0.11095153722E+01  0.19566970470E+02  0.21552887679E+02  0.10500000000E+00 0.  1.
         13    1    6    6    0    0 -0.52472031536E+01 -0.59886194589E+00  0.11248984065E+02  0.12427487439E+02  0.10500000000E+00 0. -1.
</event>
<event>
11    0  0.3396091E-009  0.9118800E+02  0.7816531E-02  0.1126479E+00
         25   -1    0    0    0    0  0.00000000000E+00  0.00000000000E+00  0.99999998245E-14  0.12500000000E+03  0.12500000000E+03 0.  0.
    3000001    1    3    3    0    0 -0.12860736273E+02 -0.77763356195E+01  0.20154041430E+02  0.25160590595E+02  0.10000000000E+01 0. -1.
    1000022    2    1    0    0    0 -0.22670802938E+02 -0.14066607680E+02  0.55627472905E+02  0.62500004260E+02  0.10000001663E+02 0.  0.
    3000022    2    3    3    0    0 -0.98100666649E+01 -0.62902720604E+01  0.35473431475E+02  0.37339413665E+02  0.25008330603E+00 0.  0.
    1000022    2    1    0    0    0  0.22670802938E+02  0.14066607680E+02 -0.55627472905E+02  0.62499995740E+02  0.99999484114E+01 0.  0.
    3000022    2    5    5    0    0  0.36736508317E+01  0.35116022306E+01 -0.39877802786E+01  0.64646695365E+01  0.25000001291E+00 0.  0.
        -13    1    4    4    0    0 -0.74890364336E+01 -0.48053419859E+01  0.27133375885E+02  0.28555351341E+02  0.10500000000E+00 0.  1.
         13    1    4    4    0    0 -0.23210302313E+01 -0.14849300745E+01  0.83400555900E+01  0.87840623236E+01  0.10500000000E+00 0. -1.
    3000001    1    5    5    0    0  0.18997152106E+02  0.10555005449E+02 -0.51639692626E+02  0.56035326203E+02  0.10000000000E+01 0. -1.
        -13    1    6    6    0    0  0.22830682408E+01  0.21025262361E+01 -0.24625405304E+01  0.39633506064E+01  0.10500000000E+00 0.  1.
         13    1    6    6    0    0  0.13905825910E+01  0.14090759946E+01 -0.15252397483E+01  0.25013189302E+01  0.10500000000E+00 0.  1.
</event>
<event>
11    0  0.3396091E-009  0.9118800E+02  0.7816531E-02  0.1126479E+00
         25   -1    0    0    0    0  0.00000000000E+00  0.00000000000E+00  0.99999998245E-14  0.12500000000E+03  0.12500000000E+03 0.  0.
    3000001    1    3    3    0    0 -0.26388986214E+01 -0.57523673252E+01 -0.86137807092E+01  0.10735489457E+02  0.10000000000E+01 0.  1.
    1000022    2    1    0    0    0 -0.35977426134E+01 -0.18033326831E+02 -0.58890621731E+02  0.62500000352E+02  0.10000004383E+02 0.  0.
    3000022    2    3    3    0    0 -0.95884399199E+00 -0.12280959506E+02 -0.50276841022E+02  0.51764510895E+02  0.24999377786E+00 0.  0.
    1000022    2    1    0    0    0  0.35977426134E+01  0.18033326831E+02  0.58890621731E+02  0.62499999648E+02  0.99999999794E+01 0.  0.
    3000022    2    5    5    0    0  0.17258244920E+01  0.17050287326E+02  0.40727492669E+02  0.44186897741E+02  0.25000959702E+00 0.  0.
        -13    1    4    4    0    0 -0.39037949171E+00 -0.57337501222E+01 -0.23605374300E+02  0.24295123121E+02  0.10500000000E+00 0. -1.
         13    1    4    4    0    0 -0.56846450028E+00 -0.65472093835E+01 -0.26671466722E+02  0.27469387774E+02  0.10500000000E+00 0.  1.
    3000001    1    5    5    0    0  0.18719181215E+01  0.98303950528E+00  0.18163129062E+02  0.18313101907E+02  0.10000000000E+01 0.  1.
        -13    1    6    6    0    0  0.12739736785E+01  0.12186531726E+02  0.29142265621E+02  0.31613560935E+02  0.10500000000E+00 0.  1.
         13    1    6    6    0    0  0.45185081346E+00  0.48637556000E+01  0.11585227047E+02  0.12573336806E+02  0.10500000000E+00 0. -1.
</event>
<event>
11    0  0.3396091E-009  0.9118800E+02  0.7816531E-02  0.1126479E+00
         25   -1    0    0    0    0  0.00000000000E+00  0.00000000000E+00  0.99999998245E-14  0.12500000000E+03  0.12500000000E+03 0.  0.
    3000001    1    3    3    0    0  0.76921370267E+00 -0.32618867466E+01  0.89071745663E+01  0.95691877201E+01  0.10000000000E+01 0.  1.
    1000022    2    1    0    0    0  0.25982292810E+02 -0.13395133292E+02  0.54329928577E+02  0.62500002234E+02  0.10000000227E+02 0.  0.
    3000022    2    3    3    0    0  0.25213079107E+02 -0.10133246545E+02  0.45422754011E+02  0.52930814514E+02  0.24999921146E+00 0.  0.
    1000022    2    1    0    0    0 -0.25982292810E+02  0.13395133292E+02 -0.54329928577E+02  0.62499997766E+02  0.99999722975E+01 0.  0.
    3000022    2    5    5    0    0 -0.24624791388E+02  0.11142409124E+02 -0.52752643539E+02  0.59274256862E+02  0.24998844863E+00 0.  0.
        -13    1    4    4    0    0  0.12093338657E+02 -0.48910556759E+01  0.21925529462E+02  0.25512960093E+02  0.10500000000E+00 0. -1.
         13    1    4    4    0    0  0.13119740449E+02 -0.52421908692E+01  0.23497224549E+02  0.27417854422E+02  0.10500000000E+00 0.  1.
    3000001    1    5    5    0    0 -0.13575014218E+01  0.22527241677E+01 -0.15772850387E+01  0.32257409040E+01  0.10000000000E+01 0. -1.
        -13    1    6    6    0    0 -0.15474528543E+02  0.70510627057E+01 -0.33275921229E+02  0.37369459155E+02  0.10500000000E+00 0. -1.
         13    1    6    6    0    0 -0.91502628452E+01  0.40913464182E+01 -0.19476722309E+02  0.21904797706E+02  0.10500000000E+00 0.  1.
</event>
<event>
11    0  0.3396091E-009  0.9118800E+02  0.7816531E-02  0.1126479E+00
         25   -1    0    0    0    0  0.00000000000E+00  0.00000000000E+00  0.99999998245E-14  0.12500000000E+03  0.12500000000E+03 0.  0.
    3000001    1    3    3    0    0  0.15402796843E+02 -0.33823031065E+02 -0.13640864584E+02  0.39601979340E+02  0.10000000000E+01 0.  1.
    1000022    2    1    0    0    0  0.30660202190E+02 -0.49847765413E+02 -0.19529524407E+02  0.62499999760E+02  0.99999965690E+01 0.  0.
    3000022    2    3    3    0    0  0.15257405347E+02 -0.16024734348E+02 -0.58886598227E+01  0.22898020420E+02  0.24999159482E+00 0.  0.
    1000022    2    1    0    0    0 -0.30660202190E+02  0.49847765413E+02  0.19529524407E+02  0.62500000240E+02  0.99999995703E+01 0.  0.
    3000022    2    5    5    0    0 -0.18566039707E+01  0.50923930429E+01  0.48573826305E+01  0.72825902074E+01  0.25001780605E+00 0.  0.
        -13    1    4    4    0    0  0.10643164305E+02 -0.11111676098E+02 -0.40847066982E+01  0.15919866392E+02  0.10500000000E+00 0. -1.
         13    1    4    4    0    0  0.46142410422E+01 -0.49130582504E+01 -0.18039531245E+01  0.69781540283E+01  0.10500000000E+00 0.  1.
    3000001    1    5    5    0    0 -0.28803598219E+02  0.44755372371E+02  0.14672141777E+02  0.55217410033E+02  0.10000000000E+01 0.  1.
        -13    1    6    6    0    0 -0.95084636659E+00  0.27362395692E+01  0.25268241682E+01  0.38453843982E+01  0.10500000000E+00 0.  1.
         13    1    6    6    0    0 -0.90575760407E+00  0.23561534737E+01  0.23305584623E+01  0.34372058092E+01  0.10500000000E+00 0. -1.
</event>
<event>
11    0  0.3396091E-009  0.9118800E+02  0.7816531E-02  0.1126479E+00
         25   -1    0    0    0    0  0.00000000000E+00  0.00000000000E+00  0.99999998245E-14  0.12500000000E+03  0.12500000000E+03 0.  0.
    3000001    1    3    3    0    0 -0.31988417100E+02 -0.17074801284E+02  0.96475331773E+01  0.37535084439E+02  0.10000000000E+01 0. -1.
    1000022    2    1    0    0    0 -0.51839749797E+02 -0.24375624372E+02  0.22906758790E+02  0.62499999664E+02  0.99999818627E+01 0.  0.
    3000022    2    3    3    0    0 -0.19851332697E+02 -0.73008230875E+01  0.13259225612E+02  0.24964915225E+02  0.25000149066E+00 0.  0.
    1000022    2    1    0    0    0  0.51839749797E+02  0.24375624372E+02 -0.22906758790E+02  0.62500000336E+02  0.99999860622E+01 0.  0.
    3000022    2    5    5    0    0  0.37909598248E+02  0.15285930024E+02 -0.12063288569E+02  0.42619041809E+02  0.24999525063E+00 0.  0.
        -13    1    4    4    0    0 -0.13964953977E+02 -0.50928816754E+01  0.92943755303E+01  0.17531509485E+02  0.10500000000E+00 0.  1.
         13    1    4    4    0    0 -0.58863787201E+01 -0.22079414121E+01  0.39648500821E+01  0.74334057396E+01  0.10500000000E+00 0. -1.
    3000001    1    5    5    0    0  0.13930151549E+02  0.90896943480E+01 -0.10843470221E+02  0.19880958527E+02  0.10000000000E+01 0.  1.
        -13    1    6    6    0    0  0.27075542796E+02  0.10958242441E+02 -0.86378639137E+01  0.30459675197E+02  0.10500000000E+00 0. -1.
         13    1    6    6    0    0  0.10834055452E+02  0.43276875827E+01 -0.34254246553E+01  0.12159366613E+02  0.10500000000E+00 0.  1.
</event>
<event>
11    0  0.3396091E-009  0.9118800E+02  0.7816531E-02  0.1126479E+00
         25   -1    0    0    0    0  0.00000000000E+00  0.00000000000E+00  0.99999998245E-14  0.12500000000E+03  0.12500000000E+03 0.  0.
    3000001    1    3    3    0    0  0.24529946371E+02 -0.20793627016E+02  0.36272709367E+02  0.48485076449E+02  0.10000000000E+01 0. -1.
    1000022    2    1    0    0    0  0.27832917184E+02 -0.24194749209E+02  0.49459001836E+02  0.62499999935E+02  0.99999980482E+01 0.  0.
    3000022    2    3    3    0    0  0.33029708130E+01 -0.34011221931E+01  0.13186292469E+02  0.14014923485E+02  0.25004573282E+00 0.  0.
    1000022    2    1    0    0    0 -0.27832917184E+02  0.24194749209E+02 -0.49459001836E+02  0.62500000065E+02  0.99999988664E+01 0.  0.
    3000022    2    5    5    0    0 -0.56495716247E+01  0.37371520358E+01 -0.16306025578E+02  0.17658792042E+02  0.25000265697E+00 0.  0.
        -13    1    4    4    0    0  0.23424497902E+01 -0.23870908667E+01  0.91736034353E+01  0.97647989643E+01  0.10500000000E+00 0. -1.
         13    1    4    4    0    0  0.96052102273E+00 -0.10140313264E+01  0.40126890334E+01  0.42501245211E+01  0.10500000000E+00 0.  1.
    3000001    1    5    5    0    0 -0.22183345559E+02  0.20457597173E+02 -0.33152976258E+02  0.44841208024E+02  0.10000000000E+01 0.  1.
        -13    1    6    6    0    0 -0.30945546123E+01  0.20789725927E+01 -0.91320944696E+01  0.98643078668E+01  0.10500000000E+00 0. -1.
         13    1    6    6    0    0 -0.25550170124E+01  0.16581794432E+01 -0.71739311086E+01  0.77944841747E+01  0.10500000000E+00 0.  1.
</event>
<event>
11    0  0.3396091E-009  0.9118800E+02  0.7816531E-02  0.1126479E+00
         25   -1    0    0    0    0  0.00000000000E+00  0.00000000000E+00  0.99999998245E-14  0.12500000000E+03  0.12500000000E+03 0.  0.
    3000001    1    3    3    0    0  0.24260292287E+01  0.10785430205E+02 -0.17411505652E+01  0.11235778915E+02  0.10000000000E+01 0.  1.
    1000022    2    1    0    0    0  0.22365312157E+02  0.56820520360E+02  0.88017742734E+01  0.62499999361E+02  0.99999983973E+01 0.  0.
    3000022    2    3    3    0    0  0.19939282929E+02  0.46035090155E+02  0.10542924839E+02  0.51264220447E+02  0.25000918265E+00 0.  0.
    1000022    2    1    0    0    0 -0.22365312157E+02 -0.56820520360E+02 -0.88017742734E+01  0.62500000639E+02  0.10000006381E+02 0.  0.
    3000022    2    5    5    0    0 -0.75682150363E+01 -0.18460060102E+02 -0.76111313741E+01  0.21355175631E+02  0.25001525754E+00 0.  0.
        -13    1    4    4    0    0  0.10213310687E+02  0.23699333605E+02  0.53738250766E+01  0.26360181134E+02  0.10500000000E+00 0.  1.
         13    1    4    4    0    0  0.97259722417E+01  0.22335756550E+02  0.51690997620E+01  0.24904039312E+02  0.10500000000E+00 0. -1.
    3000001    1    5    5    0    0 -0.14797097121E+02 -0.38360460258E+02 -0.11906428993E+01  0.41144825008E+02  0.10000000000E+01 0. -1.
        -13    1    6    6    0    0 -0.21111325515E+01 -0.52075811777E+01 -0.21078542300E+01  0.60024875533E+01  0.10500000000E+00 0.  1.
         13    1    6    6    0    0 -0.54570824848E+01 -0.13252478924E+02 -0.55032771441E+01  0.15352688077E+02  0.10500000000E+00 0. -1.
</event>
<event>
11    0  0.3396091E-009  0.9118800E+02  0.7816531E-02  0.1126479E+00
         25   -1    0    0    0    0  0.00000000000E+00  0.00000000000E+00  0.99999998245E-14  0.12500000000E+03  0.12500000000E+03 0.  0.
    3000001    1    3    3    0    0 -0.85743134442E+00 -0.18028164689E+02  0.73178876145E+01  0.19501317640E+02  0.10000000000E+01 0. -1.
    1000022    2    1    0    0    0  0.94647733371E+01 -0.53101169951E+02  0.29948853201E+02  0.62500000225E+02  0.10000001780E+02 0.  0.
    3000022    2    3    3    0    0  0.10322204681E+02 -0.35073005262E+02  0.22630965586E+02  0.42998682585E+02  0.24998614420E+00 0.  0.
    1000022    2    1    0    0    0 -0.94647733371E+01  0.53101169951E+02 -0.29948853201E+02  0.62499999775E+02  0.99999989687E+01 0.  0.
    3000022    2    5    5    0    0 -0.37859969942E+01  0.31024372828E+02 -0.22447636870E+02  0.38481221321E+02  0.25002146939E+00 0.  0.
        -13    1    4    4    0    0  0.72968739974E+01 -0.24899430960E+02  0.16024407229E+02  0.30496207704E+02  0.10500000000E+00 0.  1.
         13    1    4    4    0    0  0.30253306840E+01 -0.10173574302E+02  0.66065583573E+01  0.12502474881E+02  0.10500000000E+00 0. -1.
    3000001    1    5    5    0    0 -0.56787763429E+01  0.22076797123E+02 -0.75012163304E+01  0.24018778454E+02  0.10000000000E+01 0. -1.
        -13    1    6    6    0    0 -0.11187891994E+01  0.90476397190E+01 -0.65984145093E+01  0.11254402374E+02  0.10500000000E+00 0. -1.
         13    1    6    6    0    0 -0.26672077948E+01  0.21976733109E+02 -0.15849222361E+02  0.27226818947E+02  0.10500000000E+00 0.  1.
</event>
<event>
11    0  0.3396091E-009  0.9118800E+02  0.7816531E-02  0.1126479E+00
         25   -1    0    0    0    0  0.00000000000E+00  0.00000000000E+00  0.99999998245E-14  0.12500000000E+03  0.12500000000E+03 0.  0.
    3000001    1    3    3    0    0  0.29310590972E+01  0.38404334368E+01  0.52951429308E+02  0.53180766280E+02  0.10000000000E+01 0. -1.
    1000022    2    1    0    0    0  0.17439638698E+01  0.81386731999E+01  0.61130767654E+02  0.62500001080E+02  0.99999984802E+01 0.  0.
    3000022    2    3    3    0    0 -0.11870952274E+01  0.42982397631E+01  0.81793383466E+01  0.93192348002E+01  0.25000266654E+00 0.  0.
    1000022    2    1    0    0    0 -0.17439638698E+01 -0.81386731999E+01 -0.61130767654E+02  0.62499998920E+02  0.99999849755E+01 0.  0.
    3000022    2    5    5    0    0  0.35939081782E+00  0.19434895823E+01 -0.43557452859E+01  0.47897115157E+01  0.25001178295E+00 0.  0.
        -13    1    4    4    0    0 -0.44489137313E+00  0.14369927409E+01  0.28213965233E+01  0.31990904665E+01  0.10500000000E+00 0.  1.
         13    1    4    4    0    0 -0.74220385425E+00  0.28612470222E+01  0.53579418233E+01  0.61201443337E+01  0.10500000000E+00 0. -1.
    3000001    1    5    5    0    0 -0.21033546877E+01 -0.10082162782E+02 -0.56775022368E+02  0.57710287404E+02  0.10000000000E+01 0. -1.
        -13    1    6    6    0    0  0.18913147998E+00  0.90931633486E+00 -0.22027544492E+01  0.23928600204E+01  0.10500000000E+00 0.  1.
         13    1    6    6    0    0  0.17025933784E+00  0.10341732474E+01 -0.21529908367E+01  0.23968514954E+01  0.10500000000E+00 0. -1.
</event>
<event>
11    0  0.3396091E-009  0.9118800E+02  0.7816531E-02  0.1126479E+00
         25   -1    0    0    0    0  0.00000000000E+00  0.00000000000E+00  0.99999998245E-14  0.12500000000E+03  0.12500000000E+03 0.  0.
    3000001    1    3    3    0    0 -0.85532758647E+00 -0.36786702290E+01  0.15282172088E+00  0.39099302311E+01  0.10000000000E+01 0. -1.
    1000022    2    1    0    0    0 -0.27513959909E+02 -0.44981922886E+02  0.32029027499E+02  0.62500000537E+02  0.10000004407E+02 0.  0.
    3000022    2    3    3    0    0 -0.26658632323E+02 -0.41303252657E+02  0.31876205779E+02  0.58590070306E+02  0.24997246113E+00 0.  0.
    1000022    2    1    0    0    0  0.27513959909E+02  0.44981922886E+02 -0.32029027499E+02  0.62499999463E+02  0.99999976912E+01 0.  0.
    3000022    2    5    5    0    0  0.27988901796E+02  0.43587205483E+02 -0.31564486486E+02  0.60659726444E+02  0.24999912064E+00 0.  0.
        -13    1    4    4    0    0 -0.10794091981E+02 -0.16645005419E+02  0.12919717817E+02  0.23674855027E+02  0.10500000000E+00 0. -1.
         13    1    4    4    0    0 -0.15864540342E+02 -0.24658247239E+02  0.18956487961E+02  0.34915215279E+02  0.10500000000E+00 0.  1.
    3000001    1    5    5    0    0 -0.47494188637E+00  0.13947174036E+01 -0.46454101326E+00  0.18402730190E+01  0.10000000000E+01 0.  1.
        -13    1    6    6    0    0  0.17091437037E+02  0.26631273528E+02 -0.19210454830E+02  0.37018840467E+02  0.10500000000E+00 0. -1.
         13    1    6    6    0    0  0.10897464759E+02  0.16955931954E+02 -0.12354031656E+02  0.23640885977E+02  0.10500000000E+00 0.  1.
</event>
<event>
11    0  0.3396091E-009  0.9118800E+02  0.7816531E-02  0.1126479E+00
         25   -1    0    0    0    0  0.00000000000E+00  0.00000000000E+00  0.99999998245E-14  0.12500000000E+03  0.12500000000E+03 0.  0.
    3000001    1    3    3    0    0 -0.24279521017E+01  0.24099629538E+01  0.83100021752E+01  0.90420688451E+01  0.10000000000E+01 0.  1.
    1000022    2    1    0    0    0 -0.32149290627E+02  0.28506624279E+02  0.44272402264E+02  0.62500000114E+02  0.99999948199E+01 0.  0.
    3000022    2    3    3    0    0 -0.29721338526E+02  0.26096661325E+02  0.35962400089E+02  0.53457931269E+02  0.24999866249E+00 0.  0.
    1000022    2    1    0    0    0  0.32149290627E+02 -0.28506624279E+02 -0.44272402264E+02  0.62499999886E+02  0.99999933942E+01 0.  0.
    3000022    2    5    5    0    0  0.90394641598E+00 -0.35701633831E+01 -0.65932794361E+01  0.75562567118E+01  0.24999213394E+00 0.  0.
        -13    1    4    4    0    0 -0.20041446231E+02  0.17528125571E+02  0.24201342124E+02  0.35980699529E+02  0.10500000000E+00 0. -1.
         13    1    4    4    0    0 -0.96798922948E+01  0.85685357544E+01  0.11761057965E+02  0.17477231740E+02  0.10500000000E+00 0.  1.
    3000001    1    5    5    0    0  0.31245344211E+02 -0.24936460896E+02 -0.37679122828E+02  0.54943743174E+02  0.10000000000E+01 0.  1.
        -13    1    6    6    0    0  0.53342349249E+00 -0.22432357763E+01 -0.42258802300E+01  0.48151569121E+01  0.10500000000E+00 0.  1.
         13    1    6    6    0    0  0.37052292350E+00 -0.13269276067E+01 -0.23673992062E+01  0.27410997997E+01  0.10500000000E+00 0. -1.
</event>
<event>
11    0  0.3396091E-009  0.9118800E+02  0.7816531E-02  0.1126479E+00
         25   -1    0    0    0    0  0.00000000000E+00  0.00000000000E+00  0.99999998245E-14  0.12500000000E+03  0.12500000000E+03 0.  0.
    3000001    1    3    3    0    0 -0.24390463010E+02 -0.38966076045E+02 -0.40763935647E+02  0.61448744638E+02  0.10000000000E+01 0.  1.
    1000022    2    1    0    0    0 -0.23913606282E+02 -0.39849251157E+02 -0.40576182798E+02  0.62500000270E+02  0.10000002004E+02 0.  0.
    3000022    2    3    3    0    0  0.47685672766E+00 -0.88317511265E+00  0.18775284930E+00  0.10512556319E+01  0.24999330560E+00 0.  0.
    1000022    2    1    0    0    0  0.23913606282E+02  0.39849251157E+02  0.40576182798E+02  0.62499999730E+02  0.99999986301E+01 0.  0.
    3000022    2    5    5    0    0  0.23472406436E+02  0.35462398930E+02  0.33656266542E+02  0.54234144012E+02  0.24999476726E+00 0.  0.
        -13    1    4    4    0    0  0.22783133904E+00 -0.29935202407E+00  0.85873102970E-01  0.39989741582E+00  0.10500000000E+00 0.  1.
         13    1    4    4    0    0  0.24902538863E+00 -0.58382308857E+00  0.10187974633E+00  0.65135821607E+00  0.10500000000E+00 0. -1.
    3000001    1    5    5    0    0  0.44119984607E+00  0.43868522279E+01  0.69199162556E+01  0.82658557184E+01  0.10000000000E+01 0. -1.
        -13    1    6    6    0    0  0.13698855202E+02  0.20797195733E+02  0.19749983592E+02  0.31784506620E+02  0.10500000000E+00 0. -1.
         13    1    6    6    0    0  0.97735512341E+01  0.14665203196E+02  0.13906282951E+02  0.22449637392E+02  0.10500000000E+00 0.  1.
</event>
<event>
11    0  0.3396091E-009  0.9118800E+02  0.7816531E-02  0.1126479E+00
         25   -1    0    0    0    0  0.00000000000E+00  0.00000000000E+00  0.99999998245E-14  0.12500000000E+03  0.12500000000E+03 0.  0.
    3000001    1    3    3    0    0  0.22465653583E+02 -0.48206959445E+02 -0.13884640804E+02  0.54976356556E+02  0.10000000000E+01 0. -1.
    1000022    2    1    0    0    0  0.28267421176E+02 -0.52983686023E+02 -0.14139718656E+02  0.62499998221E+02  0.10000002471E+02 0.  0.
    3000022    2    3    3    0    0  0.58017675925E+01 -0.47767265776E+01 -0.25507785176E+00  0.75236416650E+01  0.24999039504E+00 0.  0.
    1000022    2    1    0    0    0 -0.28267421176E+02  0.52983686023E+02  0.14139718656E+02  0.62500001779E+02  0.10000024713E+02 0.  0.
    3000022    2    5    5    0    0 -0.33955934848E+01  0.12037621780E+02 -0.10053141820E+00  0.12510275717E+02  0.24999740688E+00 0.  0.
        -13    1    4    4    0    0  0.40158913684E+01 -0.32540259275E+01 -0.14770618422E+00  0.51719348736E+01  0.10500000000E+00 0. -1.
         13    1    4    4    0    0  0.17858762241E+01 -0.15227006501E+01 -0.10737166754E+00  0.23517067914E+01  0.10500000000E+00 0.  1.
    3000001    1    5    5    0    0 -0.24871827691E+02  0.40946064243E+02  0.14240250074E+02  0.49989726063E+02  0.10000000000E+01 0. -1.
        -13    1    6    6    0    0 -0.14496711261E+01  0.51135424743E+01 -0.10752872309E+00  0.53171844463E+01  0.10500000000E+00 0.  1.
         13    1    6    6    0    0 -0.19459223586E+01  0.69240793059E+01  0.69973048921E-02  0.71930912702E+01  0.10500000000E+00 0. -1.
</event>
<event>
11    0  0.3396091E-009  0.9118800E+02  0.7816531E-02  0.1126479E+00
         25   -1    0    0    0    0  0.00000000000E+00  0.00000000000E+00  0.99999998245E-14  0.12500000000E+03  0.12500000000E+03 0.  0.
    3000001    1    3    3    0    0 -0.28215434353E+01  0.57909547937E+01  0.22149857265E+01  0.68849420149E+01  0.10000000000E+01 0.  1.
    1000022    2    1    0    0    0 -0.46367764137E+02  0.35162417216E+02  0.20491090115E+02  0.62499999619E+02  0.10000002140E+02 0.  0.
    3000022    2    3    3    0    0 -0.43546220702E+02  0.29371462422E+02  0.18276104388E+02  0.55615057604E+02  0.24999704694E+00 0.  0.
    1000022    2    1    0    0    0  0.46367764137E+02 -0.35162417216E+02 -0.20491090115E+02  0.62500000381E+02  0.10000006898E+02 0.  0.
    3000022    2    5    5    0    0  0.40991293732E+02 -0.34246106027E+02 -0.17554525707E+02  0.56225490780E+02  0.25000160887E+00 0.  0.
        -13    1    4    4    0    0 -0.19737680264E+02  0.13385093943E+02  0.83292918914E+01  0.25261133991E+02  0.10500000000E+00 0. -1.
         13    1    4    4    0    0 -0.23808540438E+02  0.15986368479E+02  0.99468124970E+01  0.30353923614E+02  0.10500000000E+00 0.  1.
    3000001    1    5    5    0    0  0.53764704051E+01 -0.91631118895E+00 -0.29365644076E+01  0.62745096009E+01  0.10000000000E+01 0.  1.
        -13    1    6    6    0    0  0.19922387781E+02 -0.16708204667E+02 -0.84962266385E+01  0.27354387769E+02  0.10500000000E+00 0.  1.
         13    1    6    6    0    0  0.21068905951E+02 -0.17537901360E+02 -0.90582990688E+01  0.28871103011E+02  0.10500000000E+00 0. -1.
</event>
<event>
11    0  0.3396091E-009  0.9118800E+02  0.7816531E-02  0.1126479E+00
         25   -1    0    0    0    0  0.00000000000E+00  0.00000000000E+00  0.99999998245E-14  0.12500000000E+03  0.12500000000E+03 0.  0.
    3000001    1    3    3    0    0 -0.80790173495E+01  0.80890679708E+01  0.18617466631E+02  0.21870381929E+02  0.10000000000E+01 0.  1.
    1000022    2    1    0    0    0 -0.32481419045E+02  0.27495876187E+02  0.44667471865E+02  0.62500010078E+02  0.10000121320E+02 0.  0.
    3000022    2    3    3    0    0 -0.24402401696E+02  0.19406808216E+02  0.26050005234E+02  0.40629628149E+02  0.24999428516E+00 0.  0.
    1000022    2    1    0    0    0  0.32481419045E+02 -0.27495876187E+02 -0.44667471865E+02  0.62499989922E+02  0.99999953460E+01 0.  0.
    3000022    2    5    5    0    0  0.28979323718E+02 -0.20789636813E+02 -0.39827985024E+02  0.53463455680E+02  0.25000030456E+00 0.  0.
        -13    1    4    4    0    0 -0.17380225828E+02  0.13768785857E+02  0.18515043117E+02  0.28887186787E+02  0.10500000000E+00 0.  1.
         13    1    4    4    0    0 -0.70221758677E+01  0.56380223596E+01  0.75349621170E+01  0.11742441362E+02  0.10500000000E+00 0. -1.
    3000001    1    5    5    0    0  0.35020953269E+01 -0.67062393744E+01 -0.48394868409E+01  0.90365342421E+01  0.10000000000E+01 0.  1.
        -13    1    6    6    0    0  0.11411131414E+02 -0.82378553468E+01 -0.15647240188E+02  0.21045743783E+02  0.10500000000E+00 0. -1.
         13    1    6    6    0    0  0.17568192304E+02 -0.12551781466E+02 -0.24180744836E+02  0.32417711897E+02  0.10500000000E+00 0.  1.
</event>
<event>
11    0  0.3396091E-009  0.9118800E+02  0.7816531E-02  0.1126479E+00
         25   -1    0    0    0    0  0.00000000000E+00  0.00000000000E+00  0.99999998245E-14  0.12500000000E+03  0.12500000000E+03 0.  0.
    3000001    1    3    3    0    0 -0.21516563468E+02 -0.89160260553E+01 -0.43839878890E+02  0.49652724046E+02  0.10000000000E+01 0.  1.
    1000022    2    1    0    0    0 -0.30626883385E+02 -0.84611337134E+01 -0.52883392466E+02  0.62499999839E+02  0.10000000582E+02 0.  0.
    3000022    2    3    3    0    0 -0.91103199169E+01  0.45489234192E+00 -0.90435135756E+01  0.12847275793E+02  0.25000296533E+00 0.  0.
    1000022    2    1    0    0    0  0.30626883385E+02  0.84611337134E+01  0.52883392466E+02  0.62500000161E+02  0.10000002594E+02 0.  0.
    3000022    2    5    5    0    0  0.22642961473E+02  0.79501052504E+01  0.31174948680E+02  0.39342696976E+02  0.25000485120E+00 0.  0.
        -13    1    4    4    0    0 -0.56604907540E+01  0.33590397799E+00 -0.55798327064E+01  0.79561011237E+01  0.10500000000E+00 0. -1.
         13    1    4    4    0    0 -0.34498291629E+01  0.11898836392E+00 -0.34636808692E+01  0.48911746695E+01  0.10500000000E+00 0.  1.
    3000001    1    5    5    0    0  0.79839219117E+01  0.51102846293E+00  0.21708443786E+02  0.23157303185E+02  0.10000000000E+01 0. -1.
        -13    1    6    6    0    0  0.14672478067E+02  0.51359564810E+01  0.20103855004E+02  0.25413297162E+02  0.10500000000E+00 0.  1.
         13    1    6    6    0    0  0.79704834064E+01  0.28141487695E+01  0.11071093675E+02  0.13929399815E+02  0.10500000000E+00 0. -1.
</event>
<event>
11    0  0.3396091E-009  0.9118800E+02  0.7816531E-02  0.1126479E+00
         25   -1    0    0    0    0  0.00000000000E+00  0.00000000000E+00  0.99999998245E-14  0.12500000000E+03  0.12500000000E+03 0.  0.
    3000001    1    3    3    0    0  0.36294862817E+02 -0.16880442864E+02  0.39940109614E+02  0.56555095033E+02  0.10000000000E+01 0. -1.
    1000022    2    1    0    0    0  0.39082269751E+02 -0.21339351326E+02  0.42701971382E+02  0.62499999049E+02  0.99999898653E+01 0.  0.
    3000022    2    3    3    0    0  0.27874069337E+01 -0.44589084622E+01  0.27618617677E+01  0.59449040158E+01  0.25000248982E+00 0.  0.
    1000022    2    1    0    0    0 -0.39082269751E+02  0.21339351326E+02 -0.42701971382E+02  0.62500000951E+02  0.10000001756E+02 0.  0.
    3000022    2    5    5    0    0 -0.22215525177E+02  0.13903775465E+02 -0.31210407843E+02  0.40755325891E+02  0.24999938874E+00 0.  0.
        -13    1    4    4    0    0  0.12300827808E+01 -0.20425067006E+01  0.13131475797E+01  0.27240262179E+01  0.10500000000E+00 0. -1.
         13    1    4    4    0    0  0.15573241528E+01 -0.24164017617E+01  0.14487141880E+01  0.32208777979E+01  0.10500000000E+00 0.  1.
    3000001    1    5    5    0    0 -0.16866744574E+02  0.74355758604E+01 -0.11491563539E+02  0.21744675060E+02  0.10000000000E+01 0.  1.
        -13    1    6    6    0    0 -0.11421212833E+02  0.70688713007E+01 -0.15981257076E+02  0.20876413647E+02  0.10500000000E+00 0. -1.
         13    1    6    6    0    0 -0.10794312344E+02  0.68349041648E+01 -0.15229150767E+02  0.19878912244E+02  0.10500000000E+00 0.  1.
</event>
<event>
11    0  0.3396091E-009  0.9118800E+02  0.7816531E-02  0.1126479E+00
         25   -1    0    0    0    0  0.00000000000E+00  0.00000000000E+00  0.99999998245E-14  0.12500000000E+03  0.12500000000E+03 0.  0.
    3000001    1    3    3    0    0 -0.12928350622E+02  0.23048843625E+02  0.48710520150E+02  0.55426584014E+02  0.10000000000E+01 0.  1.
    1000022    2    1    0    0    0 -0.17623234305E+02  0.25966025510E+02  0.53117200668E+02  0.62500000136E+02  0.10000007105E+02 0.  0.
    3000022    2    3    3    0    0 -0.46948836833E+01  0.29171818852E+01  0.44066805179E+01  0.70734161218E+01  0.24999898763E+00 0.  0.
    1000022    2    1    0    0    0  0.17623234305E+02 -0.25966025510E+02 -0.53117200668E+02  0.62499999864E+02  0.10000005401E+02 0.  0.
    3000022    2    5    5    0    0  0.56810117850E+01 -0.16742203930E+02 -0.25824542248E+02  0.31297679968E+02  0.25000345201E+00 0.  0.
        -13    1    4    4    0    0 -0.19912298573E+01  0.12370864316E+01  0.19528553699E+01  0.30528754118E+01  0.10500000000E+00 0. -1.
         13    1    4    4    0    0 -0.27036538260E+01  0.16800954536E+01  0.24538251480E+01  0.40205407100E+01  0.10500000000E+00 0.  1.
    3000001    1    5    5    0    0  0.11942222520E+02 -0.92238215803E+01 -0.27292658419E+02  0.31202319896E+02  0.10000000000E+01 0. -1.
        -13    1    6    6    0    0  0.37904915949E+01 -0.11026261340E+02 -0.16978226187E+02  0.20596539883E+02  0.10500000000E+00 0. -1.
         13    1    6    6    0    0  0.18905201901E+01 -0.57159425893E+01 -0.88463160614E+01  0.10701140086E+02  0.10500000000E+00 0.  1.
</event>
<event>
11    0  0.3396091E-009  0.9118800E+02  0.7816531E-02  0.1126479E+00
         25   -1    0    0    0    0  0.00000000000E+00  0.00000000000E+00  0.99999998245E-14  0.12500000000E+03  0.12500000000E+03 0.  0.
    3000001    1    3    3    0    0  0.59151983399E+01  0.24153472580E+01  0.14673024872E+01  0.66314742227E+01  0.10000000000E+01 0.  1.
    1000022    2    1    0    0    0  0.43597281441E+02  0.20529650291E+02  0.38523506711E+02  0.62499999628E+02  0.99999947051E+01 0.  0.
    3000022    2    3    3    0    0  0.37682083101E+02  0.18114303033E+02  0.37056204224E+02  0.55868525405E+02  0.24999661371E+00 0.  0.
    1000022    2    1    0    0    0 -0.43597281441E+02 -0.20529650291E+02 -0.38523506711E+02  0.62500000372E+02  0.99999993558E+01 0.  0.
    3000022    2    5    5    0    0 -0.67674655298E+00 -0.24226199432E+01 -0.29058555502E+01  0.38514374121E+01  0.25000074939E+00 0.  0.
        -13    1    4    4    0    0  0.15034615078E+02  0.71841454178E+01  0.14702437789E+02  0.22222157813E+02  0.10500000000E+00 0.  1.
         13    1    4    4    0    0  0.22647468023E+02  0.10930157615E+02  0.22353766435E+02  0.33646367592E+02  0.10500000000E+00 0. -1.
    3000001    1    5    5    0    0 -0.42920534888E+02 -0.18107030348E+02 -0.35617651161E+02  0.58648562960E+02  0.10000000000E+01 0. -1.
        -13    1    6    6    0    0 -0.26692938528E+00 -0.77340796939E+00 -0.92224451775E+00  0.12373241832E+01  0.10500000000E+00 0. -1.
         13    1    6    6    0    0 -0.40981716770E+00 -0.16492119738E+01 -0.19836110324E+01  0.26141132289E+01  0.10500000000E+00 0.  1.
</event>
<event>
11    0  0.3396091E-009  0.9118800E+02  0.7816531E-02  0.1126479E+00
         25   -1    0    0    0    0  0.00000000000E+00  0.00000000000E+00  0.99999998245E-14  0.12500000000E+03  0.12500000000E+03 0.  0.
    3000001    1    3    3    0    0 -0.15376795392E+02  0.31909331911E+02 -0.95175916647E+01  0.36691086801E+02  0.10000000000E+01 0. -1.
    1000022    2    1    0    0    0 -0.28014212739E+02  0.54366836003E+02 -0.81056104640E+01  0.62499999946E+02  0.10000004997E+02 0.  0.
    3000022    2    3    3    0    0 -0.12637417347E+02  0.22457504092E+02  0.14119812007E+01  0.25808913146E+02  0.24999919157E+00 0.  0.
    1000022    2    1    0    0    0  0.28014212739E+02 -0.54366836003E+02  0.81056104640E+01  0.62500000054E+02  0.10000005670E+02 0.  0.
    3000022    2    5    5    0    0  0.64524636749E+01 -0.22437644725E+02  0.14914983006E+01  0.23395924076E+02  0.25001583043E+00 0.  0.
        -13    1    4    4    0    0 -0.86850621001E+01  0.15360713906E+02  0.93249633143E+00  0.17670948186E+02  0.10500000000E+00 0. -1.
         13    1    4    4    0    0 -0.39523552470E+01  0.70967901863E+01  0.47948486927E+00  0.81379649598E+01  0.10500000000E+00 0.  1.
    3000001    1    5    5    0    0  0.21561749064E+02 -0.31929191277E+02  0.66141121634E+01  0.39104075977E+02  0.10000000000E+01 0.  1.
        -13    1    6    6    0    0  0.36837696702E+01 -0.12982682686E+02  0.90624248079E+00  0.13525993832E+02  0.10500000000E+00 0. -1.
         13    1    6    6    0    0  0.27686940047E+01 -0.94549620396E+01  0.58525581980E+00  0.98699302448E+01  0.10500000000E+00 0.  1.
</event>
<event>
11    0  0.3396091E-009  0.9118800E+02  0.7816531E-02  0.1126479E+00
         25   -1    0    0    0    0  0.00000000000E+00  0.00000000000E+00  0.99999998245E-14  0.12500000000E+03  0.12500000000E+03 0.  0.
    3000001    1    3    3    0    0  0.12235826792E+02 -0.57918546916E+02 -0.35433755483E+01  0.59311289350E+02  0.10000000000E+01 0. -1.
    1000022    2    1    0    0    0  0.14449673715E+02 -0.59781586438E+02 -0.48599375170E+01  0.62499999683E+02  0.99999910042E+01 0.  0.
    3000022    2    3    3    0    0  0.22138469233E+01 -0.18630395225E+01 -0.13165619686E+01  0.31887103322E+01  0.25000740584E+00 0.  0.
    1000022    2    1    0    0    0 -0.14449673715E+02  0.59781586438E+02  0.48599375170E+01  0.62500000317E+02  0.99999949728E+01 0.  0.
    3000022    2    5    5    0    0 -0.13395382163E+02  0.34927378774E+02  0.25192690817E+01  0.37493563186E+02  0.25002469408E+00 0.  0.
        -13    1    4    4    0    0  0.13895492364E+01 -0.12353029311E+01 -0.81326452657E+00  0.20320542813E+01  0.10500000000E+00 0. -1.
         13    1    4    4    0    0  0.82429768688E+00 -0.62773659141E+00 -0.50329744207E+00  0.11566560509E+01  0.10500000000E+00 0.  1.
    3000001    1    5    5    0    0 -0.10542915524E+01  0.24854207665E+02  0.23406684352E+01  0.25006437132E+02  0.10000000000E+01 0.  1.
        -13    1    6    6    0    0 -0.54413634878E+01  0.14148564595E+02  0.95876017078E+00  0.15189488562E+02  0.10500000000E+00 0.  1.
         13    1    6    6    0    0 -0.79540186750E+01  0.20778814178E+02  0.15605089109E+01  0.22304074623E+02  0.10500000000E+00 0. -1.
</event>
<event>
11    0  0.3396091E-009  0.9118800E+02  0.7816531E-02  0.1126479E+00
         25   -1    0    0    0    0  0.00000000000E+00  0.00000000000E+00  0.99999998245E-14  0.12500000000E+03  0.12500000000E+03 0.  0.
    3000001    1    3    3    0    0  0.33354637614E+01 -0.29335902942E+02  0.42809005691E+00  0.29544945101E+02  0.10000000000E+01 0. -1.
    1000022    2    1    0    0    0  0.78513414254E+01 -0.60169657238E+02  0.11145348678E+02  0.62500000766E+02  0.10000004211E+02 0.  0.
    3000022    2    3    3    0    0  0.45158776640E+01 -0.30833754296E+02  0.10717258621E+02  0.32955055665E+02  0.25001287875E+00 0.  0.
    1000022    2    1    0    0    0 -0.78513414254E+01  0.60169657238E+02 -0.11145348678E+02  0.62499999234E+02  0.99999946379E+01 0.  0.
    3000022    2    5    5    0    0 -0.89449459961E+01  0.38699088113E+02 -0.99376923224E+01  0.40944495450E+02  0.24999859617E+00 0.  0.
        -13    1    4    4    0    0  0.29174668977E+01 -0.19550727536E+02  0.67719714292E+01  0.20895290912E+02  0.10500000000E+00 0. -1.
         13    1    4    4    0    0  0.15984107663E+01 -0.11283026760E+02  0.39452871920E+01  0.12059764752E+02  0.10500000000E+00 0.  1.
    3000001    1    5    5    0    0  0.10936045707E+01  0.21470569125E+02 -0.12076563557E+01  0.21555503784E+02  0.10000000000E+01 0.  1.
        -13    1    6    6    0    0 -0.59858654302E+01  0.26118104499E+02 -0.66888876802E+01  0.27617715528E+02  0.10500000000E+00 0. -1.
         13    1    6    6    0    0 -0.29590805659E+01  0.12580983614E+02 -0.32488046423E+01  0.13326779922E+02  0.10500000000E+00 0.  1.
</event>
<event>
11    0  0.3396091E-009  0.9118800E+02  0.7816531E-02  0.1126479E+00
         25   -1    0    0    0    0  0.00000000000E+00  0.00000000000E+00  0.99999998245E-14  0.12500000000E+03  0.12500000000E+03 0.  0.
    3000001    1    3    3    0    0 -0.40286508449E+02 -0.46205489553E+01 -0.37042718126E+02  0.54931914238E+02  0.10000000000E+01 0.  1.
    1000022    2    1    0    0    0 -0.47602216055E+02 -0.50032914979E+01 -0.38926161702E+02  0.62500000536E+02  0.10000005146E+02 0.  0.
    3000022    2    3    3    0    0 -0.73157076064E+01 -0.38274254265E+00 -0.18834435758E+01  0.75680862979E+01  0.25000174449E+00 0.  0.
    1000022    2    1    0    0    0  0.47602216055E+02  0.50032914979E+01  0.38926161702E+02  0.62499999464E+02  0.99999984500E+01 0.  0.
    3000022    2    5    5    0    0  0.31557324006E+00 -0.94440719901E+00  0.12325224671E+00  0.10340130107E+01  0.25000072499E+00 0.  0.
        -13    1    4    4    0    0 -0.32564413699E+01 -0.21497407740E+00 -0.88999617058E+00  0.33843378131E+01  0.10500000000E+00 0. -1.
         13    1    4    4    0    0 -0.40592662365E+01 -0.16776846525E+00 -0.99344740525E+00  0.41837484848E+01  0.10500000000E+00 0.  1.
    3000001    1    5    5    0    0  0.47286642815E+02  0.59476986969E+01  0.38802909455E+02  0.61465986454E+02  0.10000000000E+01 0.  1.
        -13    1    6    6    0    0  0.12072910936E+00 -0.30103270384E+00  0.91085801046E-01  0.35287084009E+00  0.10500000000E+00 0.  1.
         13    1    6    6    0    0  0.19484413070E+00 -0.64337449517E+00  0.32166445665E-01  0.68114217057E+00  0.10500000000E+00 0. -1.
</event>
<event>
11    0  0.3396091E-009  0.9118800E+02  0.7816531E-02  0.1126479E+00
         25   -1    0    0    0    0  0.00000000000E+00  0.00000000000E+00  0.99999998245E-14  0.12500000000E+03  0.12500000000E+03 0.  0.
    3000001    1    3    3    0    0 -0.11182307595E+01  0.31663081204E+01 -0.75978663069E+01  0.83668105968E+01  0.10000000000E+01 0.  1.
    1000022    2    1    0    0    0 -0.17035479384E+02  0.41450416201E+02 -0.42401714046E+02  0.62499998683E+02  0.99999960128E+01 0.  0.
    3000022    2    3    3    0    0 -0.15917248624E+02  0.38284108081E+02 -0.34803847739E+02  0.54133188086E+02  0.24999926189E+00 0.  0.
    1000022    2    1    0    0    0  0.17035479384E+02 -0.41450416201E+02  0.42401714046E+02  0.62500001317E+02  0.10000012472E+02 0.  0.
    3000022    2    5    5    0    0  0.36219580705E+01 -0.28461106367E+01  0.72052614624E+01  0.85555369424E+01  0.24998722009E+00 0.  0.
        -13    1    4    4    0    0 -0.81063547115E+01  0.19669531124E+02 -0.17877775907E+02  0.27789014695E+02  0.10500000000E+00 0.  1.
         13    1    4    4    0    0 -0.78108939130E+01  0.18614576956E+02 -0.16926071833E+02  0.26344173391E+02  0.10500000000E+00 0. -1.
    3000001    1    5    5    0    0  0.13413521313E+02 -0.38604305564E+02  0.35196452584E+02  0.53944464374E+02  0.10000000000E+01 0. -1.
        -13    1    6    6    0    0  0.24448835698E+01 -0.19569430675E+01  0.48159164986E+01  0.57455337925E+01  0.10500000000E+00 0.  1.
         13    1    6    6    0    0  0.11770745007E+01 -0.88916756919E+00  0.23893449638E+01  0.28100031499E+01  0.10500000000E+00 0. -1.
</event>
<event>
11    0  0.3396091E-009  0.9118800E+02  0.7816531E-02  0.1126479E+00
         25   -1    0    0    0    0  0.00000000000E+00  0.00000000000E+00  0.99999998245E-14  0.12500000000E+03  0.12500000000E+03 0.  0.
    3000001    1    3    3    0    0 -0.17456411039E+01 -0.11558086887E+02 -0.10121961286E+02  0.15494861588E+02  0.10000000000E+01 0. -1.
    1000022    2    1    0    0    0  0.99599875944E+01 -0.46327507888E+02 -0.39507093416E+02  0.62499998029E+02  0.99999991704E+01 0.  0.
    3000022    2    3    3    0    0  0.11705628698E+02 -0.34769421001E+02 -0.29385132130E+02  0.47005136440E+02  0.24996310317E+00 0.  0.
    1000022    2    1    0    0    0 -0.99599875944E+01  0.46327507888E+02  0.39507093416E+02  0.62500001971E+02  0.10000023814E+02 0.  0.
    3000022    2    5    5    0    0 -0.10150548314E+02  0.25814692321E+02  0.25127541226E+02  0.37428435665E+02  0.24999517621E+00 0.  0.
        -13    1    4    4    0    0  0.62380272455E+01 -0.18342146885E+02 -0.15558181137E+02  0.24847844204E+02  0.10500000000E+00 0. -1.
         13    1    4    4    0    0  0.54676014528E+01 -0.16427274116E+02 -0.13826950992E+02  0.22157292237E+02  0.10500000000E+00 0.  1.
    3000001    1    5    5    0    0  0.19056071913E+00  0.20512815566E+02  0.14379552190E+02  0.25071566306E+02  0.10000000000E+01 0.  1.
        -13    1    6    6    0    0 -0.46906694304E+01  0.11965285924E+02  0.11731061787E+02  0.17401128774E+02  0.10500000000E+00 0. -1.
         13    1    6    6    0    0 -0.54598788831E+01  0.13849406398E+02  0.13396479439E+02  0.20027306892E+02  0.10500000000E+00 0.  1.
</event>
<event>
11    0  0.3396091E-009  0.9118800E+02  0.7816531E-02  0.1126479E+00
         25   -1    0    0    0    0  0.00000000000E+00  0.00000000000E+00  0.99999998245E-14  0.12500000000E+03  0.12500000000E+03 0.  0.
    3000001    1    3    3    0    0 -0.40566902525E+02 -0.19700772477E+02  0.63627714103E+01  0.45555228862E+02  0.10000000000E+01 0. -1.
    1000022    2    1    0    0    0 -0.57394705812E+02 -0.21664837113E+02  0.65369802239E+01  0.62500002796E+02  0.10000040834E+02 0.  0.
    3000022    2    3    3    0    0 -0.16827803287E+02 -0.19640646361E+01  0.17420881357E+00  0.16944773934E+02  0.25000320830E+00 0.  0.
    1000022    2    1    0    0    0  0.57394705812E+02  0.21664837113E+02 -0.65369802239E+01  0.62499997204E+02  0.10000005884E+02 0.  0.
    3000022    2    5    5    0    0  0.84202613787E+01 -0.36916812372E+00 -0.45003044958E+00  0.84440581050E+01  0.25000617263E+00 0.  0.
        -13    1    4    4    0    0 -0.66527301424E+01 -0.77946052344E+00  0.13139223445E+00  0.67003481980E+01  0.10500000000E+00 0. -1.
         13    1    4    4    0    0 -0.10175073144E+02 -0.11846041127E+01  0.42816579127E-01  0.10244425736E+02  0.10500000000E+00 0.  1.
    3000001    1    5    5    0    0  0.48974444433E+02  0.22034005237E+02 -0.60869497743E+01  0.54055939099E+02  0.10000000000E+01 0. -1.
        -13    1    6    6    0    0  0.49919145847E+01 -0.26327214763E+00 -0.22107210850E+00  0.50048397899E+01  0.10500000000E+00 0. -1.
         13    1    6    6    0    0  0.34283467940E+01 -0.10589597609E+00 -0.22895834109E+00  0.34392183152E+01  0.10500000000E+00 0.  1.
</event>
<event>
11    0  0.3396091E-009  0.9118800E+02  0.7816531E-02  0.1126479E+00
         25   -1    0    0    0    0  0.00000000000E+00  0.00000000000E+00  0.99999998245E-14  0.12500000000E+03  0.12500000000E+03 0.  0.
    3000001    1    3    3    0    0  0.21050129388E+02  0.32283956349E+02  0.22097945909E+02  0.44437382891E+02  0.10000000000E+01 0. -1.
    1000022    2    1    0    0    0  0.24215045406E+02  0.45147180654E+02  0.34374609702E+02  0.62500001937E+02  0.10000005248E+02 0.  0.
    3000022    2    3    3    0    0  0.31649160179E+01  0.12863224305E+02  0.12276663793E+02  0.18062619046E+02  0.25000000255E+00 0.  0.
    1000022    2    1    0    0    0 -0.24215045406E+02 -0.45147180654E+02 -0.34374609702E+02  0.62499998063E+02  0.99999810363E+01 0.  0.
    3000022    2    5    5    0    0 -0.18564381344E+01 -0.78186105444E+01 -0.20833991030E+01  0.83054250185E+01  0.24999904946E+00 0.  0.
        -13    1    4    4    0    0  0.24209085039E+01  0.98465082526E+01  0.94149862904E+01  0.13837178708E+02  0.10500000000E+00 0. -1.
         13    1    4    4    0    0  0.74400751401E+00  0.30167160523E+01  0.28616775025E+01  0.42254403379E+01  0.10500000000E+00 0.  1.
    3000001    1    5    5    0    0 -0.22358607271E+02 -0.37328570110E+02 -0.32291210599E+02  0.54194573045E+02  0.10000000000E+01 0. -1.
        -13    1    6    6    0    0 -0.12580359805E+01 -0.51860934348E+01 -0.14321487807E+01  0.55263274218E+01  0.10500000000E+00 0. -1.
         13    1    6    6    0    0 -0.59840215388E+00 -0.26325171096E+01 -0.65125032233E+00  0.27790975968E+01  0.10500000000E+00 0.  1.
</event>
<event>
11    0  0.3396091E-009  0.9118800E+02  0.7816531E-02  0.1126479E+00
         25   -1    0    0    0    0  0.00000000000E+00  0.00000000000E+00  0.99999998245E-14  0.12500000000E+03  0.12500000000E+03 0.  0.
    3000001    1    3    3    0    0 -0.74985471020E+01 -0.10586207434E+02  0.88971454818E+01  0.15762461553E+02  0.10000000000E+01 0. -1.
    1000022    2    1    0    0    0 -0.38247752720E+02 -0.43701917898E+02  0.20820702064E+02  0.62500001337E+02  0.10000015832E+02 0.  0.
    3000022    2    3    3    0    0 -0.30749205618E+02 -0.33115710464E+02  0.11923556582E+02  0.46737539785E+02  0.24999575551E+00 0.  0.
    1000022    2    1    0    0    0  0.38247752720E+02  0.43701917898E+02 -0.20820702064E+02  0.62499998663E+02  0.99999991139E+01 0.  0.
    3000022    2    5    5    0    0  0.36022460831E+02  0.42960651921E+02 -0.21164986304E+02  0.59927076029E+02  0.24999669017E+00 0.  0.
        -13    1    4    4    0    0 -0.16166922820E+02 -0.17366883849E+02  0.61979384232E+01  0.24523529799E+02  0.10500000000E+00 0. -1.
         13    1    4    4    0    0 -0.14582282798E+02 -0.15748826615E+02  0.57256181589E+01  0.22214009986E+02  0.10500000000E+00 0.  1.
    3000001    1    5    5    0    0  0.22252918891E+01  0.74126597699E+00  0.34428423986E+00  0.25729226335E+01  0.10000000000E+01 0. -1.
        -13    1    6    6    0    0  0.23839424744E+02  0.28486431934E+02 -0.14066644290E+02  0.39719975869E+02  0.10500000000E+00 0. -1.
         13    1    6    6    0    0  0.12183036087E+02  0.14474219987E+02 -0.70983420133E+01  0.20207100160E+02  0.10500000000E+00 0.  1.
</event>
<event>
11    0  0.3396091E-009  0.9118800E+02  0.7816531E-02  0.1126479E+00
         25   -1    0    0    0    0  0.00000000000E+00  0.00000000000E+00  0.99999998245E-14  0.12500000000E+03  0.12500000000E+03 0.  0.
    3000001    1    3    3    0    0 -0.36061370358E+02 -0.32376244080E+02  0.14457546225E+02  0.50583240857E+02  0.10000000000E+01 0.  1.
    1000022    2    1    0    0    0 -0.40561044003E+02 -0.42342736778E+02  0.19187090930E+02  0.62499999311E+02  0.99999903560E+01 0.  0.
    3000022    2    3    3    0    0 -0.44996736453E+01 -0.99664926979E+01  0.47295447045E+01  0.11916758454E+02  0.24999864274E+00 0.  0.
    1000022    2    1    0    0    0  0.40561044003E+02  0.42342736778E+02 -0.19187090930E+02  0.62500000689E+02  0.99999989657E+01 0.  0.
    3000022    2    5    5    0    0  0.59285341833E+01  0.19069647433E+01 -0.20624084614E+01  0.65650639669E+01  0.25000826893E+00 0.  0.
        -13    1    4    4    0    0 -0.18488532927E+01 -0.39945302236E+01  0.18517252907E+01  0.47764465618E+01  0.10500000000E+00 0.  1.
         13    1    4    4    0    0 -0.26508203526E+01 -0.59719624743E+01  0.28778194138E+01  0.71403118920E+01  0.10500000000E+00 0. -1.
    3000001    1    5    5    0    0  0.34632509820E+02  0.40435772034E+02 -0.17124682468E+02  0.55934936722E+02  0.10000000000E+01 0.  1.
        -13    1    6    6    0    0  0.32258694082E+01  0.10569715950E+01 -0.10562873665E+01  0.35567106140E+01  0.10500000000E+00 0.  1.
         13    1    6    6    0    0  0.27026647751E+01  0.84999314822E+00 -0.10061210949E+01  0.30083533529E+01  0.10500000000E+00 0. -1.
</event>
<event>
11    0  0.3396091E-009  0.9118800E+02  0.7816531E-02  0.1126479E+00
         25   -1    0    0    0    0  0.00000000000E+00  0.00000000000E+00  0.99999998245E-14  0.12500000000E+03  0.12500000000E+03 0.  0.
    3000001    1    3    3    0    0 -0.55165742681E+01 -0.46353191648E+01  0.42777968190E+01  0.84390947998E+01  0.10000000000E+01 0.  1.
    1000022    2    1    0    0    0 -0.29871772166E+02 -0.21757913296E+02  0.49401625839E+02  0.62499998784E+02  0.99999824553E+01 0.  0.
    3000022    2    3    3    0    0 -0.24355197898E+02 -0.17122594131E+02  0.45123829021E+02  0.54060903984E+02  0.24999942207E+00 0.  0.
    1000022    2    1    0    0    0  0.29871772166E+02  0.21757913296E+02 -0.49401625839E+02  0.62500001216E+02  0.99999976527E+01 0.  0.
    3000022    2    5    5    0    0  0.93349095728E+01  0.10738082246E+02 -0.24826732371E+02  0.28616011035E+02  0.25000063033E+00 0.  0.
        -13    1    4    4    0    0 -0.12268932323E+02 -0.85488172542E+01  0.22617498378E+02  0.27114041282E+02  0.10500000000E+00 0.  1.
         13    1    4    4    0    0 -0.12086265575E+02 -0.85737768766E+01  0.22506330643E+02  0.26946862702E+02  0.10500000000E+00 0. -1.
    3000001    1    5    5    0    0  0.20536862594E+02  0.11019831050E+02 -0.24574893469E+02  0.33883990181E+02  0.10000000000E+01 0. -1.
        -13    1    6    6    0    0  0.24441312917E+01  0.27880048864E+01 -0.64149978147E+01  0.74101262459E+01  0.10500000000E+00 0.  1.
         13    1    6    6    0    0  0.68907782810E+01  0.79500773591E+01 -0.18411734556E+02  0.21205884789E+02  0.10500000000E+00 0. -1.
</event>
<event>
11    0  0.3396091E-009  0.9118800E+02  0.7816531E-02  0.1126479E+00
         25   -1    0    0    0    0  0.00000000000E+00  0.00000000000E+00  0.99999998245E-14  0.12500000000E+03  0.12500000000E+03 0.  0.
    3000001    1    3    3    0    0 -0.36040219068E+02  0.23263485905E+02  0.27034707849E+01  0.42992975254E+02  0.10000000000E+01 0. -1.
    1000022    2    1    0    0    0 -0.51607229178E+02  0.33699265645E+02 -0.27024634289E+01  0.62499997786E+02  0.99999903116E+01 0.  0.
    3000022    2    3    3    0    0 -0.15567010110E+02  0.10435779741E+02 -0.54059342138E+01  0.19507022532E+02  0.25000157830E+00 0.  0.
    1000022    2    1    0    0    0  0.51607229178E+02 -0.33699265645E+02  0.27024634289E+01  0.62500002214E+02  0.10000017982E+02 0.  0.
    3000022    2    5    5    0    0  0.54369744751E+01 -0.64252331561E+01  0.27757912238E+01  0.88663314038E+01  0.25000618111E+00 0.  0.
        -13    1    4    4    0    0 -0.10089478486E+02  0.67998634720E+01 -0.34593933605E+01  0.12649669829E+02  0.10500000000E+00 0. -1.
         13    1    4    4    0    0 -0.54775316241E+01  0.36359162689E+01 -0.19465408533E+01  0.68573527035E+01  0.10500000000E+00 0.  1.
    3000001    1    5    5    0    0  0.46170254703E+02 -0.27274032489E+02 -0.73327794879E-01  0.53633670810E+02  0.10000000000E+01 0.  1.
        -13    1    6    6    0    0  0.27571472073E+01 -0.32684418698E+01  0.13391115296E+01  0.44820550719E+01  0.10500000000E+00 0.  1.
         13    1    6    6    0    0  0.26798272679E+01 -0.31567912863E+01  0.14366796942E+01  0.43842763319E+01  0.10500000000E+00 0. -1.
</event>
<event>
11    0  0.3396091E-009  0.9118800E+02  0.7816531E-02  0.1126479E+00
         25   -1    0    0    0    0  0.00000000000E+00  0.00000000000E+00  0.99999998245E-14  0.12500000000E+03  0.12500000000E+03 0.  0.
    3000001    1    3    3    0    0  0.27454806755E+00 -0.10894782877E+02 -0.33615676820E+01  0.11448659653E+02  0.10000000000E+01 0. -1.
    1000022    2    1    0    0    0 -0.60424539849E+01 -0.61394858156E+02  0.64026772677E+00  0.62499999381E+02  0.10000006089E+02 0.  0.
    3000022    2    3    3    0    0 -0.63170020525E+01 -0.50500075279E+02  0.40018354088E+01  0.51051339728E+02  0.24996657125E+00 0.  0.
    1000022    2    1    0    0    0  0.60424539849E+01  0.61394858156E+02 -0.64026772677E+00  0.62500000619E+02  0.10000013823E+02 0.  0.
    3000022    2    5    5    0    0  0.22512472652E+01  0.27469793952E+02  0.46163247377E+01  0.27946925590E+02  0.25000365439E+00 0.  0.
        -13    1    4    4    0    0 -0.26585792785E+01 -0.21462523913E+02  0.17604712728E+01  0.21698346955E+02  0.10500000000E+00 0.  1.
         13    1    4    4    0    0 -0.36584227740E+01 -0.29037551366E+02  0.22413641359E+01  0.29352992773E+02  0.10500000000E+00 0. -1.
    3000001    1    5    5    0    0  0.37912067197E+01  0.33925064203E+02 -0.52565924645E+01  0.34553075029E+02  0.10000000000E+01 0. -1.
        -13    1    6    6    0    0  0.93228432436E+00  0.11901375489E+02  0.20499445008E+01  0.12113017380E+02  0.10500000000E+00 0. -1.
         13    1    6    6    0    0  0.13189629408E+01  0.15568418463E+02  0.25663802369E+01  0.15833908210E+02  0.10500000000E+00 0.  1.
</event>
<event>
11    0  0.3396091E-009  0.9118800E+02  0.7816531E-02  0.1126479E+00
         25   -1    0    0    0    0  0.00000000000E+00  0.00000000000E+00  0.99999998245E-14  0.12500000000E+03  0.12500000000E+03 0.  0.
    3000001    1    3    3    0    0  0.37071882898E+02 -0.36328935674E+00  0.32037133141E+02  0.49008513349E+02  0.10000000000E+01 0. -1.
    1000022    2    1    0    0    0  0.48527490537E+02  0.36498758262E+01  0.37921111428E+02  0.62499997405E+02  0.10000002619E+02 0.  0.
    3000022    2    3    3    0    0  0.11455607639E+02  0.40131651829E+01  0.58839782867E+01  0.13491484056E+02  0.25000081245E+00 0.  0.
    1000022    2    1    0    0    0 -0.48527490537E+02 -0.36498758262E+01 -0.37921111428E+02  0.62500002595E+02  0.10000035055E+02 0.  0.
    3000022    2    5    5    0    0 -0.21179765011E+02  0.13684467047E+01 -0.21406097101E+02  0.30145291181E+02  0.24998999069E+00 0.  0.
        -13    1    4    4    0    0  0.48214892288E+01  0.16259521388E+01  0.24383945729E+01  0.56433387134E+01  0.10500000000E+00 0. -1.
         13    1    4    4    0    0  0.66341184099E+01  0.23872130441E+01  0.34455837139E+01  0.78481453429E+01  0.10500000000E+00 0.  1.
    3000001    1    5    5    0    0 -0.27347725526E+02 -0.50183225309E+01 -0.16515014327E+02  0.32354711414E+02  0.10000000000E+01 0. -1.
        -13    1    6    6    0    0 -0.14434446730E+02  0.97029282698E+00 -0.14638227585E+02  0.20581143126E+02  0.10500000000E+00 0. -1.
         13    1    6    6    0    0 -0.67453182813E+01  0.39815387772E+00 -0.67678695162E+01  0.95641480548E+01  0.10500000000E+00 0.  1.
</event>
<event>
11    0  0.3396091E-009  0.9118800E+02  0.7816531E-02  0.1126479E+00
         25   -1    0    0    0    0  0.00000000000E+00  0.00000000000E+00  0.99999998245E-14  0.12500000000E+03  0.12500000000E+03 0.  0.
    3000001    1    3    3    0    0  0.25593270272E+02 -0.74664543036E+01 -0.47049832477E+02  0.54087430695E+02  0.10000000000E+01 0. -1.
    1000022    2    1    0    0    0  0.32492518945E+02 -0.83054147338E+01 -0.51783262834E+02  0.62500001233E+02  0.10000007153E+02 0.  0.
    3000022    2    3    3    0    0  0.68992486736E+01 -0.83896043015E+00 -0.47334303567E+01  0.84125705376E+01  0.24998649034E+00 0.  0.
    1000022    2    1    0    0    0 -0.32492518945E+02  0.83054147338E+01  0.51783262834E+02  0.62499998767E+02  0.99999917446E+01 0.  0.
    3000022    2    5    5    0    0 -0.14484380335E+02  0.74342694484E+01  0.30621258412E+02  0.34681257217E+02  0.24999894864E+00 0.  0.
        -13    1    4    4    0    0  0.46546499321E+01 -0.59808487778E+00 -0.32444351357E+01  0.57062120414E+01  0.10500000000E+00 0. -1.
         13    1    4    4    0    0  0.22445987414E+01 -0.24087555237E+00 -0.14889952210E+01  0.27063584962E+01  0.10500000000E+00 0.  1.
    3000001    1    5    5    0    0 -0.18008138610E+02  0.87114528533E+00  0.21162004422E+02  0.27818741551E+02  0.10000000000E+01 0.  1.
        -13    1    6    6    0    0 -0.64162749027E+01  0.32598065434E+01  0.13410171466E+02  0.15219679565E+02  0.10500000000E+00 0. -1.
         13    1    6    6    0    0 -0.80681054325E+01  0.41744629050E+01  0.17211086946E+02  0.19461577651E+02  0.10500000000E+00 0.  1.
</event>
<event>
11    0  0.3396091E-009  0.9118800E+02  0.7816531E-02  0.1126479E+00
         25   -1    0    0    0    0  0.00000000000E+00  0.00000000000E+00  0.99999998245E-14  0.12500000000E+03  0.12500000000E+03 0.  0.
    3000001    1    3    3    0    0  0.68622145911E+01  0.55526394298E+02 -0.64181418723E+01  0.56324621596E+02  0.10000000000E+01 0. -1.
    1000022    2    1    0    0    0  0.57610091031E+01  0.61264879476E+02 -0.44357120768E+01  0.62500008724E+02  0.10000043287E+02 0.  0.
    3000022    2    3    3    0    0 -0.11012054879E+01  0.57384851782E+01  0.19824297956E+01  0.61753871281E+01  0.25002523893E+00 0.  0.
    1000022    2    1    0    0    0 -0.57610091031E+01 -0.61264879476E+02  0.44357120768E+01  0.62499991276E+02  0.99999342362E+01 0.  0.
    3000022    2    5    5    0    0 -0.59936669397E+01 -0.28439140254E+02 -0.15967092916E+01  0.29108773977E+02  0.25000018526E+00 0.  0.
        -13    1    4    4    0    0 -0.64253255319E+00  0.36480769517E+01  0.12741875596E+01  0.39186595239E+01  0.10500000000E+00 0. -1.
         13    1    4    4    0    0 -0.45867293474E+00  0.20904082265E+01  0.70824223592E+00  0.22567276041E+01  0.10500000000E+00 0.  1.
    3000001    1    5    5    0    0  0.23265783655E+00 -0.32825739222E+02  0.60324213683E+01  0.33391217299E+02  0.10000000000E+01 0. -1.
        -13    1    6    6    0    0 -0.37060555356E+01 -0.17345245406E+02 -0.93691760007E+00  0.17761791165E+02  0.10500000000E+00 0.  1.
         13    1    6    6    0    0 -0.22876114040E+01 -0.11093894848E+02 -0.65979169150E+00  0.11346982811E+02  0.10500000000E+00 0. -1.
</event>
<event>
11    0  0.3396091E-009  0.9118800E+02  0.7816531E-02  0.1126479E+00
         25   -1    0    0    0    0  0.00000000000E+00  0.00000000000E+00  0.99999998245E-14  0.12500000000E+03  0.12500000000E+03 0.  0.
    3000001    1    3    3    0    0 -0.18646782141E+02 -0.14025640084E+02  0.84109689310E+01  0.24822680402E+02  0.10000000000E+01 0.  1.
    1000022    2    1    0    0    0 -0.41058065520E+02 -0.33450333024E+02  0.31647437941E+02  0.62499998710E+02  0.99999993463E+01 0.  0.
    3000022    2    3    3    0    0 -0.22411283379E+02 -0.19424692940E+02  0.23236469010E+02  0.37677318308E+02  0.25000872094E+00 0.  0.
    1000022    2    1    0    0    0  0.41058065520E+02  0.33450333024E+02 -0.31647437941E+02  0.62500001290E+02  0.10000015468E+02 0.  0.
    3000022    2    5    5    0    0  0.34291641668E+02  0.22612861636E+02 -0.23852938674E+02  0.47500351406E+02  0.25000121424E+00 0.  0.
        -13    1    4    4    0    0 -0.78502416013E+01 -0.67526405286E+01  0.80612677295E+01  0.13123243110E+02  0.10500000000E+00 0. -1.
         13    1    4    4    0    0 -0.14561041777E+02 -0.12672052411E+02  0.15175201281E+02  0.24554075199E+02  0.10500000000E+00 0.  1.
    3000001    1    5    5    0    0  0.67664238515E+01  0.10837471388E+02 -0.77944992667E+01  0.14999649884E+02  0.10000000000E+01 0. -1.
        -13    1    6    6    0    0  0.86928578655E+01  0.57309465898E+01 -0.60791714429E+01  0.12057233394E+02  0.10500000000E+00 0. -1.
         13    1    6    6    0    0  0.25598783803E+02  0.16881915046E+02 -0.17773767232E+02  0.35443118012E+02  0.10500000000E+00 0.  1.
</event>
<event>
11    0  0.3396091E-009  0.9118800E+02  0.7816531E-02  0.1126479E+00
         25   -1    0    0    0    0  0.00000000000E+00  0.00000000000E+00  0.99999998245E-14  0.12500000000E+03  0.12500000000E+03 0.  0.
    3000001    1    3    3    0    0  0.10303904669E+01 -0.28197723373E+02  0.38546295401E+02  0.47780646679E+02  0.10000000000E+01 0.  1.
    1000022    2    1    0    0    0  0.67151039391E+01 -0.35845308350E+02  0.49762147414E+02  0.62499999663E+02  0.99999945508E+01 0.  0.
    3000022    2    3    3    0    0  0.56847134721E+01 -0.76475849769E+01  0.11215852013E+02  0.14719352984E+02  0.24998529511E+00 0.  0.
    1000022    2    1    0    0    0 -0.67151039391E+01  0.35845308350E+02 -0.49762147414E+02  0.62500000337E+02  0.99999987681E+01 0.  0.
    3000022    2    5    5    0    0 -0.34007048167E+01  0.29495715485E+01 -0.39474276740E+01  0.59924496379E+01  0.25000370236E+00 0.  0.
        -13    1    4    4    0    0  0.23589205743E+01 -0.32610296381E+01  0.47970771834E+01  0.62627306409E+01  0.10500000000E+00 0. -1.
         13    1    4    4    0    0  0.33257928978E+01 -0.43865553387E+01  0.64187748292E+01  0.84566223427E+01  0.10500000000E+00 0.  1.
    3000001    1    5    5    0    0 -0.33143991223E+01  0.32895736801E+02 -0.45814719740E+02  0.56507550699E+02  0.10000000000E+01 0.  1.
        -13    1    6    6    0    0 -0.19078564356E+01  0.16339548822E+01 -0.21163595656E+01  0.32862938924E+01  0.10500000000E+00 0. -1.
         13    1    6    6    0    0 -0.14928483811E+01  0.13156166663E+01 -0.18310681084E+01  0.27061557456E+01  0.10500000000E+00 0.  1.
</event>
<event>
11    0  0.3396091E-009  0.9118800E+02  0.7816531E-02  0.1126479E+00
         25   -1    0    0    0    0  0.00000000000E+00  0.00000000000E+00  0.99999998245E-14  0.12500000000E+03  0.12500000000E+03 0.  0.
    3000001    1    3    3    0    0  0.10809511919E+02  0.52370865260E+02  0.18709199905E+02  0.56662044060E+02  0.10000000000E+01 0.  1.
    1000022    2    1    0    0    0  0.14468624582E+02  0.56022323660E+02  0.21410481738E+02  0.62499995496E+02  0.99999431587E+01 0.  0.
    3000022    2    3    3    0    0  0.36591126623E+01  0.36514584002E+01  0.27012818326E+01  0.58379514355E+01  0.24999900076E+00 0.  0.
    1000022    2    1    0    0    0 -0.14468624582E+02 -0.56022323660E+02 -0.21410481738E+02  0.62500004504E+02  0.99999994645E+01 0.  0.
    3000022    2    5    5    0    0 -0.10735349088E+02 -0.47707843482E+02 -0.14460100599E+02  0.50994539520E+02  0.25000352400E+00 0.  0.
        -13    1    4    4    0    0  0.15117883415E+01  0.14500412530E+01  0.11493509208E+01  0.23916847961E+01  0.10500000000E+00 0.  1.
         13    1    4    4    0    0  0.21473243208E+01  0.22014171471E+01  0.15519309119E+01  0.34462666394E+01  0.10500000000E+00 0. -1.
    3000001    1    5    5    0    0 -0.37332754937E+01 -0.83144801775E+01 -0.69503811386E+01  0.11505464984E+02  0.10000000000E+01 0. -1.
        -13    1    6    6    0    0 -0.71000721581E+01 -0.31331583693E+02 -0.95273554895E+01  0.33509113521E+02  0.10500000000E+00 0.  1.
         13    1    6    6    0    0 -0.36352769299E+01 -0.16376259790E+02 -0.49327451095E+01  0.17485425999E+02  0.10500000000E+00 0. -1.
</event>
<event>
11    0  0.3396091E-009  0.9118800E+02  0.7816531E-02  0.1126479E+00
         25   -1    0    0    0    0  0.00000000000E+00  0.00000000000E+00  0.99999998245E-14  0.12500000000E+03  0.12500000000E+03 0.  0.
    3000001    1    3    3    0    0  0.22104195167E+02  0.11576968669E+01 -0.12505541562E+02  0.25442568184E+02  0.10000000000E+01 0. -1.
    1000022    2    1    0    0    0  0.47937357272E+02  0.10355059151E+02 -0.37430372318E+02  0.62500002134E+02  0.10000001127E+02 0.  0.
    3000022    2    3    3    0    0  0.25833162105E+02  0.91973622841E+01 -0.24924830756E+02  0.37057433950E+02  0.24997075065E+00 0.  0.
    1000022    2    1    0    0    0 -0.47937357272E+02 -0.10355059151E+02  0.37430372318E+02  0.62499997866E+02  0.99999744568E+01 0.  0.
    3000022    2    5    5    0    0 -0.43848415723E+02 -0.11595769989E+02  0.31953616804E+02  0.55481902873E+02  0.24995294148E+00 0.  0.
        -13    1    4    4    0    0  0.13182074171E+02  0.47512180029E+01 -0.12682152206E+02  0.18899448710E+02  0.10500000000E+00 0. -1.
         13    1    4    4    0    0  0.12651087934E+02  0.44461442813E+01 -0.12242678551E+02  0.18157985240E+02  0.10500000000E+00 0.  1.
    3000001    1    5    5    0    0 -0.40889415495E+01  0.12407108378E+01  0.54767555144E+01  0.70180949938E+01  0.10000000000E+01 0.  1.
        -13    1    6    6    0    0 -0.28212634046E+02 -0.74855848223E+01  0.20627660335E+02  0.35742105364E+02  0.10500000000E+00 0.  1.
         13    1    6    6    0    0 -0.15635781677E+02 -0.41101851665E+01  0.11325956469E+02  0.19739797509E+02  0.10500000000E+00 0. -1.
</event>
<event>
11    0  0.3396091E-009  0.9118800E+02  0.7816531E-02  0.1126479E+00
         25   -1    0    0    0    0  0.00000000000E+00  0.00000000000E+00  0.99999998245E-14  0.12500000000E+03  0.12500000000E+03 0.  0.
    3000001    1    3    3    0    0  0.29061962675E+01  0.14447987215E+01  0.14148745465E+01  0.36790338505E+01  0.10000000000E+01 0.  1.
    1000022    2    1    0    0    0  0.39061052862E+02 -0.11050909737E+01  0.47741626701E+02  0.62499999998E+02  0.10000000148E+02 0.  0.
    3000022    2    3    3    0    0  0.36154856594E+02 -0.25498896952E+01  0.46326752155E+02  0.58820966148E+02  0.25000106031E+00 0.  0.
    1000022    2    1    0    0    0 -0.39061052862E+02  0.11050909737E+01 -0.47741626701E+02  0.62500000002E+02  0.10000000171E+02 0.  0.
    3000022    2    5    5    0    0 -0.21445913409E+02 -0.41580866882E+01 -0.27827774329E+02  0.35378869986E+02  0.25006102133E+00 0.  0.
        -13    1    4    4    0    0  0.90559143361E+01 -0.62514751362E+00  0.11565851200E+02  0.14703072225E+02  0.10500000000E+00 0.  1.
         13    1    4    4    0    0  0.27098942258E+02 -0.19247421816E+01  0.34760900955E+02  0.44117893922E+02  0.10500000000E+00 0. -1.
    3000001    1    5    5    0    0 -0.17615139452E+02  0.52631776619E+01 -0.19913852372E+02  0.27121130016E+02  0.10000000000E+01 0.  1.
        -13    1    6    6    0    0 -0.55112401547E+01 -0.10876033394E+01 -0.71954618167E+01  0.91292028580E+01  0.10500000000E+00 0.  1.
         13    1    6    6    0    0 -0.15934673255E+02 -0.30704833488E+01 -0.20632312513E+02  0.26249667128E+02  0.10500000000E+00 0. -1.
</event>
<event>
11    0  0.3396091E-009  0.9118800E+02  0.7816531E-02  0.1126479E+00
         25   -1    0    0    0    0  0.00000000000E+00  0.00000000000E+00  0.99999998245E-14  0.12500000000E+03  0.12500000000E+03 0.  0.
    3000001    1    3    3    0    0  0.14902765486E+02 -0.46722753890E+02 -0.21659303307E+02  0.53621204480E+02  0.10000000000E+01 0. -1.
    1000022    2    1    0    0    0  0.13498863119E+02 -0.54131883786E+02 -0.26339512001E+02  0.62499999488E+02  0.99999947873E+01 0.  0.
    3000022    2    3    3    0    0 -0.14039023670E+01 -0.74091298965E+01 -0.46802086937E+01  0.88787950071E+01  0.24999936669E+00 0.  0.
    1000022    2    1    0    0    0 -0.13498863119E+02  0.54131883786E+02  0.26339512001E+02  0.62500000512E+02  0.10000001193E+02 0.  0.
    3000022    2    5    5    0    0 -0.12172245854E+02  0.50936064606E+02  0.26865952169E+02  0.58859902594E+02  0.25000171118E+00 0.  0.
        -13    1    4    4    0    0 -0.10629231808E+01 -0.54260676618E+01 -0.34232027649E+01  0.65039494254E+01  0.10500000000E+00 0.  1.
         13    1    4    4    0    0 -0.34097918621E+00 -0.19830622347E+01 -0.12570059288E+01  0.23748455817E+01  0.10500000000E+00 0. -1.
    3000001    1    5    5    0    0 -0.13266172656E+01  0.31958191805E+01 -0.52644016750E+00  0.36400979181E+01  0.10000000000E+01 0. -1.
        -13    1    6    6    0    0 -0.41077395299E+01  0.16960331745E+02  0.89460959707E+01  0.19610457288E+02  0.10500000000E+00 0.  1.
         13    1    6    6    0    0 -0.80645063239E+01  0.33975732861E+02  0.17919856198E+02  0.39249445306E+02  0.10500000000E+00 0. -1.
</event>
<event>
11    0  0.3396091E-009  0.9118800E+02  0.7816531E-02  0.1126479E+00
         25   -1    0    0    0    0  0.00000000000E+00  0.00000000000E+00  0.99999998245E-14  0.12500000000E+03  0.12500000000E+03 0.  0.
    3000001    1    3    3    0    0 -0.58548345334E+00 -0.74867669503E+01 -0.11526529275E+02  0.13793308065E+02  0.10000000000E+01 0. -1.
    1000022    2    1    0    0    0 -0.20379738838E+02 -0.33712364080E+02 -0.47480450672E+02  0.62499996033E+02  0.99999530548E+01 0.  0.
    3000022    2    3    3    0    0 -0.19794255384E+02 -0.26225597130E+02 -0.35953921397E+02  0.48706687968E+02  0.24999587905E+00 0.  0.
    1000022    2    1    0    0    0  0.20379738838E+02  0.33712364080E+02  0.47480450672E+02  0.62500003967E+02  0.10000002641E+02 0.  0.
    3000022    2    5    5    0    0  0.17449646426E+02  0.20840331253E+02  0.34902004746E+02  0.44238241385E+02  0.24999694949E+00 0.  0.
        -13    1    4    4    0    0 -0.12232516141E+02 -0.16293968427E+02 -0.22340374142E+02  0.30236256383E+02  0.10500000000E+00 0.  1.
         13    1    4    4    0    0 -0.75617392439E+01 -0.99316287027E+01 -0.13613547256E+02  0.18470431586E+02  0.10500000000E+00 0. -1.
    3000001    1    5    5    0    0  0.29300924118E+01  0.12872032828E+02  0.12578445927E+02  0.18261762582E+02  0.10000000000E+01 0.  1.
        -13    1    6    6    0    0  0.54515331277E+01  0.65721363825E+01  0.10916203703E+02  0.13859535287E+02  0.10500000000E+00 0. -1.
         13    1    6    6    0    0  0.11998113298E+02  0.14268194870E+02  0.23985801042E+02  0.30378706098E+02  0.10500000000E+00 0.  1.
</event>
<event>
11    0  0.3396091E-009  0.9118800E+02  0.7816531E-02  0.1126479E+00
         25   -1    0    0    0    0  0.00000000000E+00  0.00000000000E+00  0.99999998245E-14  0.12500000000E+03  0.12500000000E+03 0.  0.
    3000001    1    3    3    0    0 -0.89934747811E+01  0.28230581959E+01  0.67658868714E+01  0.11646006671E+02  0.10000000000E+01 0.  1.
    1000022    2    1    0    0    0 -0.47072846717E+02 -0.48689563147E+01  0.39581439616E+02  0.62500000111E+02  0.10000000909E+02 0.  0.
    3000022    2    3    3    0    0 -0.38079371935E+02 -0.76920145106E+01  0.32815552745E+02  0.50853993440E+02  0.24998528239E+00 0.  0.
    1000022    2    1    0    0    0  0.47072846717E+02  0.48689563147E+01 -0.39581439616E+02  0.62499999889E+02  0.99999995215E+01 0.  0.
    3000022    2    5    5    0    0  0.30889148238E+02  0.27863490384E+01 -0.31708183098E+02  0.44355096535E+02  0.24998690667E+00 0.  0.
        -13    1    4    4    0    0 -0.21760985244E+02 -0.44516175786E+01  0.18808863626E+02  0.29105699678E+02  0.10500000000E+00 0. -1.
         13    1    4    4    0    0 -0.16318386692E+02 -0.32403969320E+01  0.14006689119E+02  0.21748293762E+02  0.10500000000E+00 0.  1.
    3000001    1    5    5    0    0  0.16183698479E+02  0.20826072763E+01 -0.78732565186E+01  0.18144903354E+02  0.10000000000E+01 0. -1.
        -13    1    6    6    0    0  0.17203317608E+02  0.15006190271E+01 -0.17594037624E+02  0.24652934493E+02  0.10500000000E+00 0. -1.
         13    1    6    6    0    0  0.13685830630E+02  0.12857300113E+01 -0.14114145474E+02  0.19702162042E+02  0.10500000000E+00 0.  1.
</event>
<event>
11    0  0.3396091E-009  0.9118800E+02  0.7816531E-02  0.1126479E+00
         25   -1    0    0    0    0  0.00000000000E+00  0.00000000000E+00  0.99999998245E-14  0.12500000000E+03  0.12500000000E+03 0.  0.
    3000001    1    3    3    0    0 -0.15748303653E+00 -0.53402656824E+01  0.68981951215E+01  0.87822738740E+01  0.10000000000E+01 0. -1.
    1000022    2    1    0    0    0 -0.20062964581E+02 -0.24124606427E+02  0.53119965486E+02  0.62500001064E+02  0.10000010836E+02 0.  0.
    3000022    2    3    3    0    0 -0.19905481544E+02 -0.18784340745E+02  0.46221770365E+02  0.53717727190E+02  0.25001218976E+00 0.  0.
    1000022    2    1    0    0    0  0.20062964581E+02  0.24124606427E+02 -0.53119965486E+02  0.62499998936E+02  0.99999975354E+01 0.  0.
    3000022    2    5    5    0    0  0.17045345348E+02  0.14924139836E+02 -0.41999318836E+02  0.47720844926E+02  0.25001980552E+00 0.  0.
        -13    1    4    4    0    0 -0.59646236500E+01 -0.56664040063E+01  0.13967194990E+02  0.16210442022E+02  0.10500000000E+00 0. -1.
         13    1    4    4    0    0 -0.13940857894E+02 -0.13117936738E+02  0.32254575375E+02  0.37507285168E+02  0.10500000000E+00 0.  1.
    3000001    1    5    5    0    0  0.30176192323E+01  0.92004665909E+01 -0.11120646651E+02  0.14779154010E+02  0.10000000000E+01 0.  1.
        -13    1    6    6    0    0  0.11854329258E+02  0.10316288712E+02 -0.29141480207E+02  0.33108727378E+02  0.10500000000E+00 0.  1.
         13    1    6    6    0    0  0.51910160899E+01  0.46078511243E+01 -0.12857838629E+02  0.14612117548E+02  0.10500000000E+00 0. -1.
</event>
<event>
11    0  0.3396091E-009  0.9118800E+02  0.7816531E-02  0.1126479E+00
         25   -1    0    0    0    0  0.00000000000E+00  0.00000000000E+00  0.99999998245E-14  0.12500000000E+03  0.12500000000E+03 0.  0.
    3000001    1    3    3    0    0  0.88459748649E+01 -0.32151766467E+01  0.26414098220E+01  0.98267837072E+01  0.10000000000E+01 0. -1.
    1000022    2    1    0    0    0  0.56536866197E+02  0.50793786959E+00  0.24689582842E+02  0.62499994450E+02  0.99999282544E+01 0.  0.
    3000022    2    3    3    0    0  0.47690891332E+02  0.37231145163E+01  0.22048173020E+02  0.52673210743E+02  0.24999739019E+00 0.  0.
    1000022    2    1    0    0    0 -0.56536866197E+02 -0.50793786959E+00 -0.24689582842E+02  0.62500005550E+02  0.99999976279E+01 0.  0.
    3000022    2    5    5    0    0 -0.28301595015E+02 -0.17361817726E+01 -0.17498114194E+02  0.33320280686E+02  0.24999422878E+00 0.  0.
        -13    1    4    4    0    0  0.18032108710E+02  0.13634337912E+01  0.82893142842E+01  0.19893206191E+02  0.10500000000E+00 0.  1.
         13    1    4    4    0    0  0.29658782622E+02  0.23596807252E+01  0.13758858736E+02  0.32780004552E+02  0.10500000000E+00 0. -1.
    3000001    1    5    5    0    0 -0.28235271182E+02  0.12282439030E+01 -0.71914686482E+01  0.29179724864E+02  0.10000000000E+01 0. -1.
        -13    1    6    6    0    0 -0.12569868382E+02 -0.76592900601E+00 -0.78492374018E+01  0.14839467348E+02  0.10500000000E+00 0.  1.
         13    1    6    6    0    0 -0.15731726632E+02 -0.97025276659E+00 -0.96488767921E+01  0.18480813337E+02  0.10500000000E+00 0. -1.
</event>
<event>
11    0  0.3396091E-009  0.9118800E+02  0.7816531E-02  0.1126479E+00
         25   -1    0    0    0    0  0.00000000000E+00  0.00000000000E+00  0.99999998245E-14  0.12500000000E+03  0.12500000000E+03 0.  0.
    3000001    1    3    3    0    0  0.46402206759E+02 -0.64144707703E+00  0.32158060777E+02  0.56468726915E+02  0.10000000000E+01 0.  1.
    1000022    2    1    0    0    0  0.52404390267E+02 -0.10155387112E+01  0.32542258579E+02  0.62500000309E+02  0.10000000356E+02 0.  0.
    3000022    2    3    3    0    0  0.60021835075E+01 -0.37409163417E+00  0.38419780186E+00  0.60312733939E+01  0.24999878549E+00 0.  0.
    1000022    2    1    0    0    0 -0.52404390267E+02  0.10155387112E+01 -0.32542258579E+02  0.62499999691E+02  0.99999964919E+01 0.  0.
    3000022    2    5    5    0    0 -0.34087266678E+02  0.52675859909E+01 -0.19944779130E+02  0.39844020103E+02  0.25002329978E+00 0.  0.
        -13    1    4    4    0    0  0.20972778500E+01 -0.18487765613E+00  0.15112879990E+00  0.21134377308E+01  0.10500000000E+00 0. -1.
         13    1    4    4    0    0  0.39049056574E+01 -0.18921397804E+00  0.23306900196E+00  0.39178356631E+01  0.10500000000E+00 0.  1.
    3000001    1    5    5    0    0 -0.18317123589E+02 -0.42520472797E+01 -0.12597479449E+02  0.22655979588E+02  0.10000000000E+01 0. -1.
        -13    1    6    6    0    0 -0.11344560946E+02  0.17579593397E+01 -0.65769291764E+01  0.13230892127E+02  0.10500000000E+00 0. -1.
         13    1    6    6    0    0 -0.22742705733E+02  0.35096266512E+01 -0.13367849953E+02  0.26613127976E+02  0.10500000000E+00 0.  1.
</event>
<event>
11    0  0.3396091E-009  0.9118800E+02  0.7816531E-02  0.1126479E+00
         25   -1    0    0    0    0  0.00000000000E+00  0.00000000000E+00  0.99999998245E-14  0.12500000000E+03  0.12500000000E+03 0.  0.
    3000001    1    3    3    0    0  0.20235168006E+02  0.35732261458E+02 -0.14463326081E+02  0.43548184055E+02  0.10000000000E+01 0. -1.
    1000022    2    1    0    0    0  0.31159576929E+02  0.51216284899E+02 -0.14567894619E+02  0.62499994757E+02  0.99999358869E+01 0.  0.
    3000022    2    3    3    0    0  0.10924408923E+02  0.15484023440E+02 -0.10456853758E+00  0.18951810702E+02  0.25000414771E+00 0.  0.
    1000022    2    1    0    0    0 -0.31159576929E+02 -0.51216284899E+02  0.14567894619E+02  0.62500005243E+02  0.10000001428E+02 0.  0.
    3000022    2    5    5    0    0 -0.10084119823E+01 -0.76551916728E+01  0.89546822154E+00  0.77770956507E+01  0.24999830193E+00 0.  0.
        -13    1    4    4    0    0  0.50364872983E+01  0.70509345290E+01 -0.38634968126E-02  0.86656172293E+01  0.10500000000E+00 0.  1.
         13    1    4    4    0    0  0.58879216251E+01  0.84330889113E+01 -0.10070504077E+00  0.10286193473E+02  0.10500000000E+00 0. -1.
    3000001    1    5    5    0    0 -0.30151164947E+02 -0.43561093226E+02  0.13672426397E+02  0.54722909593E+02  0.10000000000E+01 0. -1.
        -13    1    6    6    0    0 -0.35705999460E+00 -0.26762019647E+01  0.36992709693E+00  0.27271633344E+01  0.10500000000E+00 0.  1.
         13    1    6    6    0    0 -0.65135198767E+00 -0.49789897081E+01  0.52554112461E+00  0.50499323163E+01  0.10500000000E+00 0. -1.
</event>
<event>
11    0  0.3396091E-009  0.9118800E+02  0.7816531E-02  0.1126479E+00
         25   -1    0    0    0    0  0.00000000000E+00  0.00000000000E+00  0.99999998245E-14  0.12500000000E+03  0.12500000000E+03 0.  0.
    3000001    1    3    3    0    0  0.44041072618E+02  0.26647366103E+02  0.50391170518E+01  0.51730947200E+02  0.10000000000E+01 0. -1.
    1000022    2    1    0    0    0  0.51863448005E+02  0.31757276052E+02  0.10387874466E+02  0.62499997862E+02  0.99999987794E+01 0.  0.
    3000022    2    3    3    0    0  0.78223753869E+01  0.51099099490E+01  0.53487574146E+01  0.10769050661E+02  0.25001977739E+00 0.  0.
    1000022    2    1    0    0    0 -0.51863448005E+02 -0.31757276052E+02 -0.10387874466E+02  0.62500002138E+02  0.10000025506E+02 0.  0.
    3000022    2    5    5    0    0 -0.22539833252E+02 -0.10397933224E+02 -0.27441155135E+00  0.24825368227E+02  0.25001505292E+00 0.  0.
        -13    1    4    4    0    0  0.53445229124E+01  0.34748261523E+01  0.37043196576E+01  0.73736931775E+01  0.10500000000E+00 0. -1.
         13    1    4    4    0    0  0.24778524745E+01  0.16350837967E+01  0.16444377570E+01  0.33953574840E+01  0.10500000000E+00 0.  1.
    3000001    1    5    5    0    0 -0.29323614753E+02 -0.21359342828E+02 -0.10113462915E+02  0.37674633911E+02  0.10000000000E+01 0. -1.
        -13    1    6    6    0    0 -0.51689814414E+01 -0.23901348422E+01 -0.63076748328E-01  0.56961493469E+01  0.10500000000E+00 0.  1.
         13    1    6    6    0    0 -0.17370851811E+02 -0.80077983818E+01 -0.21133480302E+00  0.19129218880E+02  0.10500000000E+00 0. -1.
</event>
<event>
11    0  0.3396091E-009  0.9118800E+02  0.7816531E-02  0.1126479E+00
         25   -1    0    0    0    0  0.00000000000E+00  0.00000000000E+00  0.99999998245E-14  0.12500000000E+03  0.12500000000E+03 0.  0.
    3000001    1    3    3    0    0  0.17786776790E+01 -0.48161684875E+01 -0.23403875249E+01  0.57303217146E+01  0.10000000000E+01 0. -1.
    1000022    2    1    0    0    0  0.28123338875E+02 -0.31713762949E+02 -0.44828174696E+02  0.62499999524E+02  0.99999872043E+01 0.  0.
    3000022    2    3    3    0    0  0.26344661196E+02 -0.26897594461E+02 -0.42487787171E+02  0.56769677809E+02  0.24999712690E+00 0.  0.
    1000022    2    1    0    0    0 -0.28123338875E+02  0.31713762949E+02  0.44828174696E+02  0.62500000476E+02  0.99999931535E+01 0.  0.
    3000022    2    5    5    0    0 -0.57760966614E+00 -0.36196063511E-01  0.34553648292E+01  0.35124043967E+01  0.24999092364E+00 0.  0.
        -13    1    4    4    0    0  0.13588880274E+02 -0.13855855143E+02 -0.22001225462E+02  0.29337814091E+02  0.10500000000E+00 0.  1.
         13    1    4    4    0    0  0.12755780922E+02 -0.13041739318E+02 -0.20486561710E+02  0.27431863718E+02  0.10500000000E+00 0. -1.
    3000001    1    5    5    0    0 -0.27545729209E+02  0.31749959012E+02  0.41372809867E+02  0.58987596079E+02  0.10000000000E+01 0. -1.
        -13    1    6    6    0    0 -0.21097617430E+00 -0.57863315273E-01  0.11179744201E+01  0.11440065180E+01  0.10500000000E+00 0. -1.
         13    1    6    6    0    0 -0.36663349184E+00  0.21667251762E-01  0.23373904092E+01  0.23683978787E+01  0.10500000000E+00 0.  1.
</event>
<event>
11    0  0.3396091E-009  0.9118800E+02  0.7816531E-02  0.1126479E+00
         25   -1    0    0    0    0  0.00000000000E+00  0.00000000000E+00  0.99999998245E-14  0.12500000000E+03  0.12500000000E+03 0.  0.
    3000001    1    3    3    0    0 -0.54744670033E+01 -0.11534922503E+02 -0.64155736325E+01  0.14324238589E+02  0.10000000000E+01 0. -1.
    1000022    2    1    0    0    0 -0.29628504052E+02 -0.52940448132E+02 -0.11212083007E+02  0.62500000665E+02  0.99999988487E+01 0.  0.
    3000022    2    3    3    0    0 -0.24154037049E+02 -0.41405525629E+02 -0.47965093745E+01  0.48175762076E+02  0.24998209023E+00 0.  0.
    1000022    2    1    0    0    0  0.29628504052E+02  0.52940448132E+02  0.11212083007E+02  0.62499999335E+02  0.99999905343E+01 0.  0.
    3000022    2    5    5    0    0  0.19488733753E+02  0.31551063943E+02  0.21971441821E+01  0.37150643924E+02  0.25004440072E+00 0.  0.
        -13    1    4    4    0    0 -0.73655842409E+01 -0.12704874496E+02 -0.14431403782E+01  0.14756671248E+02  0.10500000000E+00 0. -1.
         13    1    4    4    0    0 -0.16788452808E+02 -0.28700651133E+02 -0.33533689964E+01  0.33419090828E+02  0.10500000000E+00 0.  1.
    3000001    1    5    5    0    0  0.10139770299E+02  0.21389384190E+02  0.90149388249E+01  0.25349355411E+02  0.10000000000E+01 0.  1.
        -13    1    6    6    0    0  0.97447717467E+01  0.15670223791E+02  0.10544238145E+01  0.18483487892E+02  0.10500000000E+00 0.  1.
         13    1    6    6    0    0  0.97439620062E+01  0.15880840151E+02  0.11427203677E+01  0.18667156032E+02  0.10500000000E+00 0. -1.
</event>
<event>
11    0  0.3396091E-009  0.9118800E+02  0.7816531E-02  0.1126479E+00
         25   -1    0    0    0    0  0.00000000000E+00  0.00000000000E+00  0.99999998245E-14  0.12500000000E+03  0.12500000000E+03 0.  0.
    3000001    1    3    3    0    0  0.25267362750E+02  0.23852627823E+02  0.40803160676E+02  0.53603035321E+02  0.10000000000E+01 0.  1.
    1000022    2    1    0    0    0  0.28561188128E+02  0.30894462126E+02  0.45122508701E+02  0.62499999788E+02  0.99999962304E+01 0.  0.
    3000022    2    3    3    0    0  0.32938253779E+01  0.70418343037E+01  0.43193480250E+01  0.88969644673E+01  0.24998677933E+00 0.  0.
    1000022    2    1    0    0    0 -0.28561188128E+02 -0.30894462126E+02 -0.45122508701E+02  0.62500000212E+02  0.99999988810E+01 0.  0.
    3000022    2    5    5    0    0 -0.20879457650E+02 -0.23111161403E+02 -0.26565830965E+02  0.40937555038E+02  0.25000887285E+00 0.  0.
        -13    1    4    4    0    0  0.14240185094E+01  0.29646422340E+01  0.18911396073E+01  0.37953084598E+01  0.10500000000E+00 0.  1.
         13    1    4    4    0    0  0.18698068686E+01  0.40771920697E+01  0.24282084177E+01  0.51016560074E+01  0.10500000000E+00 0. -1.
    3000001    1    5    5    0    0 -0.76817304781E+01 -0.77833007235E+01 -0.18556677736E+02  0.21562445174E+02  0.10000000000E+01 0. -1.
        -13    1    6    6    0    0 -0.10462768408E+02 -0.11498869331E+02 -0.13312168693E+02  0.20467495669E+02  0.10500000000E+00 0.  1.
         13    1    6    6    0    0 -0.10416689242E+02 -0.11612292072E+02 -0.13253662272E+02  0.20470059369E+02  0.10500000000E+00 0. -1.
</event>
<event>
11    0  0.3396091E-009  0.9118800E+02  0.7816531E-02  0.1126479E+00
         25   -1    0    0    0    0  0.00000000000E+00  0.00000000000E+00  0.99999998245E-14  0.12500000000E+03  0.12500000000E+03 0.  0.
    3000001    1    3    3    0    0  0.50645954496E+01 -0.12701976167E+02 -0.35989313129E+02  0.38512608131E+02  0.10000000000E+01 0. -1.
    1000022    2    1    0    0    0  0.16766923780E+01 -0.24499313253E+02 -0.56597015022E+02  0.62499999115E+02  0.10000006638E+02 0.  0.
    3000022    2    3    3    0    0 -0.33879030716E+01 -0.11797337087E+02 -0.20607701893E+02  0.23987390984E+02  0.24999864371E+00 0.  0.
    1000022    2    1    0    0    0 -0.16766923780E+01  0.24499313253E+02  0.56597015022E+02  0.62500000885E+02  0.10000017702E+02 0.  0.
    3000022    2    5    5    0    0 -0.16085903284E+01  0.18264374503E+02  0.29971594690E+02  0.35135934905E+02  0.24998914093E+00 0.  0.
        -13    1    4    4    0    0 -0.23963435138E+01 -0.82658493622E+01 -0.14525775521E+02  0.16884191049E+02  0.10500000000E+00 0.  1.
         13    1    4    4    0    0 -0.99155955782E+00 -0.35314877244E+01 -0.60819263728E+01  0.71031999344E+01  0.10500000000E+00 0. -1.
    3000001    1    5    5    0    0 -0.68102049676E-01  0.62349387504E+01  0.26625420332E+02  0.27364065980E+02  0.10000000000E+01 0.  1.
        -13    1    6    6    0    0 -0.69426307735E+00  0.81360189765E+01  0.13468155220E+02  0.15750524945E+02  0.10500000000E+00 0. -1.
         13    1    6    6    0    0 -0.91432725102E+00  0.10128355526E+02  0.16503439470E+02  0.19385409960E+02  0.10500000000E+00 0.  1.
</event>
<event>
11    0  0.3396091E-009  0.9118800E+02  0.7816531E-02  0.1126479E+00
         25   -1    0    0    0    0  0.00000000000E+00  0.00000000000E+00  0.99999998245E-14  0.12500000000E+03  0.12500000000E+03 0.  0.
    3000001    1    3    3    0    0 -0.28092621347E+02 -0.50911262783E+01  0.19469684943E+02  0.34571427114E+02  0.10000000000E+01 0. -1.
    1000022    2    1    0    0    0 -0.52257007698E+02 -0.76428702320E+00  0.32785224444E+02  0.62500000241E+02  0.10000005008E+02 0.  0.
    3000022    2    3    3    0    0 -0.24164386350E+02  0.43268392551E+01  0.13315539501E+02  0.27928573127E+02  0.24999815388E+00 0.  0.
    1000022    2    1    0    0    0  0.52257007698E+02  0.76428702320E+00 -0.32785224444E+02  0.62499999759E+02  0.10000001990E+02 0.  0.
    3000022    2    5    5    0    0  0.46669685060E+02 -0.12927863654E+01 -0.31518321953E+02  0.56331145156E+02  0.24999139789E+00 0.  0.
        -13    1    4    4    0    0 -0.60664641365E+01  0.10606926417E+01  0.33300912486E+01  0.70019703458E+01  0.10500000000E+00 0. -1.
         13    1    4    4    0    0 -0.18097922214E+02  0.32661466134E+01  0.99854482525E+01  0.20926602781E+02  0.10500000000E+00 0.  1.
    3000001    1    5    5    0    0  0.55873226379E+01  0.20570733886E+01 -0.12669024913E+01  0.61688546026E+01  0.10000000000E+01 0.  1.
        -13    1    6    6    0    0  0.29637017151E+02 -0.87965288492E+00 -0.20021351008E+02  0.35776977178E+02  0.10500000000E+00 0. -1.
         13    1    6    6    0    0  0.17032667909E+02 -0.41313348045E+00 -0.11496970945E+02  0.20554167978E+02  0.10500000000E+00 0.  1.
</event>
<event>
11    0  0.3396091E-009  0.9118800E+02  0.7816531E-02  0.1126479E+00
         25   -1    0    0    0    0  0.00000000000E+00  0.00000000000E+00  0.99999998245E-14  0.12500000000E+03  0.12500000000E+03 0.  0.
    3000001    1    3    3    0    0  0.81092705197E+01  0.96640837189E+01 -0.66029572824E+01  0.14274236490E+02  0.10000000000E+01 0.  1.
    1000022    2    1    0    0    0  0.24433262816E+02  0.53096066911E+02 -0.19750280453E+02  0.62500002239E+02  0.10000002437E+02 0.  0.
    3000022    2    3    3    0    0  0.16323992296E+02  0.43431983192E+02 -0.13147323171E+02  0.48225765750E+02  0.24997428391E+00 0.  0.
    1000022    2    1    0    0    0 -0.24433262816E+02 -0.53096066911E+02  0.19750280453E+02  0.62499997761E+02  0.99999744451E+01 0.  0.
    3000022    2    5    5    0    0 -0.24060393126E+02 -0.51243412383E+02  0.20537505166E+02  0.60221602853E+02  0.25000353840E+00 0.  0.
        -13    1    4    4    0    0  0.10919168766E+02  0.28971788334E+02 -0.87258746711E+01  0.32167447514E+02  0.10500000000E+00 0. -1.
         13    1    4    4    0    0  0.54048235302E+01  0.14460194858E+02 -0.44214484999E+01  0.16058318235E+02  0.10500000000E+00 0.  1.
    3000001    1    5    5    0    0 -0.37286968997E+00 -0.18526545279E+01 -0.78722471299E+00  0.22783949075E+01  0.10000000000E+01 0.  1.
        -13    1    6    6    0    0 -0.10878254403E+02 -0.23072963833E+02  0.91978382763E+01  0.27116587780E+02  0.10500000000E+00 0.  1.
         13    1    6    6    0    0 -0.13182138723E+02 -0.28170448550E+02  0.11339666890E+02  0.33105015073E+02  0.10500000000E+00 0. -1.
</event>
<event>
11    0  0.3396091E-009  0.9118800E+02  0.7816531E-02  0.1126479E+00
         25   -1    0    0    0    0  0.00000000000E+00  0.00000000000E+00  0.99999998245E-14  0.12500000000E+03  0.12500000000E+03 0.  0.
    3000001    1    3    3    0    0  0.21798199459E+02 -0.76596961559E+01  0.35087483760E+02  0.42023373990E+02  0.10000000000E+01 0. -1.
    1000022    2    1    0    0    0  0.36315857294E+02 -0.14835923095E+02  0.47616212719E+02  0.62499999076E+02  0.10000003286E+02 0.  0.
    3000022    2    3    3    0    0  0.14517657835E+02 -0.71762269390E+01  0.12528728959E+02  0.20476625086E+02  0.25000701296E+00 0.  0.
    1000022    2    1    0    0    0 -0.36315857294E+02  0.14835923095E+02 -0.47616212719E+02  0.62500000924E+02  0.10000014842E+02 0.  0.
    3000022    2    5    5    0    0 -0.10126193781E+02 -0.24669109624E+00 -0.99929524070E+01  0.14231031159E+02  0.24998609802E+00 0.  0.
        -13    1    4    4    0    0  0.74055308659E+01 -0.35987922671E+01  0.63203975307E+01  0.10380348893E+02  0.10500000000E+00 0.  1.
         13    1    4    4    0    0  0.71121269690E+01 -0.35774346719E+01  0.62083314278E+01  0.10096276193E+02  0.10500000000E+00 0. -1.
    3000001    1    5    5    0    0 -0.26189663513E+02  0.15082614191E+02 -0.37623260312E+02  0.48268969765E+02  0.10000000000E+01 0. -1.
        -13    1    6    6    0    0 -0.59147243386E+01 -0.79620321200E-01 -0.58376223175E+01  0.83113875327E+01  0.10500000000E+00 0. -1.
         13    1    6    6    0    0 -0.42114694426E+01 -0.16707077504E+00 -0.41553300896E+01  0.59196436264E+01  0.10500000000E+00 0.  1.
</event>
<event>
11    0  0.3396091E-009  0.9118800E+02  0.7816531E-02  0.1126479E+00
         25   -1    0    0    0    0  0.00000000000E+00  0.00000000000E+00  0.99999998245E-14  0.12500000000E+03  0.12500000000E+03 0.  0.
    3000001    1    3    3    0    0  0.46832314227E+01  0.61076667324E-01 -0.35071405308E+01  0.59360274276E+01  0.10000000000E+01 0. -1.
    1000022    2    1    0    0    0  0.44408655528E+02 -0.27799307002E+02 -0.32577911279E+02  0.62499995808E+02  0.99999508545E+01 0.  0.
    3000022    2    3    3    0    0  0.39725424105E+02 -0.27860383669E+02 -0.29070770748E+02  0.56563968380E+02  0.25001699023E+00 0.  0.
    1000022    2    1    0    0    0 -0.44408655528E+02  0.27799307002E+02  0.32577911279E+02  0.62500004192E+02  0.10000003259E+02 0.  0.
    3000022    2    5    5    0    0 -0.40978531609E+02  0.27312457009E+02  0.32276224841E+02  0.58881470274E+02  0.24998182695E+00 0.  0.
        -13    1    4    4    0    0  0.12105225107E+02 -0.85150108551E+01 -0.89167785476E+01  0.17278942370E+02  0.10500000000E+00 0.  1.
         13    1    4    4    0    0  0.27620198998E+02 -0.19345372814E+02 -0.20153992201E+02  0.39285026010E+02  0.10500000000E+00 0. -1.
    3000001    1    5    5    0    0 -0.34301239188E+01  0.48684999249E+00  0.30168643824E+00  0.36185339187E+01  0.10000000000E+01 0.  1.
        -13    1    6    6    0    0 -0.26839545744E+02  0.17923506491E+02  0.21095600893E+02  0.38557083690E+02  0.10500000000E+00 0. -1.
         13    1    6    6    0    0 -0.14138985865E+02  0.93889505181E+01  0.11180623948E+02  0.20324386583E+02  0.10500000000E+00 0.  1.
</event>
<event>
11    0  0.3396091E-009  0.9118800E+02  0.7816531E-02  0.1126479E+00
         25   -1    0    0    0    0  0.00000000000E+00  0.00000000000E+00  0.99999998245E-14  0.12500000000E+03  0.12500000000E+03 0.  0.
    3000001    1    3    3    0    0  0.53260280052E+01 -0.99446160864E+01 -0.32214418768E+01  0.11774534011E+02  0.10000000000E+01 0. -1.
    1000022    2    1    0    0    0  0.21064200386E+02 -0.46361416490E+02 -0.34830569344E+02  0.62499999625E+02  0.99999957756E+01 0.  0.
    3000022    2    3    3    0    0  0.15738172381E+02 -0.36416800403E+02 -0.31609127467E+02  0.50725465614E+02  0.25000204964E+00 0.  0.
    1000022    2    1    0    0    0 -0.21064200386E+02  0.46361416490E+02  0.34830569344E+02  0.62500000375E+02  0.10000000459E+02 0.  0.
    3000022    2    5    5    0    0 -0.14872958632E+02  0.29766612282E+02  0.28002894315E+02  0.43491156447E+02  0.24998777309E+00 0.  0.
        -13    1    4    4    0    0  0.88360796747E+01 -0.20424369650E+02 -0.17814648757E+02  0.28506208358E+02  0.10500000000E+00 0. -1.
         13    1    4    4    0    0  0.69020927060E+01 -0.15992430754E+02 -0.13794478710E+02  0.22219257256E+02  0.10500000000E+00 0.  1.
    3000001    1    5    5    0    0 -0.61912417536E+01  0.16594804208E+02  0.68276750285E+01  0.19008843927E+02  0.10000000000E+01 0.  1.
        -13    1    6    6    0    0 -0.36445409456E+01  0.72685725413E+01  0.68687143092E+01  0.10644486214E+02  0.10500000000E+00 0.  1.
         13    1    6    6    0    0 -0.11228417687E+02  0.22498039741E+02  0.21134180006E+02  0.32846670234E+02  0.10500000000E+00 0. -1.
</event>
<event>
11    0  0.3396091E-009  0.9118800E+02  0.7816531E-02  0.1126479E+00
         25   -1    0    0    0    0  0.00000000000E+00  0.00000000000E+00  0.99999998245E-14  0.12500000000E+03  0.12500000000E+03 0.  0.
    3000001    1    3    3    0    0 -0.35481020836E+02  0.35016337130E+02  0.26095284612E+00  0.49860954684E+02  0.10000000000E+01 0. -1.
    1000022    2    1    0    0    0 -0.40334521032E+02  0.46683421557E+02  0.18605664462E+00  0.62499998783E+02  0.99999897827E+01 0.  0.
    3000022    2    3    3    0    0 -0.48535001959E+01  0.11667084427E+02 -0.74896201502E-01  0.12639044099E+02  0.25000625625E+00 0.  0.
    1000022    2    1    0    0    0  0.40334521032E+02 -0.46683421557E+02 -0.18605664462E+00  0.62500001217E+02  0.10000004994E+02 0.  0.
    3000022    2    5    5    0    0  0.35725403054E+02 -0.42248648687E+02  0.27369853211E+01  0.55396808043E+02  0.25002673382E+00 0.  0.
        -13    1    4    4    0    0 -0.21874516878E+01  0.53416063977E+01  0.24613545909E-01  0.57731563828E+01  0.10500000000E+00 0.  1.
         13    1    4    4    0    0 -0.26660485081E+01  0.63254780293E+01 -0.99509747411E-01  0.68658877166E+01  0.10500000000E+00 0. -1.
    3000001    1    5    5    0    0  0.46091179777E+01 -0.44347728699E+01 -0.29230419657E+01  0.71031931744E+01  0.10000000000E+01 0. -1.
        -13    1    6    6    0    0  0.11199402907E+02 -0.13172583621E+02  0.87139969015E+00  0.17312248472E+02  0.10500000000E+00 0.  1.
         13    1    6    6    0    0  0.24526000147E+02 -0.29076065066E+02  0.18655856309E+01  0.38084559570E+02  0.10500000000E+00 0. -1.
</event>
<event>
11    0  0.3396091E-009  0.9118800E+02  0.7816531E-02  0.1126479E+00
         25   -1    0    0    0    0  0.00000000000E+00  0.00000000000E+00  0.99999998245E-14  0.12500000000E+03  0.12500000000E+03 0.  0.
    3000001    1    3    3    0    0  0.11719871883E+02  0.21974763216E+01 -0.24802836820E+02  0.27538427940E+02  0.10000000000E+01 0. -1.
    1000022    2    1    0    0    0  0.31438973920E+02  0.13676618930E+02 -0.51291236689E+02  0.62500000058E+02  0.10000002980E+02 0.  0.
    3000022    2    3    3    0    0  0.19719102038E+02  0.11479142609E+02 -0.26488399870E+02  0.34961572118E+02  0.24999413483E+00 0.  0.
    1000022    2    1    0    0    0 -0.31438973920E+02 -0.13676618930E+02  0.51291236689E+02  0.62499999942E+02  0.10000002254E+02 0.  0.
    3000022    2    5    5    0    0 -0.24117367231E+02 -0.10182605793E+02  0.45458739816E+02  0.52458482522E+02  0.24999987490E+00 0.  0.
        -13    1    4    4    0    0  0.51943999631E+01  0.30159821979E+01 -0.69240729149E+01  0.91668833485E+01  0.10500000000E+00 0.  1.
         13    1    4    4    0    0  0.14524702074E+02  0.84631604110E+01 -0.19564326955E+02  0.25794688769E+02  0.10500000000E+00 0. -1.
    3000001    1    5    5    0    0 -0.73216066898E+01 -0.34940131377E+01  0.58324968734E+01  0.10041517420E+02  0.10000000000E+01 0. -1.
        -13    1    6    6    0    0 -0.17787709273E+02 -0.75051202840E+01  0.33588661735E+02  0.38741949535E+02  0.10500000000E+00 0.  1.
         13    1    6    6    0    0 -0.63296579572E+01 -0.26774855087E+01  0.11870078081E+02  0.13716532986E+02  0.10500000000E+00 0. -1.
</event>
<event>
11    0  0.3396091E-009  0.9118800E+02  0.7816531E-02  0.1126479E+00
         25   -1    0    0    0    0  0.00000000000E+00  0.00000000000E+00  0.99999998245E-14  0.12500000000E+03  0.12500000000E+03 0.  0.
    3000001    1    3    3    0    0 -0.14183092831E+02 -0.23014879257E+02 -0.14980956723E+01  0.27094078322E+02  0.10000000000E+01 0. -1.
    1000022    2    1    0    0    0 -0.33225036126E+02 -0.51410741839E+02  0.76995314083E+01  0.62500002524E+02  0.10000006481E+02 0.  0.
    3000022    2    3    3    0    0 -0.19041943295E+02 -0.28395862582E+02  0.91976270806E+01  0.35405924202E+02  0.25001697639E+00 0.  0.
    1000022    2    1    0    0    0  0.33225036126E+02  0.51410741839E+02 -0.76995314083E+01  0.62499997476E+02  0.99999749292E+01 0.  0.
    3000022    2    5    5    0    0  0.31273198103E+02  0.49166726853E+02 -0.92501097787E+01  0.59000059161E+02  0.25000211760E+00 0.  0.
        -13    1    4    4    0    0 -0.97653512277E+01 -0.14652767750E+02  0.46901328375E+01  0.18222899286E+02  0.10500000000E+00 0.  1.
         13    1    4    4    0    0 -0.92765920672E+01 -0.13743094832E+02  0.45074942431E+01  0.17183024917E+02  0.10500000000E+00 0. -1.
    3000001    1    5    5    0    0  0.19518380229E+01  0.22440149856E+01  0.15505783704E+01  0.34999383146E+01  0.10000000000E+01 0.  1.
        -13    1    6    6    0    0  0.18361330013E+02  0.28939101772E+02 -0.54924534389E+01  0.34710057922E+02  0.10500000000E+00 0. -1.
         13    1    6    6    0    0  0.12911868090E+02  0.20227625081E+02 -0.37576563398E+01  0.24290001239E+02  0.10500000000E+00 0.  1.
</event>
<event>
11    0  0.3396091E-009  0.9118800E+02  0.7816531E-02  0.1126479E+00
         25   -1    0    0    0    0  0.00000000000E+00  0.00000000000E+00  0.99999998245E-14  0.12500000000E+03  0.12500000000E+03 0.  0.
    3000001    1    3    3    0    0 -0.15941513050E+02 -0.10496331233E+02  0.80626550807E+01  0.20743944047E+02  0.10000000000E+01 0.  1.
    1000022    2    1    0    0    0 -0.47069440335E+02 -0.21341883667E+02  0.33693342381E+02  0.62500003512E+02  0.10000045314E+02 0.  0.
    3000022    2    3    3    0    0 -0.31127927285E+02 -0.10845552435E+02  0.25630687301E+02  0.41756059465E+02  0.25001179805E+00 0.  0.
    1000022    2    1    0    0    0  0.47069440335E+02  0.21341883667E+02 -0.33693342381E+02  0.62499996488E+02  0.10000001413E+02 0.  0.
    3000022    2    5    5    0    0  0.21222449642E+02  0.91204668930E+01 -0.20936124395E+02  0.31176258419E+02  0.24999838184E+00 0.  0.
        -13    1    4    4    0    0 -0.20286009292E+02 -0.71261188998E+01  0.16702979248E+02  0.27226903686E+02  0.10500000000E+00 0. -1.
         13    1    4    4    0    0 -0.10841917993E+02 -0.37194335348E+01  0.89277080526E+01  0.14529155779E+02  0.10500000000E+00 0.  1.
    3000001    1    5    5    0    0  0.25846990693E+02  0.12221416774E+02 -0.12757217986E+02  0.31323738069E+02  0.10000000000E+01 0. -1.
        -13    1    6    6    0    0  0.13252593906E+02  0.56526893504E+01 -0.12996296604E+02  0.19403579375E+02  0.10500000000E+00 0. -1.
         13    1    6    6    0    0  0.79698557360E+01  0.34677775426E+01 -0.79398277907E+01  0.11772679044E+02  0.10500000000E+00 0.  1.
</event>
<event>
11    0  0.3396091E-009  0.9118800E+02  0.7816531E-02  0.1126479E+00
         25   -1    0    0    0    0  0.00000000000E+00  0.00000000000E+00  0.99999998245E-14  0.12500000000E+03  0.12500000000E+03 0.  0.
    3000001    1    3    3    0    0  0.31594305823E+02 -0.32507200311E+02 -0.28641523288E+01  0.45432605043E+02  0.10000000000E+01 0.  1.
    1000022    2    1    0    0    0  0.41243567233E+02 -0.44867480108E+02 -0.95982971737E+01  0.62499999436E+02  0.10000000579E+02 0.  0.
    3000022    2    3    3    0    0  0.96492614105E+01 -0.12360279797E+02 -0.67341448449E+01  0.17067394393E+02  0.24996429220E+00 0.  0.
    1000022    2    1    0    0    0 -0.41243567233E+02  0.44867480108E+02  0.95982971737E+01  0.62500000564E+02  0.10000007624E+02 0.  0.
    3000022    2    5    5    0    0 -0.19829108275E+02  0.26116414351E+02  0.12314721882E+01  0.32815235451E+02  0.25004076009E+00 0.  0.
        -13    1    4    4    0    0  0.24474936981E+01 -0.31743632581E+01 -0.17035073171E+01  0.43565777482E+01  0.10500000000E+00 0.  1.
         13    1    4    4    0    0  0.72017677124E+01 -0.91859165386E+01 -0.50306375278E+01  0.12710816645E+02  0.10500000000E+00 0. -1.
    3000001    1    5    5    0    0 -0.21414458958E+02  0.18751065756E+02  0.83668249854E+01  0.29684765113E+02  0.10000000000E+01 0.  1.
        -13    1    6    6    0    0 -0.60619972174E+01  0.79161418971E+01  0.35172445476E+00  0.99773667814E+01  0.10500000000E+00 0. -1.
         13    1    6    6    0    0 -0.13767111058E+02  0.18200272454E+02  0.87974773349E+00  0.22837868670E+02  0.10500000000E+00 0.  1.
</event>
<event>
11    0  0.3396091E-009  0.9118800E+02  0.7816531E-02  0.1126479E+00
         25   -1    0    0    0    0  0.00000000000E+00  0.00000000000E+00  0.99999998245E-14  0.12500000000E+03  0.12500000000E+03 0.  0.
    3000001    1    3    3    0    0  0.50838310315E+01  0.48412530164E+02  0.70244918018E+01  0.49193108256E+02  0.10000000000E+01 0. -1.
    1000022    2    1    0    0    0  0.20799402751E+01  0.61347263236E+02  0.61997577892E+01  0.62499999877E+02  0.10000006489E+02 0.  0.
    3000022    2    3    3    0    0 -0.30038907564E+01  0.12934733073E+02 -0.82473401262E+00  0.13306891621E+02  0.24999814893E+00 0.  0.
    1000022    2    1    0    0    0 -0.20799402751E+01 -0.61347263236E+02 -0.61997577892E+01  0.62500000123E+02  0.10000008033E+02 0.  0.
    3000022    2    5    5    0    0  0.15278451274E+01 -0.17576461890E+02  0.21755820190E+01  0.17778132062E+02  0.24999836995E+00 0.  0.
        -13    1    4    4    0    0 -0.22713382032E+01  0.98549599906E+01 -0.63432737664E+00  0.10133736225E+02  0.10500000000E+00 0.  1.
         13    1    4    4    0    0 -0.73255255316E+00  0.30797730821E+01 -0.19040663598E+00  0.31731553960E+01  0.10500000000E+00 0. -1.
    3000001    1    5    5    0    0 -0.36077854026E+01 -0.43770801346E+02 -0.83753398083E+01  0.44721868061E+02  0.10000000000E+01 0.  1.
        -13    1    6    6    0    0  0.11503792219E+01 -0.13076025873E+02  0.15920665273E+01  0.13223143568E+02  0.10500000000E+00 0.  1.
         13    1    6    6    0    0  0.37746590554E+00 -0.45004360177E+01  0.58351549176E+00  0.45549884948E+01  0.10500000000E+00 0. -1.
</event>
<event>
11    0  0.3396091E-009  0.9118800E+02  0.7816531E-02  0.1126479E+00
         25   -1    0    0    0    0  0.00000000000E+00  0.00000000000E+00  0.99999998245E-14  0.12500000000E+03  0.12500000000E+03 0.  0.
    3000001    1    3    3    0    0 -0.45381172433E+01 -0.10133859671E+02 -0.24273286069E+02  0.26711084526E+02  0.10000000000E+01 0.  1.
    1000022    2    1    0    0    0 -0.49886118186E+00 -0.28587667990E+02 -0.54669423240E+02  0.62499996912E+02  0.10000007650E+02 0.  0.
    3000022    2    3    3    0    0  0.40392560614E+01 -0.18453808319E+02 -0.30396137171E+02  0.35788912386E+02  0.24992772313E+00 0.  0.
    1000022    2    1    0    0    0  0.49886118186E+00  0.28587667990E+02  0.54669423240E+02  0.62500003088E+02  0.10000046251E+02 0.  0.
    3000022    2    5    5    0    0  0.25113505083E+01  0.30013494475E+01  0.12731804380E+02  0.13322023407E+02  0.24997001673E+00 0.  0.
        -13    1    4    4    0    0  0.11232431216E+01 -0.49760763879E+01 -0.81837533783E+01  0.96440580507E+01  0.10500000000E+00 0.  1.
         13    1    4    4    0    0  0.29160129398E+01 -0.13477731931E+02 -0.22212383792E+02  0.26144854335E+02  0.10500000000E+00 0. -1.
    3000001    1    5    5    0    0 -0.20124893265E+01  0.25586318543E+02  0.41937618861E+02  0.49177979681E+02  0.10000000000E+01 0.  1.
        -13    1    6    6    0    0  0.59501280183E+00  0.70650969108E+00  0.30725677978E+01  0.32101236815E+01  0.10500000000E+00 0.  1.
         13    1    6    6    0    0  0.19163377065E+01  0.22948397564E+01  0.96592365817E+01  0.10111899725E+02  0.10500000000E+00 0. -1.
</event>
<event>
11    0  0.3396091E-009  0.9118800E+02  0.7816531E-02  0.1126479E+00
         25   -1    0    0    0    0  0.00000000000E+00  0.00000000000E+00  0.99999998245E-14  0.12500000000E+03  0.12500000000E+03 0.  0.
    3000001    1    3    3    0    0 -0.41998444170E+02 -0.29868567300E+02  0.40590157037E+01  0.51705669261E+02  0.10000000000E+01 0. -1.
    1000022    2    1    0    0    0 -0.49530852948E+02 -0.35603160196E+02  0.92390234459E+01  0.62500005420E+02  0.10000035677E+02 0.  0.
    3000022    2    3    3    0    0 -0.75324087783E+01 -0.57345928953E+01  0.51800077423E+01  0.10794336159E+02  0.24995042773E+00 0.  0.
    1000022    2    1    0    0    0  0.49530852948E+02  0.35603160196E+02 -0.92390234459E+01  0.62499994580E+02  0.99999679292E+01 0.  0.
    3000022    2    5    5    0    0  0.15858566313E+02  0.61718755144E+01 -0.13049283742E+01  0.17069021997E+02  0.25000200636E+00 0.  0.
        -13    1    4    4    0    0 -0.41118743035E+01 -0.31481315816E+01  0.29077844045E+01  0.59400738957E+01  0.10500000000E+00 0. -1.
         13    1    4    4    0    0 -0.34205344747E+01 -0.25864613137E+01  0.22722233378E+01  0.48542622629E+01  0.10500000000E+00 0.  1.
    3000001    1    5    5    0    0  0.33672286635E+02  0.29431284681E+02 -0.79340950718E+01  0.45430972583E+02  0.10000000000E+01 0.  1.
        -13    1    6    6    0    0  0.95369144390E+01  0.36455337188E+01 -0.76923294424E+00  0.10239404154E+02  0.10500000000E+00 0.  1.
         13    1    6    6    0    0  0.63216518744E+01  0.25263417956E+01 -0.53569542994E+00  0.68296178431E+01  0.10500000000E+00 0. -1.
</event>
<event>
11    0  0.3396091E-009  0.9118800E+02  0.7816531E-02  0.1126479E+00
         25   -1    0    0    0    0  0.00000000000E+00  0.00000000000E+00  0.99999998245E-14  0.12500000000E+03  0.12500000000E+03 0.  0.
    3000001    1    3    3    0    0  0.87913749352E+01 -0.42789412738E+02  0.39495041882E+02  0.58898900235E+02  0.10000000000E+01 0. -1.
    1000022    2    1    0    0    0  0.96864036605E+01 -0.46265182537E+02  0.39647905952E+02  0.62500000163E+02  0.10000002150E+02 0.  0.
    3000022    2    3    3    0    0  0.89502872524E+00 -0.34757697988E+01  0.15286406984E+00  0.36010999276E+01  0.25000230259E+00 0.  0.
    1000022    2    1    0    0    0 -0.96864036605E+01  0.46265182537E+02 -0.39647905952E+02  0.62499999837E+02  0.10000000113E+02 0.  0.
    3000022    2    5    5    0    0 -0.24629106994E+00  0.30650073613E+01 -0.66033645358E+01  0.72884740631E+01  0.25000312145E+00 0.  0.
        -13    1    4    4    0    0  0.22196688413E+00 -0.92995174237E+00  0.71196354155E-01  0.96445500757E+00  0.10500000000E+00 0. -1.
         13    1    4    4    0    0  0.67306184111E+00 -0.25458180565E+01  0.81667715684E-01  0.26366449200E+01  0.10500000000E+00 0.  1.
    3000001    1    5    5    0    0 -0.94401125905E+01  0.43200175175E+02 -0.33044541416E+02  0.55211525774E+02  0.10000000000E+01 0. -1.
        -13    1    6    6    0    0 -0.96043473254E-01  0.11278997038E+01 -0.25762390649E+01  0.28159216626E+01  0.10500000000E+00 0.  1.
         13    1    6    6    0    0 -0.15024759669E+00  0.19371076575E+01 -0.40271254709E+01  0.44725524005E+01  0.10500000000E+00 0. -1.
</event>
<event>
11    0  0.3396091E-009  0.9118800E+02  0.7816531E-02  0.1126479E+00
         25   -1    0    0    0    0  0.00000000000E+00  0.00000000000E+00  0.99999998245E-14  0.12500000000E+03  0.12500000000E+03 0.  0.
    3000001    1    3    3    0    0 -0.12007031898E+01  0.10487139418E+02 -0.10922941276E+02  0.15222760178E+02  0.10000000000E+01 0.  1.
    1000022    2    1    0    0    0 -0.51813182614E+00  0.29309396560E+02 -0.54285732862E+02  0.62500000722E+02  0.10000005530E+02 0.  0.
    3000022    2    3    3    0    0  0.68257136366E+00  0.18822257142E+02 -0.43362791586E+02  0.47277240544E+02  0.25002349453E+00 0.  0.
    1000022    2    1    0    0    0  0.51813182614E+00 -0.29309396560E+02  0.54285732862E+02  0.62499999278E+02  0.99999965007E+01 0.  0.
    3000022    2    5    5    0    0  0.13229996612E+01 -0.14555218255E+02  0.17234733014E+02  0.22598743916E+02  0.24999590383E+00 0.  0.
        -13    1    4    4    0    0  0.21684855905E+00  0.76299257519E+01 -0.17627726035E+02  0.19209647067E+02  0.10500000000E+00 0. -1.
         13    1    4    4    0    0  0.46572280461E+00  0.11192331390E+02 -0.25735065551E+02  0.28067593477E+02  0.10500000000E+00 0.  1.
    3000001    1    5    5    0    0 -0.80486783506E+00 -0.14754178304E+02  0.37050999848E+02  0.39901255362E+02  0.10000000000E+01 0.  1.
        -13    1    6    6    0    0  0.56028582908E+00 -0.68875111070E+01  0.81737308728E+01  0.10703860558E+02  0.10500000000E+00 0. -1.
         13    1    6    6    0    0  0.76271383212E+00 -0.76677071484E+01  0.90610021412E+01  0.11894883358E+02  0.10500000000E+00 0.  1.
</event>
<event>
11    0  0.3396091E-009  0.9118800E+02  0.7816531E-02  0.1126479E+00
         25   -1    0    0    0    0  0.00000000000E+00  0.00000000000E+00  0.99999998245E-14  0.12500000000E+03  0.12500000000E+03 0.  0.
    3000001    1    3    3    0    0  0.48605083522E+02  0.29527367834E+02  0.53512738578E+01  0.57131039963E+02  0.10000000000E+01 0. -1.
    1000022    2    1    0    0    0  0.53884788198E+02  0.29716500937E+02  0.44281439048E+01  0.62499999141E+02  0.10000030352E+02 0.  0.
    3000022    2    3    3    0    0  0.52797046764E+01  0.18913310336E+00 -0.92312995296E+00  0.53689591777E+01  0.25000188198E+00 0.  0.
    1000022    2    1    0    0    0 -0.53884788198E+02 -0.29716500937E+02 -0.44281439048E+01  0.62500000859E+02  0.10000041095E+02 0.  0.
    3000022    2    5    5    0    0 -0.11997845927E+02 -0.70921031085E+01 -0.51971161779E+01  0.14876785635E+02  0.25000176888E+00 0.  0.
        -13    1    4    4    0    0  0.27420136299E+01  0.13250510316E+00 -0.42038613523E+00  0.27791987787E+01  0.10500000000E+00 0.  1.
         13    1    4    4    0    0  0.25376910465E+01  0.56628000203E-01 -0.50274381773E+00  0.25897603990E+01  0.10500000000E+00 0. -1.
    3000001    1    5    5    0    0 -0.41886942271E+02 -0.22624397829E+02  0.76897227315E+00  0.47623215224E+02  0.10000000000E+01 0. -1.
        -13    1    6    6    0    0 -0.61022611840E+01 -0.35466797655E+01 -0.26782249618E+01  0.75498637645E+01  0.10500000000E+00 0. -1.
         13    1    6    6    0    0 -0.58955847431E+01 -0.35454233430E+01 -0.25188912161E+01  0.73269218709E+01  0.10500000000E+00 0.  1.
</event>
<event>
11    0  0.3396091E-009  0.9118800E+02  0.7816531E-02  0.1126479E+00
         25   -1    0    0    0    0  0.00000000000E+00  0.00000000000E+00  0.99999998245E-14  0.12500000000E+03  0.12500000000E+03 0.  0.
    3000001    1    3    3    0    0 -0.15784275326E+01 -0.22511921071E+02  0.88878750652E+01  0.24274932481E+02  0.10000000000E+01 0. -1.
    1000022    2    1    0    0    0  0.19989367644E+01 -0.60408635318E+02  0.12371378912E+02  0.62499999958E+02  0.10000000466E+02 0.  0.
    3000022    2    3    3    0    0  0.35773642970E+01 -0.37896714247E+02  0.34835038463E+01  0.38225067476E+02  0.24999696945E+00 0.  0.
    1000022    2    1    0    0    0 -0.19989367644E+01  0.60408635318E+02 -0.12371378912E+02  0.62500000042E+02  0.10000000997E+02 0.  0.
    3000022    2    5    5    0    0  0.23756809417E+01  0.20475645046E+02 -0.58506547813E+00  0.20622820380E+02  0.25003762244E+00 0.  0.
        -13    1    4    4    0    0  0.19240161392E+01 -0.20978179555E+02  0.19638001644E+01  0.21157821051E+02  0.10500000000E+00 0. -1.
         13    1    4    4    0    0  0.16533481578E+01 -0.16918534692E+02  0.15197036820E+01  0.17067246425E+02  0.10500000000E+00 0.  1.
    3000001    1    5    5    0    0 -0.43746177061E+01  0.39932990272E+02 -0.11786313433E+02  0.41877179663E+02  0.10000000000E+01 0. -1.
        -13    1    6    6    0    0  0.12010410801E+01  0.10801156155E+02 -0.26515081420E+00  0.10871467422E+02  0.10500000000E+00 0. -1.
         13    1    6    6    0    0  0.11746398616E+01  0.96744888916E+01 -0.31991466393E+00  0.97513529580E+01  0.10500000000E+00 0.  1.
</event>
<event>
11    0  0.3396091E-009  0.9118800E+02  0.7816531E-02  0.1126479E+00
         25   -1    0    0    0    0  0.00000000000E+00  0.00000000000E+00  0.99999998245E-14  0.12500000000E+03  0.12500000000E+03 0.  0.
    3000001    1    3    3    0    0  0.65675410708E+01  0.32353939511E+00  0.64742593709E+01  0.92818806208E+01  0.10000000000E+01 0. -1.
    1000022    2    1    0    0    0  0.56570654042E+02  0.45343964300E+01  0.24196083827E+02  0.62499999569E+02  0.99999911931E+01 0.  0.
    3000022    2    3    3    0    0  0.50003112971E+02  0.42108570349E+01  0.17721824456E+02  0.53218118948E+02  0.24999715153E+00 0.  0.
    1000022    2    1    0    0    0 -0.56570654042E+02 -0.45343964300E+01 -0.24196083827E+02  0.62500000431E+02  0.99999965798E+01 0.  0.
    3000022    2    5    5    0    0 -0.41843652349E+01  0.17695729926E+01 -0.27610146133E+00  0.45584018870E+01  0.24998950348E+00 0.  0.
        -13    1    4    4    0    0  0.22907355785E+02  0.18832491188E+01  0.81693634655E+01  0.24393505298E+02  0.10500000000E+00 0.  1.
         13    1    4    4    0    0  0.27095757186E+02  0.23276079161E+01  0.95524609906E+01  0.28824613650E+02  0.10500000000E+00 0. -1.
    3000001    1    5    5    0    0 -0.52386288807E+02 -0.63039694226E+01 -0.23919982366E+02  0.57941598544E+02  0.10000000000E+01 0.  1.
        -13    1    6    6    0    0 -0.22073668046E+01  0.93834281679E+00 -0.78312409636E-01  0.24021060104E+01  0.10500000000E+00 0.  1.
         13    1    6    6    0    0 -0.19769984303E+01  0.83123017579E+00 -0.19778905169E+00  0.21562958766E+01  0.10500000000E+00 0. -1.
</event>
<event>
11    0  0.3396091E-009  0.9118800E+02  0.7816531E-02  0.1126479E+00
         25   -1    0    0    0    0  0.00000000000E+00  0.00000000000E+00  0.99999998245E-14  0.12500000000E+03  0.12500000000E+03 0.  0.
    3000001    1    3    3    0    0 -0.11572868328E+01  0.36593509695E+01  0.11332968280E+01  0.41248665472E+01  0.10000000000E+01 0. -1.
    1000022    2    1    0    0    0 -0.11092051683E+02  0.38663575160E+02  0.46779738531E+02  0.62499993100E+02  0.99999772884E+01 0.  0.
    3000022    2    3    3    0    0 -0.99347648501E+01  0.35004224190E+02  0.45646441703E+02  0.58375126552E+02  0.24999219681E+00 0.  0.
    1000022    2    1    0    0    0  0.11092051683E+02 -0.38663575160E+02 -0.46779738531E+02  0.62500006900E+02  0.10000063544E+02 0.  0.
    3000022    2    5    5    0    0 -0.60123958668E+00 -0.11771459419E+02 -0.10067274895E+02  0.15502943844E+02  0.24999625172E+00 0.  0.
        -13    1    4    4    0    0 -0.47042933054E+01  0.16461382370E+02  0.21573190874E+02  0.27541261309E+02  0.10500000000E+00 0.  1.
         13    1    4    4    0    0 -0.52304715448E+01  0.18542841821E+02  0.24073250829E+02  0.30833865243E+02  0.10500000000E+00 0. -1.
    3000001    1    5    5    0    0  0.11693291270E+02 -0.26892115741E+02 -0.36712463636E+02  0.46997063057E+02  0.10000000000E+01 0. -1.
        -13    1    6    6    0    0 -0.37922613866E+00 -0.69820288423E+01 -0.60500972703E+01  0.92470125554E+01  0.10500000000E+00 0.  1.
         13    1    6    6    0    0 -0.22201344803E+00 -0.47894305763E+01 -0.40171776244E+01  0.62559312882E+01  0.10500000000E+00 0. -1.
</event>
<event>
11    0  0.3396091E-009  0.9118800E+02  0.7816531E-02  0.1126479E+00
         25   -1    0    0    0    0  0.00000000000E+00  0.00000000000E+00  0.99999998245E-14  0.12500000000E+03  0.12500000000E+03 0.  0.
    3000001    1    3    3    0    0 -0.12875715632E+01 -0.86856815014E+01 -0.66781225599E+01  0.11076832787E+02  0.10000000000E+01 0. -1.
    1000022    2    1    0    0    0 -0.52682799085E+00 -0.34488542692E+02 -0.51151859032E+02  0.62500000078E+02  0.10000010130E+02 0.  0.
    3000022    2    3    3    0    0  0.76074357238E+00 -0.25802861190E+02 -0.44473736472E+02  0.51423167291E+02  0.25004405203E+00 0.  0.
    1000022    2    1    0    0    0  0.52682799085E+00  0.34488542692E+02  0.51151859032E+02  0.62499999922E+02  0.10000009154E+02 0.  0.
    3000022    2    5    5    0    0 -0.25178477755E+01  0.29391172262E+01  0.32897455916E+01  0.50855574818E+01  0.25000270697E+00 0.  0.
        -13    1    4    4    0    0  0.30075269240E+00 -0.10937025410E+02 -0.18972586187E+02  0.21901575940E+02  0.10500000000E+00 0.  1.
         13    1    4    4    0    0  0.45999087999E+00 -0.14865835780E+02 -0.25501150285E+02  0.29521591351E+02  0.10500000000E+00 0. -1.
    3000001    1    5    5    0    0  0.30446757664E+01  0.31549425466E+02  0.47862113440E+02  0.57414442440E+02  0.10000000000E+01 0.  1.
        -13    1    6    6    0    0 -0.17514752754E+01  0.20633347402E+01  0.22395283343E+01  0.35144740789E+01  0.10500000000E+00 0. -1.
         13    1    6    6    0    0 -0.76637250007E+00  0.87578248595E+00  0.10502172573E+01  0.15710834029E+01  0.10500000000E+00 0.  1.
</event>
<event>
11    0  0.3396091E-009  0.9118800E+02  0.7816531E-02  0.1126479E+00
         25   -1    0    0    0    0  0.00000000000E+00  0.00000000000E+00  0.99999998245E-14  0.12500000000E+03  0.12500000000E+03 0.  0.
    3000001    1    3    3    0    0  0.35833525565E+02  0.29984393833E+02  0.17221607381E+02  0.49806517532E+02  0.10000000000E+01 0.  1.
    1000022    2    1    0    0    0  0.40846492238E+02  0.40023902094E+02  0.23149547874E+02  0.62500001734E+02  0.99999991512E+01 0.  0.
    3000022    2    3    3    0    0  0.50129666731E+01  0.10039508261E+02  0.59279404934E+01  0.12693484202E+02  0.25000338974E+00 0.  0.
    1000022    2    1    0    0    0 -0.40846492238E+02 -0.40023902094E+02 -0.23149547874E+02  0.62499998266E+02  0.99999774724E+01 0.  0.
    3000022    2    5    5    0    0 -0.13995190963E+02 -0.15485977159E+02 -0.13481126303E+02  0.24849227809E+02  0.24999533394E+00 0.  0.
        -13    1    4    4    0    0  0.25459019336E+01  0.50413520332E+01  0.29124538908E+01  0.63553331655E+01  0.10500000000E+00 0. -1.
         13    1    4    4    0    0  0.24670647395E+01  0.49981562281E+01  0.30154866026E+01  0.63381510364E+01  0.10500000000E+00 0.  1.
    3000001    1    5    5    0    0 -0.26851301276E+02 -0.24537924935E+02 -0.96684215718E+01  0.37650770457E+02  0.10000000000E+01 0. -1.
        -13    1    6    6    0    0 -0.73335358651E+01 -0.81679480104E+01 -0.71578353869E+01  0.13105027868E+02  0.10500000000E+00 0.  1.
         13    1    6    6    0    0 -0.66616550975E+01 -0.73180291489E+01 -0.63232909156E+01  0.11744199941E+02  0.10500000000E+00 0. -1.
</event>
<event>
11    0  0.3396091E-009  0.9118800E+02  0.7816531E-02  0.1126479E+00
         25   -1    0    0    0    0  0.00000000000E+00  0.00000000000E+00  0.99999998245E-14  0.12500000000E+03  0.12500000000E+03 0.  0.
    3000001    1    3    3    0    0 -0.36228381002E+01 -0.35617329341E+02  0.41577025938E+02  0.54875934535E+02  0.10000000000E+01 0. -1.
    1000022    2    1    0    0    0 -0.73347416305E+01 -0.38733226300E+02  0.47457232481E+02  0.62499999450E+02  0.99999881084E+01 0.  0.
    3000022    2    3    3    0    0 -0.37119035303E+01 -0.31158969588E+01  0.58802065433E+01  0.76240649153E+01  0.24999032715E+00 0.  0.
    1000022    2    1    0    0    0  0.73347416305E+01  0.38733226300E+02 -0.47457232481E+02  0.62500000550E+02  0.99999949785E+01 0.  0.
    3000022    2    5    5    0    0  0.24182556518E+01  0.17266924042E+02 -0.13668949297E+02  0.22156202420E+02  0.25000904928E+00 0.  0.
        -13    1    4    4    0    0 -0.15438036618E+01 -0.12828071346E+01  0.23368810708E+01  0.30823630594E+01  0.10500000000E+00 0. -1.
         13    1    4    4    0    0 -0.21680998685E+01 -0.18330898242E+01  0.35433254725E+01  0.45417018559E+01  0.10500000000E+00 0.  1.
    3000001    1    5    5    0    0  0.49164859787E+01  0.21466302258E+02 -0.33788283184E+02  0.40343798130E+02  0.10000000000E+01 0. -1.
        -13    1    6    6    0    0  0.14149123494E+01  0.96263946350E+01 -0.76338663170E+01  0.12367553945E+02  0.10500000000E+00 0.  1.
         13    1    6    6    0    0  0.10033433024E+01  0.76405294067E+01 -0.60350829801E+01  0.97886484753E+01  0.10500000000E+00 0. -1.
</event>
<event>
11    0  0.3396091E-009  0.9118800E+02  0.7816531E-02  0.1126479E+00
         25   -1    0    0    0    0  0.00000000000E+00  0.00000000000E+00  0.99999998245E-14  0.12500000000E+03  0.12500000000E+03 0.  0.
    3000001    1    3    3    0    0  0.30621373344E+02  0.23304359220E+01  0.27208890585E+02  0.41041724670E+02  0.10000000000E+01 0. -1.
    1000022    2    1    0    0    0  0.45305591133E+02  0.10535691320E+02  0.40529651555E+02  0.62500001391E+02  0.10000006957E+02 0.  0.
    3000022    2    3    3    0    0  0.14684217789E+02  0.82052553981E+01  0.13320760971E+02  0.21458276720E+02  0.24999749883E+00 0.  0.
    1000022    2    1    0    0    0 -0.45305591133E+02 -0.10535691320E+02 -0.40529651555E+02  0.62499998609E+02  0.99999895732E+01 0.  0.
    3000022    2    5    5    0    0 -0.36038942230E+02 -0.59534066218E+01 -0.35588531823E+02  0.50998573517E+02  0.24999196431E+00 0.  0.
        -13    1    4    4    0    0  0.10149309342E+02  0.57161000083E+01  0.92586482010E+01  0.14880049426E+02  0.10500000000E+00 0.  1.
         13    1    4    4    0    0  0.45349084468E+01  0.24891553898E+01  0.40621127697E+01  0.65782272938E+01  0.10500000000E+00 0. -1.
    3000001    1    5    5    0    0 -0.92666489032E+01 -0.45822846983E+01 -0.49411197326E+01  0.11501425093E+02  0.10000000000E+01 0. -1.
        -13    1    6    6    0    0 -0.25628097961E+02 -0.42138085282E+01 -0.25251427370E+02  0.36224317752E+02  0.10500000000E+00 0.  1.
         13    1    6    6    0    0 -0.10410844269E+02 -0.17395980936E+01 -0.10337104452E+02  0.14774255764E+02  0.10500000000E+00 0. -1.
</event>
<event>
11    0  0.3396091E-009  0.9118800E+02  0.7816531E-02  0.1126479E+00
         25   -1    0    0    0    0  0.00000000000E+00  0.00000000000E+00  0.99999998245E-14  0.12500000000E+03  0.12500000000E+03 0.  0.
    3000001    1    3    3    0    0 -0.79743454724E+01  0.16772128939E+02 -0.22551569453E+02  0.29231280842E+02  0.10000000000E+01 0. -1.
    1000022    2    1    0    0    0 -0.17494864173E+02  0.26434289929E+02 -0.52928332439E+02  0.62500002813E+02  0.10000001019E+02 0.  0.
    3000022    2    3    3    0    0 -0.95205187004E+01  0.96621609901E+01 -0.30376762986E+02  0.33268721971E+02  0.25000154235E+00 0.  0.
    1000022    2    1    0    0    0  0.17494864173E+02 -0.26434289929E+02  0.52928332439E+02  0.62499997187E+02  0.99999658562E+01 0.  0.
    3000022    2    5    5    0    0 -0.12274203528E+01 -0.27884816260E+01  0.45527935140E+01  0.54838507507E+01  0.24999954839E+00 0.  0.
        -13    1    4    4    0    0 -0.41781748014E+01  0.43338120543E+01 -0.13505142658E+02  0.14786445645E+02  0.10500000000E+00 0.  1.
         13    1    4    4    0    0 -0.53423438990E+01  0.53283489357E+01 -0.16871620327E+02  0.18482276326E+02  0.10500000000E+00 0. -1.
    3000001    1    5    5    0    0  0.18722284526E+02 -0.23645808303E+02  0.48375538925E+02  0.57016146436E+02  0.10000000000E+01 0.  1.
        -13    1    6    6    0    0 -0.51478148994E+00 -0.10494684152E+01  0.18163681449E+01  0.21625453000E+01  0.10500000000E+00 0.  1.
         13    1    6    6    0    0 -0.71263886283E+00 -0.17390132108E+01  0.27364253691E+01  0.33213054507E+01  0.10500000000E+00 0. -1.
</event>
<event>
11    0  0.3396091E-009  0.9118800E+02  0.7816531E-02  0.1126479E+00
         25   -1    0    0    0    0  0.00000000000E+00  0.00000000000E+00  0.99999998245E-14  0.12500000000E+03  0.12500000000E+03 0.  0.
    3000001    1    3    3    0    0 -0.83824606641E+01 -0.35412610350E+02 -0.16146586460E+02  0.39825003112E+02  0.10000000000E+01 0.  1.
    1000022    2    1    0    0    0 -0.18792378912E+02 -0.55090649091E+02 -0.20447907250E+02  0.62499999460E+02  0.99999949588E+01 0.  0.
    3000022    2    3    3    0    0 -0.10409918248E+02 -0.19678038741E+02 -0.43013207903E+01  0.22674996348E+02  0.24998443932E+00 0.  0.
    1000022    2    1    0    0    0  0.18792378912E+02  0.55090649091E+02  0.20447907250E+02  0.62500000540E+02  0.10000001712E+02 0.  0.
    3000022    2    5    5    0    0  0.17423816037E+02  0.48035970395E+02  0.14495259351E+02  0.53115147166E+02  0.24999548439E+00 0.  0.
        -13    1    4    4    0    0 -0.49188003368E+01 -0.91847656275E+01 -0.19707701555E+01  0.10604219745E+02  0.10500000000E+00 0. -1.
         13    1    4    4    0    0 -0.54911179109E+01 -0.10493273113E+02 -0.23305506348E+01  0.12070776603E+02  0.10500000000E+00 0.  1.
    3000001    1    5    5    0    0  0.13685628747E+01  0.70546786952E+01  0.59526478995E+01  0.93848533740E+01  0.10000000000E+01 0. -1.
        -13    1    6    6    0    0  0.12859640171E+02  0.35461331762E+02  0.10666774854E+02  0.39200350846E+02  0.10500000000E+00 0.  1.
         13    1    6    6    0    0  0.45641758663E+01  0.12574638633E+02  0.38284844970E+01  0.13914796320E+02  0.10500000000E+00 0. -1.
</event>
<event>
11    0  0.3396091E-009  0.9118800E+02  0.7816531E-02  0.1126479E+00
         25   -1    0    0    0    0  0.00000000000E+00  0.00000000000E+00  0.99999998245E-14  0.12500000000E+03  0.12500000000E+03 0.  0.
    3000001    1    3    3    0    0  0.64385493649E+01  0.23334495190E+01  0.31005083057E+02  0.31768145680E+02  0.10000000000E+01 0. -1.
    1000022    2    1    0    0    0  0.12387461768E+02  0.14062265701E+02  0.58779705072E+02  0.62499999071E+02  0.99999814951E+01 0.  0.
    3000022    2    3    3    0    0  0.59489124033E+01  0.11728816182E+02  0.27774622015E+02  0.30731853391E+02  0.24999398142E+00 0.  0.
    1000022    2    1    0    0    0 -0.12387461768E+02 -0.14062265701E+02 -0.58779705072E+02  0.62500000929E+02  0.99999931048E+01 0.  0.
    3000022    2    5    5    0    0 -0.96242036369E+01 -0.79720343078E+01 -0.49272324477E+02  0.50833090469E+02  0.25000108645E+00 0.  0.
        -13    1    4    4    0    0  0.18607028495E+01  0.35689054173E+01  0.85360616116E+01  0.94379380061E+01  0.10500000000E+00 0. -1.
         13    1    4    4    0    0  0.40882095539E+01  0.81599107646E+01  0.19238560403E+02  0.21293915385E+02  0.10500000000E+00 0.  1.
    3000001    1    5    5    0    0 -0.27632581314E+01 -0.60902313931E+01 -0.95073805942E+01  0.11666910460E+02  0.10000000000E+01 0. -1.
        -13    1    6    6    0    0 -0.28311213461E+01 -0.23026650304E+01 -0.14508715938E+02  0.14960995204E+02  0.10500000000E+00 0. -1.
         13    1    6    6    0    0 -0.67930822908E+01 -0.56693692774E+01 -0.34763608539E+02  0.35872095265E+02  0.10500000000E+00 0.  1.
</event>
<event>
11    0  0.3396091E-009  0.9118800E+02  0.7816531E-02  0.1126479E+00
         25   -1    0    0    0    0  0.00000000000E+00  0.00000000000E+00  0.99999998245E-14  0.12500000000E+03  0.12500000000E+03 0.  0.
    3000001    1    3    3    0    0  0.67917164382E+01 -0.14491040105E+02  0.29815745704E+02  0.33854044771E+02  0.10000000000E+01 0. -1.
    1000022    2    1    0    0    0  0.54134082611E+01 -0.31851031929E+02  0.52559078693E+02  0.62499999943E+02  0.10000000791E+02 0.  0.
    3000022    2    3    3    0    0 -0.13783081771E+01 -0.17359991824E+02  0.22743332990E+02  0.28645955171E+02  0.25000532232E+00 0.  0.
    1000022    2    1    0    0    0 -0.54134082611E+01  0.31851031929E+02 -0.52559078693E+02  0.62500000057E+02  0.10000001504E+02 0.  0.
    3000022    2    5    5    0    0 -0.78090563272E+01  0.18064807984E+02 -0.28180982844E+02  0.34373666176E+02  0.24996826636E+00 0.  0.
        -13    1    4    4    0    0 -0.80947612822E+00 -0.10068608717E+02  0.13296865725E+02  0.16698796250E+02  0.10500000000E+00 0. -1.
         13    1    4    4    0    0 -0.56883204893E+00 -0.72913831071E+01  0.94464672647E+01  0.11947158922E+02  0.10500000000E+00 0.  1.
    3000001    1    5    5    0    0  0.23956480661E+01  0.13786223945E+02 -0.24378095850E+02  0.28126333881E+02  0.10000000000E+01 0. -1.
        -13    1    6    6    0    0 -0.58103108234E+01  0.13371749138E+02 -0.20850091612E+02  0.25442105497E+02  0.10500000000E+00 0.  1.
         13    1    6    6    0    0 -0.19987455038E+01  0.46930588464E+01 -0.73308912316E+01  0.89315606797E+01  0.10500000000E+00 0. -1.
</event>
<event>
11    0  0.3396091E-009  0.9118800E+02  0.7816531E-02  0.1126479E+00
         25   -1    0    0    0    0  0.00000000000E+00  0.00000000000E+00  0.99999998245E-14  0.12500000000E+03  0.12500000000E+03 0.  0.
    3000001    1    3    3    0    0 -0.54827482855E+01 -0.52466871280E+01 -0.67586132616E+01  0.10211126667E+02  0.10000000000E+01 0.  1.
    1000022    2    1    0    0    0 -0.17566219415E+02 -0.24077946127E+02 -0.54017870183E+02  0.62500001689E+02  0.10000017887E+02 0.  0.
    3000022    2    3    3    0    0 -0.12083471129E+02 -0.18831258999E+02 -0.47259256922E+02  0.52288875022E+02  0.24999255488E+00 0.  0.
    1000022    2    1    0    0    0  0.17566219415E+02  0.24077946127E+02  0.54017870183E+02  0.62499998311E+02  0.99999967784E+01 0.  0.
    3000022    2    5    5    0    0  0.26799370823E+01 -0.44715381725E+00  0.49027249605E+01  0.56108128786E+01  0.24999963768E+00 0.  0.
        -13    1    4    4    0    0 -0.67257812540E+01 -0.10383560681E+02 -0.26036296973E+02  0.28826277091E+02  0.10500000000E+00 0. -1.
         13    1    4    4    0    0 -0.53576898753E+01 -0.84476983180E+01 -0.21222959949E+02  0.23462597931E+02  0.10500000000E+00 0.  1.
    3000001    1    5    5    0    0  0.14886282332E+02  0.24525099944E+02  0.49115145223E+02  0.56889185433E+02  0.10000000000E+01 0.  1.
        -13    1    6    6    0    0  0.11117875915E+01 -0.19565037306E+00  0.21713977151E+01  0.24495599103E+01  0.10500000000E+00 0.  1.
         13    1    6    6    0    0  0.15681494908E+01 -0.25150344420E+00  0.27313272455E+01  0.31612529683E+01  0.10500000000E+00 0. -1.
</event>
<event>
11    0  0.3396091E-009  0.9118800E+02  0.7816531E-02  0.1126479E+00
         25   -1    0    0    0    0  0.00000000000E+00  0.00000000000E+00  0.99999998245E-14  0.12500000000E+03  0.12500000000E+03 0.  0.
    3000001    1    3    3    0    0  0.65164470810E+01  0.40501983728E+01 -0.47254635154E+01  0.90663220135E+01  0.10000000000E+01 0.  1.
    1000022    2    1    0    0    0  0.55785187843E+02  0.23269944772E+02 -0.12360117167E+02  0.62499999639E+02  0.99999973101E+01 0.  0.
    3000022    2    3    3    0    0  0.49268740762E+02  0.19219746399E+02 -0.76346536515E+01  0.53433677626E+02  0.25000068354E+00 0.  0.
    1000022    2    1    0    0    0 -0.55785187843E+02 -0.23269944772E+02  0.12360117167E+02  0.62500000361E+02  0.10000001817E+02 0.  0.
    3000022    2    5    5    0    0 -0.48486017910E+02 -0.16529302662E+02  0.11299762162E+02  0.52458163352E+02  0.24999625122E+00 0.  0.
        -13    1    4    4    0    0  0.22487032851E+02  0.88294294879E+01 -0.35285099178E+01  0.24414890513E+02  0.10500000000E+00 0.  1.
         13    1    4    4    0    0  0.26781707911E+02  0.10390316911E+02 -0.41061437337E+01  0.29018787113E+02  0.10500000000E+00 0. -1.
    3000001    1    5    5    0    0 -0.72991699331E+01 -0.67406421103E+01  0.10603550052E+01  0.10041837009E+02  0.10000000000E+01 0. -1.
        -13    1    6    6    0    0 -0.17398812721E+02 -0.59640978619E+01  0.40070210805E+01  0.18824356306E+02  0.10500000000E+00 0. -1.
         13    1    6    6    0    0 -0.31087205189E+02 -0.10565204800E+02  0.72927410813E+01  0.33633807046E+02  0.10500000000E+00 0.  1.
</event>
<event>
11    0  0.3396091E-009  0.9118800E+02  0.7816531E-02  0.1126479E+00
         25   -1    0    0    0    0  0.00000000000E+00  0.00000000000E+00  0.99999998245E-14  0.12500000000E+03  0.12500000000E+03 0.  0.
    3000001    1    3    3    0    0  0.11859705183E+02  0.22411409151E+02 -0.13895396687E+02  0.28931054531E+02  0.10000000000E+01 0.  1.
    1000022    2    1    0    0    0  0.16141213921E+02  0.52693814371E+02 -0.27732168595E+02  0.62500000596E+02  0.10000001984E+02 0.  0.
    3000022    2    3    3    0    0  0.42815087373E+01  0.30282405220E+02 -0.13836771908E+02  0.33568946065E+02  0.25000019157E+00 0.  0.
    1000022    2    1    0    0    0 -0.16141213921E+02 -0.52693814371E+02  0.27732168595E+02  0.62499999404E+02  0.99999945381E+01 0.  0.
    3000022    2    5    5    0    0 -0.27295088472E+01 -0.11505162835E+02  0.10683051221E+02  0.15937662140E+02  0.25000134827E+00 0.  0.
        -13    1    4    4    0    0  0.23285119448E+01  0.16891088933E+02 -0.76811074080E+01  0.18701371320E+02  0.10500000000E+00 0. -1.
         13    1    4    4    0    0  0.19529967926E+01  0.13391316287E+02 -0.61556644998E+01  0.14867574745E+02  0.10500000000E+00 0.  1.
    3000001    1    5    5    0    0 -0.13411705073E+02 -0.41188651536E+02  0.17049117374E+02  0.46562337265E+02  0.10000000000E+01 0.  1.
        -13    1    6    6    0    0 -0.62185555572E+00 -0.26379254147E+01  0.24526207007E+01  0.36567373610E+01  0.10500000000E+00 0.  1.
         13    1    6    6    0    0 -0.21076532914E+01 -0.88672374205E+01  0.82304305206E+01  0.12280924779E+02  0.10500000000E+00 0. -1.
</event>
<event>
11    0  0.3396091E-009  0.9118800E+02  0.7816531E-02  0.1126479E+00
         25   -1    0    0    0    0  0.00000000000E+00  0.00000000000E+00  0.99999998245E-14  0.12500000000E+03  0.12500000000E+03 0.  0.
    3000001    1    3    3    0    0  0.11967759934E+02 -0.41466207167E+02  0.14517522692E+02  0.45545933735E+02  0.10000000000E+01 0.  1.
    1000022    2    1    0    0    0  0.16047818607E+02 -0.57910864600E+02  0.13966002632E+02  0.62500000292E+02  0.10000004315E+02 0.  0.
    3000022    2    3    3    0    0  0.40800586727E+01 -0.16444657432E+02 -0.55152005996E+00  0.16954066557E+02  0.25012319749E+00 0.  0.
    1000022    2    1    0    0    0 -0.16047818607E+02  0.57910864600E+02 -0.13966002632E+02  0.62499999708E+02  0.10000000663E+02 0.  0.
    3000022    2    5    5    0    0  0.13468961030E+01  0.56686093771E+01 -0.90951297296E+00  0.59022855069E+01  0.24999794849E+00 0.  0.
        -13    1    4    4    0    0  0.95324236579E+00 -0.38268952459E+01 -0.14004732671E+00  0.39477128169E+01  0.10500000000E+00 0. -1.
         13    1    4    4    0    0  0.31268163069E+01 -0.12617762187E+02 -0.41147273325E+00  0.13006353741E+02  0.10500000000E+00 0.  1.
    3000001    1    5    5    0    0 -0.17394714710E+02  0.52242255222E+02 -0.13056489659E+02  0.56597714201E+02  0.10000000000E+01 0.  1.
        -13    1    6    6    0    0  0.40088852933E+00  0.17428526272E+01 -0.32595866989E+00  0.18208572013E+01  0.10500000000E+00 0.  1.
         13    1    6    6    0    0  0.94600757365E+00  0.39257567500E+01 -0.58355430308E+00  0.40814283056E+01  0.10500000000E+00 0. -1.
</event>
<event>
11    0  0.3396091E-009  0.9118800E+02  0.7816531E-02  0.1126479E+00
         25   -1    0    0    0    0  0.00000000000E+00  0.00000000000E+00  0.99999998245E-14  0.12500000000E+03  0.12500000000E+03 0.  0.
    3000001    1    3    3    0    0 -0.70582350900E+00  0.11181008783E+01  0.23789224615E+01  0.28995876392E+01  0.10000000000E+01 0. -1.
    1000022    2    1    0    0    0 -0.30342809902E+02 -0.13068251934E+02  0.52103595241E+02  0.62500000031E+02  0.10000002276E+02 0.  0.
    3000022    2    3    3    0    0 -0.29636986393E+02 -0.14186352812E+02  0.49724672779E+02  0.59600412392E+02  0.25001141694E+00 0.  0.
    1000022    2    1    0    0    0  0.30342809902E+02  0.13068251934E+02 -0.52103595241E+02  0.62499999969E+02  0.10000001883E+02 0.  0.
    3000022    2    5    5    0    0  0.64763813688E+01  0.64280038897E+01 -0.92798334724E+01  0.13016933400E+02  0.24999244372E+00 0.  0.
        -13    1    4    4    0    0 -0.15803744475E+02 -0.75326884992E+01  0.26384043637E+02  0.31664309863E+02  0.10500000000E+00 0. -1.
         13    1    4    4    0    0 -0.13833241918E+02 -0.66536643132E+01  0.23340629142E+02  0.27936102529E+02  0.10500000000E+00 0.  1.
    3000001    1    5    5    0    0  0.23866428534E+02  0.66402480444E+01 -0.42823761768E+02  0.49483066569E+02  0.10000000000E+01 0.  1.
        -13    1    6    6    0    0  0.49367855910E+01  0.49215986919E+01 -0.70827074675E+01  0.99382974259E+01  0.10500000000E+00 0.  1.
         13    1    6    6    0    0  0.15395957778E+01  0.15064051979E+01 -0.21971260049E+01  0.30786359740E+01  0.10500000000E+00 0. -1.
</event>
<event>
11    0  0.3396091E-009  0.9118800E+02  0.7816531E-02  0.1126479E+00
         25   -1    0    0    0    0  0.00000000000E+00  0.00000000000E+00  0.99999998245E-14  0.12500000000E+03  0.12500000000E+03 0.  0.
    3000001    1    3    3    0    0  0.13583515094E+01 -0.27223799272E+02 -0.33412214861E+02  0.43131849804E+02  0.10000000000E+01 0. -1.
    1000022    2    1    0    0    0  0.69630265569E+01 -0.41877394413E+02 -0.44766622652E+02  0.62500001716E+02  0.99999904569E+01 0.  0.
    3000022    2    3    3    0    0  0.56046750475E+01 -0.14653595141E+02 -0.11354407792E+02  0.19368151912E+02  0.24999847170E+00 0.  0.
    1000022    2    1    0    0    0 -0.69630265569E+01  0.41877394413E+02  0.44766622652E+02  0.62499998284E+02  0.99999690083E+01 0.  0.
    3000022    2    5    5    0    0 -0.88000386471E+01  0.28710446555E+02  0.34004030316E+02  0.45365923372E+02  0.25000808849E+00 0.  0.
        -13    1    4    4    0    0  0.23973919510E+01 -0.64136331556E+01 -0.49053951845E+01  0.84235447015E+01  0.10500000000E+00 0.  1.
         13    1    4    4    0    0  0.32072830965E+01 -0.82399619851E+01 -0.64490126070E+01  0.10944607210E+02  0.10500000000E+00 0. -1.
    3000001    1    5    5    0    0  0.18370120902E+01  0.13166947857E+02  0.10762592336E+02  0.17134074912E+02  0.10000000000E+01 0.  1.
        -13    1    6    6    0    0 -0.55700512689E+01  0.17969519262E+02  0.21291088103E+02  0.28412154991E+02  0.10500000000E+00 0.  1.
         13    1    6    6    0    0 -0.32299873782E+01  0.10740927294E+02  0.12712942213E+02  0.16953768381E+02  0.10500000000E+00 0. -1.
</event>
<event>
11    0  0.3396091E-009  0.9118800E+02  0.7816531E-02  0.1126479E+00
         25   -1    0    0    0    0  0.00000000000E+00  0.00000000000E+00  0.99999998245E-14  0.12500000000E+03  0.12500000000E+03 0.  0.
    3000001    1    3    3    0    0 -0.28584295671E+02  0.11575848543E+02 -0.32747985600E+02  0.44994363973E+02  0.10000000000E+01 0. -1.
    1000022    2    1    0    0    0 -0.42409514538E+02  0.18836828198E+02 -0.40655344865E+02  0.62500001159E+02  0.10000002941E+02 0.  0.
    3000022    2    3    3    0    0 -0.13825218868E+02  0.72609796549E+01 -0.79073592649E+01  0.17505637186E+02  0.25000088575E+00 0.  0.
    1000022    2    1    0    0    0  0.42409514538E+02 -0.18836828198E+02  0.40655344865E+02  0.62499998841E+02  0.99999884570E+01 0.  0.
    3000022    2    5    5    0    0  0.40838651078E+02 -0.17812865607E+02  0.40740225389E+02  0.60373189940E+02  0.24999146646E+00 0.  0.
        -13    1    4    4    0    0 -0.54311259855E+01  0.28316322131E+01 -0.31683154510E+01  0.68967034341E+01  0.10500000000E+00 0.  1.
         13    1    4    4    0    0 -0.83940928824E+01  0.44293474418E+01 -0.47390438140E+01  0.10608933752E+02  0.10500000000E+00 0. -1.
    3000001    1    5    5    0    0  0.15708634608E+01 -0.10239625911E+01 -0.84880524764E-01  0.21268089016E+01  0.10000000000E+01 0. -1.
        -13    1    6    6    0    0  0.22277274966E+02 -0.97520339432E+01  0.22157079648E+02  0.32898728691E+02  0.10500000000E+00 0. -1.
         13    1    6    6    0    0  0.18561376112E+02 -0.80608316638E+01  0.18583145741E+02  0.27474461249E+02  0.10500000000E+00 0.  1.
</event>
<event>
11    0  0.3396091E-009  0.9118800E+02  0.7816531E-02  0.1126479E+00
         25   -1    0    0    0    0  0.00000000000E+00  0.00000000000E+00  0.99999998245E-14  0.12500000000E+03  0.12500000000E+03 0.  0.
    3000001    1    3    3    0    0  0.12253840872E+01 -0.23368107560E+02 -0.14535134824E+01  0.23466629893E+02  0.10000000000E+01 0. -1.
    1000022    2    1    0    0    0 -0.34656631969E+01 -0.61212916485E+02  0.68715186043E+01  0.62500002105E+02  0.10000026457E+02 0.  0.
    3000022    2    3    3    0    0 -0.46910472841E+01 -0.37844808925E+02  0.83250320866E+01  0.39033372212E+02  0.24999952357E+00 0.  0.
    1000022    2    1    0    0    0  0.34656631969E+01  0.61212916485E+02 -0.68715186043E+01  0.62499997895E+02  0.10000000149E+02 0.  0.
    3000022    2    5    5    0    0  0.53729228480E+01  0.21096679137E+02 -0.17852326566E+00  0.21772288348E+02  0.24999764724E+00 0.  0.
        -13    1    4    4    0    0 -0.16775986568E+01 -0.13319629604E+02  0.29823456147E+01  0.13752537236E+02  0.10500000000E+00 0.  1.
         13    1    4    4    0    0 -0.30134486272E+01 -0.24525179321E+02  0.53426864719E+01  0.25280834976E+02  0.10500000000E+00 0. -1.
    3000001    1    5    5    0    0 -0.19072596511E+01  0.40116237348E+02 -0.66929953386E+01  0.40727709547E+02  0.10000000000E+01 0. -1.
        -13    1    6    6    0    0  0.29291621291E+01  0.11627029673E+02 -0.39366221572E-01  0.11990845862E+02  0.10500000000E+00 0.  1.
         13    1    6    6    0    0  0.24437607189E+01  0.94696494640E+01 -0.13915704408E+00  0.97814424859E+01  0.10500000000E+00 0. -1.
</event>
<event>
11    0  0.3396091E-009  0.9118800E+02  0.7816531E-02  0.1126479E+00
         25   -1    0    0    0    0  0.00000000000E+00  0.00000000000E+00  0.99999998245E-14  0.12500000000E+03  0.12500000000E+03 0.  0.
    3000001    1    3    3    0    0  0.13962395951E+01  0.41230097179E+01  0.39556309040E+01  0.59662140415E+01  0.10000000000E+01 0. -1.
    1000022    2    1    0    0    0  0.11313889570E+02  0.19163039057E+02  0.57541491689E+02  0.62500002496E+02  0.10000044158E+02 0.  0.
    3000022    2    3    3    0    0  0.99176499753E+01  0.15040029339E+02  0.53585860785E+02  0.56533788455E+02  0.24999490222E+00 0.  0.
    1000022    2    1    0    0    0 -0.11313889570E+02 -0.19163039057E+02 -0.57541491689E+02  0.62499997504E+02  0.10000012957E+02 0.  0.
    3000022    2    5    5    0    0 -0.51119596334E+00 -0.77127085899E+01 -0.11739252157E+02  0.14057728739E+02  0.25000198175E+00 0.  0.
        -13    1    4    4    0    0  0.73548642493E+01  0.11096769370E+02  0.39572534228E+02  0.41751991675E+02  0.10500000000E+00 0.  1.
         13    1    4    4    0    0  0.25627857260E+01  0.39432599691E+01  0.14013326557E+02  0.14781796780E+02  0.10500000000E+00 0. -1.
    3000001    1    5    5    0    0 -0.10802693607E+02 -0.11450330467E+02 -0.45802239532E+02  0.48442268765E+02  0.10000000000E+01 0. -1.
        -13    1    6    6    0    0 -0.24139735373E+00 -0.36643738403E+01 -0.57003149437E+01  0.67816313510E+01  0.10500000000E+00 0.  1.
         13    1    6    6    0    0 -0.26979860961E+00 -0.40483347495E+01 -0.60389372132E+01  0.72760973879E+01  0.10500000000E+00 0. -1.
</event>
<event>
11    0  0.3396091E-009  0.9118800E+02  0.7816531E-02  0.1126479E+00
         25   -1    0    0    0    0  0.00000000000E+00  0.00000000000E+00  0.99999998245E-14  0.12500000000E+03  0.12500000000E+03 0.  0.
    3000001    1    3    3    0    0 -0.26392835402E+01  0.26518912536E+01  0.83371551839E+01  0.91927417774E+01  0.10000000000E+01 0. -1.
    1000022    2    1    0    0    0 -0.22927518396E+02 -0.46646058955E+01  0.57086078919E+02  0.62499998959E+02  0.99999907769E+01 0.  0.
    3000022    2    3    3    0    0 -0.20288234856E+02 -0.73164971491E+01  0.48748923735E+02  0.53307257182E+02  0.24999753532E+00 0.  0.
    1000022    2    1    0    0    0  0.22927518396E+02  0.46646058955E+01 -0.57086078919E+02  0.62500001041E+02  0.10000003789E+02 0.  0.
    3000022    2    5    5    0    0  0.57820765139E+01  0.19820106184E+01 -0.27614398970E+02  0.28283887676E+02  0.24999340135E+00 0.  0.
        -13    1    4    4    0    0 -0.54399258106E+01 -0.19541540534E+01  0.12981735618E+02  0.14210840775E+02  0.10500000000E+00 0. -1.
         13    1    4    4    0    0 -0.14848309045E+02 -0.53623430957E+01  0.35767188117E+02  0.39096416406E+02  0.10500000000E+00 0.  1.
    3000001    1    5    5    0    0  0.17145441882E+02  0.26825952772E+01 -0.29471679949E+02  0.34216113365E+02  0.10000000000E+01 0.  1.
        -13    1    6    6    0    0  0.22711680212E+01  0.77292073217E+00 -0.11130415567E+02  0.11386517744E+02  0.10500000000E+00 0. -1.
         13    1    6    6    0    0  0.35109084927E+01  0.12090898862E+01 -0.16483983403E+02  0.16897369932E+02  0.10500000000E+00 0.  1.
</event>
<event>
11    0  0.3396091E-009  0.9118800E+02  0.7816531E-02  0.1126479E+00
         25   -1    0    0    0    0  0.00000000000E+00  0.00000000000E+00  0.99999998245E-14  0.12500000000E+03  0.12500000000E+03 0.  0.
    3000001    1    3    3    0    0 -0.15902661404E+02 -0.45188999821E+02 -0.44511484203E+01  0.48122272045E+02  0.10000000000E+01 0. -1.
    1000022    2    1    0    0    0 -0.15413309985E+02 -0.59324140463E+02 -0.70231470657E+01  0.62500009696E+02  0.10000142545E+02 0.  0.
    3000022    2    3    3    0    0  0.48935141851E+00 -0.14135140643E+02 -0.25719986455E+01  0.14377737651E+02  0.24999427914E+00 0.  0.
    1000022    2    1    0    0    0  0.15413309985E+02  0.59324140463E+02  0.70231470657E+01  0.62499990304E+02  0.10000021340E+02 0.  0.
    3000022    2    5    5    0    0  0.14063509305E+02  0.37447177081E+02  0.23780661190E+01  0.40072322888E+02  0.24999571335E+00 0.  0.
        -13    1    4    4    0    0  0.19611378036E+00 -0.47962865237E+01 -0.91944567220E+00  0.48886839105E+01  0.10500000000E+00 0.  1.
         13    1    4    4    0    0  0.29323763815E+00 -0.93388541189E+01 -0.16525529733E+01  0.94890537408E+01  0.10500000000E+00 0. -1.
    3000001    1    5    5    0    0  0.13498006809E+01  0.21876963382E+02  0.46450809468E+01  0.22427667416E+02  0.10000000000E+01 0. -1.
        -13    1    6    6    0    0  0.10528111865E+02  0.27978793367E+02  0.17974135553E+01  0.29948217613E+02  0.10500000000E+00 0. -1.
         13    1    6    6    0    0  0.35353974399E+01  0.94683837144E+01  0.58065256367E+00  0.10124105275E+02  0.10500000000E+00 0.  1.
</event>
<event>
11    0  0.3396091E-009  0.9118800E+02  0.7816531E-02  0.1126479E+00
         25   -1    0    0    0    0  0.00000000000E+00  0.00000000000E+00  0.99999998245E-14  0.12500000000E+03  0.12500000000E+03 0.  0.
    3000001    1    3    3    0    0  0.10576514366E+02  0.12643514766E+01 -0.20491507743E+02  0.23116295775E+02  0.10000000000E+01 0. -1.
    1000022    2    1    0    0    0  0.30602108806E+02  0.15447203792E+02 -0.51294687153E+02  0.62499999500E+02  0.99999919512E+01 0.  0.
    3000022    2    3    3    0    0  0.20025594440E+02  0.14182852316E+02 -0.30803179410E+02  0.39383703725E+02  0.25004966932E+00 0.  0.
    1000022    2    1    0    0    0 -0.30602108806E+02 -0.15447203792E+02  0.51294687153E+02  0.62500000500E+02  0.99999982050E+01 0.  0.
    3000022    2    5    5    0    0 -0.21732452366E+01 -0.44544116733E+01  0.10013519419E+02  0.11175770629E+02  0.24999958379E+00 0.  0.
        -13    1    4    4    0    0  0.99350805296E+01  0.71168457150E+01 -0.15312884755E+02  0.19592110213E+02  0.10500000000E+00 0.  1.
         13    1    4    4    0    0  0.10090513910E+02  0.70660066006E+01 -0.15490294654E+02  0.19791593512E+02  0.10500000000E+00 0. -1.
    3000001    1    5    5    0    0 -0.28428863569E+02 -0.10992792119E+02  0.41281167734E+02  0.51324229871E+02  0.10000000000E+01 0.  1.
        -13    1    6    6    0    0 -0.73548393540E+00 -0.16148867665E+01  0.36629460200E+01  0.40714855315E+01  0.10500000000E+00 0.  1.
         13    1    6    6    0    0 -0.14377613012E+01 -0.28395249067E+01  0.63505733988E+01  0.71042850977E+01  0.10500000000E+00 0. -1.
</event>
<event>
11    0  0.3396091E-009  0.9118800E+02  0.7816531E-02  0.1126479E+00
         25   -1    0    0    0    0  0.00000000000E+00  0.00000000000E+00  0.99999998245E-14  0.12500000000E+03  0.12500000000E+03 0.  0.
    3000001    1    3    3    0    0  0.37537955533E+01 -0.44402292233E+02 -0.22002573356E+02  0.49706818153E+02  0.10000000000E+01 0. -1.
    1000022    2    1    0    0    0  0.19430732523E+01 -0.56960193879E+02 -0.23622250302E+02  0.62499998659E+02  0.99999951346E+01 0.  0.
    3000022    2    3    3    0    0 -0.18107223010E+01 -0.12557901646E+02 -0.16196769458E+01  0.12793180506E+02  0.25001011746E+00 0.  0.
    1000022    2    1    0    0    0 -0.19430732523E+01  0.56960193879E+02  0.23622250302E+02  0.62500001341E+02  0.10000011894E+02 0.  0.
    3000022    2    5    5    0    0 -0.20452035919E+01  0.44086716397E+02  0.22498494736E+02  0.49538532302E+02  0.24999360985E+00 0.  0.
        -13    1    4    4    0    0 -0.54306814166E+00 -0.36847658481E+01 -0.43278907643E+00  0.37511003381E+01  0.10500000000E+00 0.  1.
         13    1    4    4    0    0 -0.12676541593E+01 -0.88731357975E+01 -0.11868878694E+01  0.90420801679E+01  0.10500000000E+00 0. -1.
    3000001    1    5    5    0    0  0.10213033959E+00  0.12873477482E+02  0.11237555658E+01  0.12961469039E+02  0.10000000000E+01 0. -1.
        -13    1    6    6    0    0 -0.65421046223E+00  0.13191528769E+02  0.67136586775E+01  0.14816499601E+02  0.10500000000E+00 0. -1.
         13    1    6    6    0    0 -0.13909931297E+01  0.30895187628E+02  0.15784836058E+02  0.34722032701E+02  0.10500000000E+00 0.  1.
</event>
<event>
11    0  0.3396091E-009  0.9118800E+02  0.7816531E-02  0.1126479E+00
         25   -1    0    0    0    0  0.00000000000E+00  0.00000000000E+00  0.99999998245E-14  0.12500000000E+03  0.12500000000E+03 0.  0.
    3000001    1    3    3    0    0 -0.15064412624E+02 -0.16159535459E+02  0.12083730656E+02  0.25200866266E+02  0.10000000000E+01 0.  1.
    1000022    2    1    0    0    0 -0.26867370426E+02 -0.45687607272E+02  0.31575913876E+02  0.62499988855E+02  0.99998608971E+01 0.  0.
    3000022    2    3    3    0    0 -0.11802957802E+02 -0.29528071813E+02  0.19492183219E+02  0.37299122590E+02  0.25000286118E+00 0.  0.
    1000022    2    1    0    0    0  0.26867370426E+02  0.45687607272E+02 -0.31575913876E+02  0.62500011145E+02  0.10000000206E+02 0.  0.
    3000022    2    5    5    0    0  0.23212466218E+02  0.37970248627E+02 -0.30223968972E+02  0.53796925240E+02  0.24999241064E+00 0.  0.
        -13    1    4    4    0    0 -0.39840048172E+01 -0.99379601415E+01  0.66253793312E+01  0.12591347126E+02  0.10500000000E+00 0. -1.
         13    1    4    4    0    0 -0.78189529847E+01 -0.19590111672E+02  0.12866803888E+02  0.24707775464E+02  0.10500000000E+00 0.  1.
    3000001    1    5    5    0    0  0.36549042077E+01  0.77173586457E+01 -0.13519449036E+01  0.87030859042E+01  0.10000000000E+01 0. -1.
        -13    1    6    6    0    0  0.69739770340E+01  0.11462466707E+02 -0.91563572665E+01  0.16244211341E+02  0.10500000000E+00 0.  1.
         13    1    6    6    0    0  0.16238489184E+02  0.26507781919E+02 -0.21067611705E+02  0.37552713900E+02  0.10500000000E+00 0. -1.
</event>
<event>
11    0  0.3396091E-009  0.9118800E+02  0.7816531E-02  0.1126479E+00
         25   -1    0    0    0    0  0.00000000000E+00  0.00000000000E+00  0.99999998245E-14  0.12500000000E+03  0.12500000000E+03 0.  0.
    3000001    1    3    3    0    0 -0.23315249786E+02 -0.84719358791E+01  0.24375546723E+02  0.34792841910E+02  0.10000000000E+01 0.  1.
    1000022    2    1    0    0    0 -0.38321560722E+02 -0.81200557614E+01  0.47663116348E+02  0.62499999511E+02  0.99999978603E+01 0.  0.
    3000022    2    3    3    0    0 -0.15006310935E+02  0.35188011764E+00  0.23287569625E+02  0.27707157601E+02  0.24999159946E+00 0.  0.
    1000022    2    1    0    0    0  0.38321560722E+02  0.81200557614E+01 -0.47663116348E+02  0.62500000489E+02  0.10000003969E+02 0.  0.
    3000022    2    5    5    0    0  0.24296137615E+02  0.16760387636E+01 -0.23732752146E+02  0.34006138356E+02  0.25002506315E+00 0.  0.
        -13    1    4    4    0    0 -0.61899936098E+01  0.95648279494E-01  0.95292778055E+01  0.11364124690E+02  0.10500000000E+00 0. -1.
         13    1    4    4    0    0 -0.88163173255E+01  0.25623183814E+00  0.13758291819E+02  0.16343032911E+02  0.10500000000E+00 0.  1.
    3000001    1    5    5    0    0  0.14025423107E+02  0.64440169979E+01 -0.23930364202E+02  0.28493862132E+02  0.10000000000E+01 0.  1.
        -13    1    6    6    0    0  0.84441965938E+01  0.54431610401E+00 -0.83037182550E+01  0.11855947790E+02  0.10500000000E+00 0.  1.
         13    1    6    6    0    0  0.15851941021E+02  0.11317226595E+01 -0.15429033891E+02  0.22150190567E+02  0.10500000000E+00 0. -1.
</event>
<event>
11    0  0.3396091E-009  0.9118800E+02  0.7816531E-02  0.1126479E+00
         25   -1    0    0    0    0  0.00000000000E+00  0.00000000000E+00  0.99999998245E-14  0.12500000000E+03  0.12500000000E+03 0.  0.
    3000001    1    3    3    0    0 -0.29742754714E+02 -0.49175279309E+01 -0.19626865747E+02  0.35986489103E+02  0.10000000000E+01 0.  1.
    1000022    2    1    0    0    0 -0.47456805265E+02 -0.32835973340E+01 -0.39285107880E+02  0.62500000696E+02  0.10000000418E+02 0.  0.
    3000022    2    3    3    0    0 -0.17714050551E+02  0.16339305968E+01 -0.19658242133E+02  0.26513511593E+02  0.24999412042E+00 0.  0.
    1000022    2    1    0    0    0  0.47456805265E+02  0.32835973340E+01  0.39285107880E+02  0.62499999304E+02  0.99999917202E+01 0.  0.
    3000022    2    5    5    0    0  0.34805770440E+02  0.42108677113E+01  0.23422526926E+02  0.42164562573E+02  0.25001321009E+00 0.  0.
        -13    1    4    4    0    0 -0.54826973293E+01  0.46387248155E+00 -0.60447291048E+01  0.81746512240E+01  0.10500000000E+00 0. -1.
         13    1    4    4    0    0 -0.12231353222E+02  0.11700581153E+01 -0.13613513029E+02  0.18338860368E+02  0.10500000000E+00 0.  1.
    3000001    1    5    5    0    0  0.12651034826E+02 -0.92727037724E+00  0.15862580954E+02  0.20335436731E+02  0.10000000000E+01 0.  1.
        -13    1    6    6    0    0  0.19186811845E+02  0.23228346661E+01  0.12831732163E+02  0.23199001810E+02  0.10500000000E+00 0. -1.
         13    1    6    6    0    0  0.15618958594E+02  0.18880330451E+01  0.10590794764E+02  0.18965560764E+02  0.10500000000E+00 0.  1.
</event>
<event>
11    0  0.3396091E-009  0.9118800E+02  0.7816531E-02  0.1126479E+00
         25   -1    0    0    0    0  0.00000000000E+00  0.00000000000E+00  0.99999998245E-14  0.12500000000E+03  0.12500000000E+03 0.  0.
    3000001    1    3    3    0    0 -0.73260418683E+00 -0.22439498426E+02 -0.99637172030E+01  0.24583398036E+02  0.10000000000E+01 0.  1.
    1000022    2    1    0    0    0 -0.51234801314E+01 -0.50455580930E+02 -0.35131666329E+02  0.62500001750E+02  0.10000027199E+02 0.  0.
    3000022    2    3    3    0    0 -0.43908759445E+01 -0.28016082504E+02 -0.25167949126E+02  0.37916603713E+02  0.25000701544E+00 0.  0.
    1000022    2    1    0    0    0  0.51234801314E+01  0.50455580930E+02  0.35131666329E+02  0.62499998250E+02  0.10000005330E+02 0.  0.
    3000022    2    5    5    0    0  0.49998800084E+01  0.12205632540E+02  0.64769762112E+01  0.14696597801E+02  0.25000053192E+00 0.  0.
        -13    1    4    4    0    0 -0.13796467373E+01 -0.86694349054E+01 -0.78497323596E+01  0.11776750393E+02  0.10500000000E+00 0. -1.
         13    1    4    4    0    0 -0.30112292073E+01 -0.19346647599E+02 -0.17318216766E+02  0.26139853320E+02  0.10500000000E+00 0.  1.
    3000001    1    5    5    0    0  0.12360012294E+00  0.38249948390E+02  0.28654690118E+02  0.47803400450E+02  0.10000000000E+01 0. -1.
        -13    1    6    6    0    0  0.27261681775E+01  0.68286303132E+01  0.36193410144E+01  0.81959038102E+01  0.10500000000E+00 0.  1.
         13    1    6    6    0    0  0.22737118309E+01  0.53770022271E+01  0.28576351968E+01  0.65006939905E+01  0.10500000000E+00 0. -1.
</event>
<event>
11    0  0.3396091E-009  0.9118800E+02  0.7816531E-02  0.1126479E+00
         25   -1    0    0    0    0  0.00000000000E+00  0.00000000000E+00  0.99999998245E-14  0.12500000000E+03  0.12500000000E+03 0.  0.
    3000001    1    3    3    0    0 -0.24316082482E+02 -0.45461180246E+01 -0.42185733503E+02  0.48913956777E+02  0.10000000000E+01 0.  1.
    1000022    2    1    0    0    0 -0.33184316671E+02 -0.96839891511E+01 -0.51100602866E+02  0.62500002512E+02  0.10000009094E+02 0.  0.
    3000022    2    3    3    0    0 -0.88682341889E+01 -0.51378711265E+01 -0.89148693631E+01  0.13586045735E+02  0.24989119813E+00 0.  0.
    1000022    2    1    0    0    0  0.33184316671E+02  0.96839891511E+01  0.51100602866E+02  0.62499997488E+02  0.99999776953E+01 0.  0.
    3000022    2    5    5    0    0  0.20719960736E+02  0.85491168721E+01  0.25268663112E+02  0.33778277215E+02  0.25000792141E+00 0.  0.
        -13    1    4    4    0    0 -0.62827145956E+01 -0.36169877407E+01 -0.63561381673E+01  0.96419199545E+01  0.10500000000E+00 0. -1.
         13    1    4    4    0    0 -0.25855195933E+01 -0.15208833858E+01 -0.25587311958E+01  0.39441257806E+01  0.10500000000E+00 0.  1.
    3000001    1    5    5    0    0  0.12464355935E+02  0.11348722790E+01  0.25831939754E+02  0.28721720273E+02  0.10000000000E+01 0. -1.
        -13    1    6    6    0    0  0.13019630683E+02  0.54329570485E+01  0.15932789069E+02  0.21281273410E+02  0.10500000000E+00 0.  1.
         13    1    6    6    0    0  0.77003300536E+01  0.31161598236E+01  0.93358740427E+01  0.12497003806E+02  0.10500000000E+00 0. -1.
</event>
<event>
11    0  0.3396091E-009  0.9118800E+02  0.7816531E-02  0.1126479E+00
         25   -1    0    0    0    0  0.00000000000E+00  0.00000000000E+00  0.99999998245E-14  0.12500000000E+03  0.12500000000E+03 0.  0.
    3000001    1    3    3    0    0 -0.31613203260E+01  0.52399566098E+02 -0.28985012763E+02  0.59973656203E+02  0.10000000000E+01 0.  1.
    1000022    2    1    0    0    0 -0.25542761709E+01  0.53089235584E+02 -0.31325049608E+02  0.62500001067E+02  0.10000006939E+02 0.  0.
    3000022    2    3    3    0    0  0.60704415513E+00  0.68966948599E+00 -0.23400368448E+01  0.25263448641E+01  0.24999866188E+00 0.  0.
    1000022    2    1    0    0    0  0.25542761709E+01 -0.53089235584E+02  0.31325049608E+02  0.62499998933E+02  0.99999936058E+01 0.  0.
    3000022    2    5    5    0    0 -0.24263587350E+01 -0.32359936638E+02  0.15706373985E+02  0.36052814073E+02  0.25000573856E+00 0.  0.
        -13    1    4    4    0    0  0.33697519428E+00  0.41660879438E+00 -0.15116704035E+01  0.16072608929E+01  0.10500000000E+00 0. -1.
         13    1    4    4    0    0  0.27006896085E+00  0.27306069161E+00 -0.82836644132E+00  0.91908397115E+00  0.10500000000E+00 0.  1.
    3000001    1    5    5    0    0  0.49806349058E+01 -0.20729298946E+02  0.15618675623E+02  0.26447184861E+02  0.10000000000E+01 0.  1.
        -13    1    6    6    0    0 -0.58254334333E+00 -0.75840797039E+01  0.36817329915E+01  0.84512605287E+01  0.10500000000E+00 0.  1.
         13    1    6    6    0    0 -0.18438153917E+01 -0.24775856934E+02  0.12024640993E+02  0.27601553544E+02  0.10500000000E+00 0. -1.
</event>
<event>
11    0  0.3396091E-009  0.9118800E+02  0.7816531E-02  0.1126479E+00
         25   -1    0    0    0    0  0.00000000000E+00  0.00000000000E+00  0.99999998245E-14  0.12500000000E+03  0.12500000000E+03 0.  0.
    3000001    1    3    3    0    0  0.20466347391E+02 -0.44520652053E+02 -0.28566245801E+02  0.56727332336E+02  0.10000000000E+01 0. -1.
    1000022    2    1    0    0    0  0.19578761580E+02 -0.48659861755E+02 -0.32482918677E+02  0.62500000198E+02  0.99999983978E+01 0.  0.
    3000022    2    3    3    0    0 -0.88758581095E+00 -0.41392097017E+01 -0.39166728754E+01  0.57726678619E+01  0.25000460862E+00 0.  0.
    1000022    2    1    0    0    0 -0.19578761580E+02  0.48659861755E+02  0.32482918677E+02  0.62499999802E+02  0.99999959252E+01 0.  0.
    3000022    2    5    5    0    0 -0.16958813735E+02  0.29693798279E+02  0.19851200440E+02  0.39540557386E+02  0.24999980391E+00 0.  0.
        -13    1    4    4    0    0 -0.34950960492E+00 -0.13846636193E+01 -0.12989009514E+01  0.19332922656E+01  0.10500000000E+00 0.  1.
         13    1    4    4    0    0 -0.53807620603E+00 -0.27545460824E+01 -0.26177719240E+01  0.38393755963E+01  0.10500000000E+00 0. -1.
    3000001    1    5    5    0    0 -0.26199478450E+01  0.18966063475E+02  0.12631718237E+02  0.22959442417E+02  0.10000000000E+01 0.  1.
        -13    1    6    6    0    0 -0.73174345444E+01  0.12935708719E+02  0.85995988459E+01  0.17170950285E+02  0.10500000000E+00 0.  1.
         13    1    6    6    0    0 -0.96413791907E+01  0.16758089560E+02  0.11251601594E+02  0.22369607100E+02  0.10500000000E+00 0. -1.
</event>
<event>
11    0  0.3396091E-009  0.9118800E+02  0.7816531E-02  0.1126479E+00
         25   -1    0    0    0    0  0.00000000000E+00  0.00000000000E+00  0.99999998245E-14  0.12500000000E+03  0.12500000000E+03 0.  0.
    3000001    1    3    3    0    0  0.19511544679E+02  0.31382582079E+02  0.34410722465E+01  0.37126914926E+02  0.10000000000E+01 0. -1.
    1000022    2    1    0    0    0  0.35030791916E+02  0.49151244932E+02  0.12776922971E+02  0.62499991686E+02  0.99998969712E+01 0.  0.
    3000022    2    3    3    0    0  0.15519247237E+02  0.17768662853E+02  0.93358507249E+01  0.25373076760E+02  0.25000220828E+00 0.  0.
    1000022    2    1    0    0    0 -0.35030791916E+02 -0.49151244932E+02 -0.12776922971E+02  0.62500008314E+02  0.10000000901E+02 0.  0.
    3000022    2    5    5    0    0 -0.90073769434E+00 -0.32219305366E+01 -0.28765848444E+01  0.44192092749E+01  0.25001094330E+00 0.  0.
        -13    1    4    4    0    0  0.84039672741E+01  0.95498531237E+01  0.49829918948E+01  0.13662634953E+02  0.10500000000E+00 0.  1.
         13    1    4    4    0    0  0.71152799631E+01  0.82188097297E+01  0.43528588301E+01  0.11710441807E+02  0.10500000000E+00 0. -1.
    3000001    1    5    5    0    0 -0.34130054222E+02 -0.45929314396E+02 -0.99003381271E+01  0.58080799039E+02  0.10000000000E+01 0. -1.
        -13    1    6    6    0    0 -0.47933917135E+00 -0.18499290164E+01 -0.15700892476E+01  0.24755218949E+01  0.10500000000E+00 0.  1.
         13    1    6    6    0    0 -0.42139852299E+00 -0.13720015202E+01 -0.13064955968E+01  0.19436873800E+01  0.10500000000E+00 0. -1.
</event>
<event>
11    0  0.3396091E-009  0.9118800E+02  0.7816531E-02  0.1126479E+00
         25   -1    0    0    0    0  0.00000000000E+00  0.00000000000E+00  0.99999998245E-14  0.12500000000E+03  0.12500000000E+03 0.  0.
    3000001    1    3    3    0    0  0.31447392820E+02 -0.38696594982E+00  0.11010283090E+02  0.33336385400E+02  0.10000000000E+01 0. -1.
    1000022    2    1    0    0    0  0.56814796389E+02 -0.96238062119E+01  0.22038863189E+02  0.62500000738E+02  0.99999933432E+01 0.  0.
    3000022    2    3    3    0    0  0.25367403569E+02 -0.92368402621E+01  0.11028580099E+02  0.29163615338E+02  0.24999743912E+00 0.  0.
    1000022    2    1    0    0    0 -0.56814796389E+02  0.96238062119E+01 -0.22038863189E+02  0.62499999262E+02  0.99999841177E+01 0.  0.
    3000022    2    5    5    0    0 -0.11457137228E+02  0.28148095270E+01 -0.88950654584E+01  0.14777477334E+02  0.25000140173E+00 0.  0.
        -13    1    4    4    0    0  0.73957224898E+01 -0.27370435785E+01  0.32071117947E+01  0.85137952618E+01  0.10500000000E+00 0. -1.
         13    1    4    4    0    0  0.17971681079E+02 -0.64997966836E+01  0.78214683040E+01  0.20649820076E+02  0.10500000000E+00 0.  1.
    3000001    1    5    5    0    0 -0.45357659161E+02  0.68089966849E+01 -0.13143797730E+02  0.47722521928E+02  0.10000000000E+01 0.  1.
        -13    1    6    6    0    0 -0.52990213156E+01  0.12452749028E+01 -0.41522875593E+01  0.68471054806E+01  0.10500000000E+00 0.  1.
         13    1    6    6    0    0 -0.61581159126E+01  0.15695346243E+01 -0.47427778991E+01  0.79303718532E+01  0.10500000000E+00 0. -1.
</event>
<event>
11    0  0.3396091E-009  0.9118800E+02  0.7816531E-02  0.1126479E+00
         25   -1    0    0    0    0  0.00000000000E+00  0.00000000000E+00  0.99999998245E-14  0.12500000000E+03  0.12500000000E+03 0.  0.
    3000001    1    3    3    0    0 -0.27908513081E+02 -0.37274933661E+01  0.12407310233E+02  0.30785071973E+02  0.10000000000E+01 0.  1.
    1000022    2    1    0    0    0 -0.55156304258E+02 -0.16918782841E+02  0.21858336434E+02  0.62499999676E+02  0.99999987791E+01 0.  0.
    3000022    2    3    3    0    0 -0.27247791177E+02 -0.13191289475E+02  0.94510262015E+01  0.31714927703E+02  0.25000177072E+00 0.  0.
    1000022    2    1    0    0    0  0.55156304258E+02  0.16918782841E+02 -0.21858336434E+02  0.62500000324E+02  0.10000002835E+02 0.  0.
    3000022    2    5    5    0    0  0.49789576276E+02  0.15285762797E+02 -0.16388202491E+02  0.54601209971E+02  0.24999872136E+00 0.  0.
        -13    1    4    4    0    0 -0.10907463815E+02 -0.52111229386E+01  0.37657512824E+01  0.12661772264E+02  0.10500000000E+00 0. -1.
         13    1    4    4    0    0 -0.16340327363E+02 -0.79801665359E+01  0.56852749190E+01  0.19053155438E+02  0.10500000000E+00 0.  1.
    3000001    1    5    5    0    0  0.53667279815E+01  0.16330200440E+01 -0.54701339433E+01  0.78987903536E+01  0.10000000000E+01 0. -1.
        -13    1    6    6    0    0  0.19239496342E+02  0.58685504326E+01 -0.62771634089E+01  0.21071590095E+02  0.10500000000E+00 0.  1.
         13    1    6    6    0    0  0.30550079934E+02  0.94172123641E+01 -0.10111039082E+02  0.33529619876E+02  0.10500000000E+00 0. -1.
</event>
<event>
11    0  0.3396091E-009  0.9118800E+02  0.7816531E-02  0.1126479E+00
         25   -1    0    0    0    0  0.00000000000E+00  0.00000000000E+00  0.99999998245E-14  0.12500000000E+03  0.12500000000E+03 0.  0.
    3000001    1    3    3    0    0  0.26811133347E+02 -0.18509139500E+02 -0.41136923290E+02  0.52484965220E+02  0.10000000000E+01 0.  1.
    1000022    2    1    0    0    0  0.35046076930E+02 -0.20275587043E+02 -0.46550221451E+02  0.62500000570E+02  0.10000000799E+02 0.  0.
    3000022    2    3    3    0    0  0.82349435834E+01 -0.17664475432E+01 -0.54132981613E+01  0.10015035350E+02  0.25000668202E+00 0.  0.
    1000022    2    1    0    0    0 -0.35046076930E+02  0.20275587043E+02  0.46550221451E+02  0.62499999430E+02  0.99999936691E+01 0.  0.
    3000022    2    5    5    0    0 -0.32825665091E+02  0.20580394193E+02  0.40889664842E+02  0.56330312463E+02  0.24999497369E+00 0.  0.
        -13    1    4    4    0    0  0.19804533388E+01 -0.44098114269E+00 -0.13202510717E+01  0.24229625849E+01  0.10500000000E+00 0. -1.
         13    1    4    4    0    0  0.62544902446E+01 -0.13254664005E+01 -0.40930470897E+01  0.75920727655E+01  0.10500000000E+00 0.  1.
    3000001    1    5    5    0    0 -0.22204118390E+01 -0.30480715012E+00  0.56605566097E+01  0.61696869665E+01  0.10000000000E+01 0. -1.
        -13    1    6    6    0    0 -0.16644424064E+02  0.10437288327E+02  0.20832905692E+02  0.28635551760E+02  0.10500000000E+00 0. -1.
         13    1    6    6    0    0 -0.16181241027E+02  0.10143105866E+02  0.20056759150E+02  0.27694760703E+02  0.10500000000E+00 0.  1.
</event>
<event>
11    0  0.3396091E-009  0.9118800E+02  0.7816531E-02  0.1126479E+00
         25   -1    0    0    0    0  0.00000000000E+00  0.00000000000E+00  0.99999998245E-14  0.12500000000E+03  0.12500000000E+03 0.  0.
    3000001    1    3    3    0    0  0.44528722345E+01 -0.15560853732E+02 -0.18694490439E+00  0.16217373042E+02  0.10000000000E+01 0. -1.
    1000022    2    1    0    0    0  0.27937314027E+02 -0.53759128570E+02 -0.11649580472E+02  0.62500001781E+02  0.10000003890E+02 0.  0.
    3000022    2    3    3    0    0  0.23484441792E+02 -0.38198274838E+02 -0.11462635567E+02  0.46282628738E+02  0.25000377042E+00 0.  0.
    1000022    2    1    0    0    0 -0.27937314027E+02  0.53759128570E+02  0.11649580472E+02  0.62499998219E+02  0.99999816338E+01 0.  0.
    3000022    2    5    5    0    0 -0.24369148417E+02  0.51502298239E+02  0.11675306188E+02  0.58161133071E+02  0.25001415877E+00 0.  0.
        -13    1    4    4    0    0  0.10586944510E+02 -0.17334817237E+02 -0.52225143987E+01  0.20972957930E+02  0.10500000000E+00 0. -1.
         13    1    4    4    0    0  0.12897497283E+02 -0.20863457601E+02 -0.62401211687E+01  0.25309670808E+02  0.10500000000E+00 0.  1.
    3000001    1    5    5    0    0 -0.35681656102E+01  0.22568303302E+01 -0.25725716185E-01  0.43388651481E+01  0.10000000000E+01 0. -1.
        -13    1    6    6    0    0 -0.14423805124E+02  0.30628184108E+02  0.69524669573E+01  0.34561244737E+02  0.10500000000E+00 0. -1.
         13    1    6    6    0    0 -0.99453432921E+01  0.20874114132E+02  0.47228392307E+01  0.23599888334E+02  0.10500000000E+00 0.  1.
</event>
<event>
11    0  0.3396091E-009  0.9118800E+02  0.7816531E-02  0.1126479E+00
         25   -1    0    0    0    0  0.00000000000E+00  0.00000000000E+00  0.99999998245E-14  0.12500000000E+03  0.12500000000E+03 0.  0.
    3000001    1    3    3    0    0  0.34352268707E+02  0.40783828336E+02  0.73774720910E-01  0.53332958495E+02  0.10000000000E+01 0. -1.
    1000022    2    1    0    0    0  0.36662717306E+02  0.49613983467E+02 -0.74006971599E+00  0.62500000227E+02  0.10000006474E+02 0.  0.
    3000022    2    3    3    0    0  0.23104485989E+01  0.88301551304E+01 -0.81384443690E+00  0.91670417322E+01  0.24999799298E+00 0.  0.
    1000022    2    1    0    0    0 -0.36662717306E+02 -0.49613983467E+02  0.74006971599E+00  0.62499999773E+02  0.10000003637E+02 0.  0.
    3000022    2    5    5    0    0 -0.17935612094E+02 -0.30995440686E+02 -0.23773614224E+01  0.35890359004E+02  0.24999532623E+00 0.  0.
        -13    1    4    4    0    0  0.96164805904E+00  0.38373302157E+01 -0.40433792994E+00  0.39779874730E+01  0.10500000000E+00 0.  1.
         13    1    4    4    0    0  0.13488005399E+01  0.49928249147E+01 -0.40950650696E+00  0.51890542592E+01  0.10500000000E+00 0. -1.
    3000001    1    5    5    0    0 -0.18727105212E+02 -0.18618542781E+02  0.31174311384E+01  0.26609640769E+02  0.10000000000E+01 0.  1.
        -13    1    6    6    0    0 -0.89053389930E+01 -0.15256636083E+02 -0.11850503162E+01  0.17705518247E+02  0.10500000000E+00 0. -1.
         13    1    6    6    0    0 -0.90302731006E+01 -0.15738804603E+02 -0.11923111061E+01  0.18184840758E+02  0.10500000000E+00 0.  1.
</event>
<event>
11    0  0.3396091E-009  0.9118800E+02  0.7816531E-02  0.1126479E+00
         25   -1    0    0    0    0  0.00000000000E+00  0.00000000000E+00  0.99999998245E-14  0.12500000000E+03  0.12500000000E+03 0.  0.
    3000001    1    3    3    0    0  0.95315924522E+01 -0.15044937979E+02 -0.36576251587E+02  0.40694269788E+02  0.10000000000E+01 0.  1.
    1000022    2    1    0    0    0  0.20780271584E+02 -0.19529028237E+02 -0.54708750929E+02  0.62500000203E+02  0.99999983091E+01 0.  0.
    3000022    2    3    3    0    0  0.11248679132E+02 -0.44840902584E+01 -0.18132499343E+02  0.21805730415E+02  0.24999774922E+00 0.  0.
    1000022    2    1    0    0    0 -0.20780271584E+02  0.19529028237E+02  0.54708750929E+02  0.62499999797E+02  0.99999957676E+01 0.  0.
    3000022    2    5    5    0    0  0.97936297064E+00  0.11409686629E+01  0.15125612894E+01  0.21473940280E+01  0.24999627935E+00 0.  0.
        -13    1    4    4    0    0  0.74841849222E+01 -0.29813852947E+01 -0.11965066649E+02  0.14424823297E+02  0.10500000000E+00 0.  1.
         13    1    4    4    0    0  0.37644942096E+01 -0.15027049638E+01 -0.61674326936E+01  0.73809071185E+01  0.10500000000E+00 0. -1.
    3000001    1    5    5    0    0 -0.21759634555E+02  0.18388059574E+02  0.53196189640E+02  0.60352605769E+02  0.10000000000E+01 0. -1.
        -13    1    6    6    0    0  0.30502597637E+00  0.29421688135E+00  0.44642320840E+00  0.62443822796E+00  0.10500000000E+00 0. -1.
         13    1    6    6    0    0  0.67433699427E+00  0.84675178153E+00  0.10661380810E+01  0.15229558001E+01  0.10500000000E+00 0.  1.
</event>
<event>
11    0  0.3396091E-009  0.9118800E+02  0.7816531E-02  0.1126479E+00
         25   -1    0    0    0    0  0.00000000000E+00  0.00000000000E+00  0.99999998245E-14  0.12500000000E+03  0.12500000000E+03 0.  0.
    3000001    1    3    3    0    0  0.25522449744E+01  0.24403067102E+02  0.55292079490E+02  0.60499898287E+02  0.10000000000E+01 0. -1.
    1000022    2    1    0    0    0  0.21244780666E+01  0.26278992001E+02  0.55777694124E+02  0.62499999773E+02  0.99999991092E+01 0.  0.
    3000022    2    3    3    0    0 -0.42776690786E+00  0.18759248984E+01  0.48561463387E+00  0.20001014857E+01  0.25001125707E+00 0.  0.
    1000022    2    1    0    0    0 -0.21244780666E+01 -0.26278992001E+02 -0.55777694124E+02  0.62500000227E+02  0.10000001946E+02 0.  0.
    3000022    2    5    5    0    0  0.37148036773E+01 -0.69955006920E+01 -0.13450262684E+02  0.15611177458E+02  0.24999812213E+00 0.  0.
        -13    1    4    4    0    0 -0.29349962486E+00  0.13133325202E+01  0.38553486263E+00  0.14037971608E+01  0.10500000000E+00 0. -1.
         13    1    4    4    0    0 -0.13426728300E+00  0.56259237816E+00  0.10007977125E+00  0.59630432487E+00  0.10500000000E+00 0.  1.
    3000001    1    5    5    0    0 -0.58392817439E+01 -0.19283491309E+02 -0.42327431440E+02  0.46888822769E+02  0.10000000000E+01 0.  1.
        -13    1    6    6    0    0  0.10922766204E+01 -0.19802285984E+01 -0.38836905294E+01  0.44953810345E+01  0.10500000000E+00 0.  1.
         13    1    6    6    0    0  0.26225270569E+01 -0.50152720936E+01 -0.95665721549E+01  0.11115796424E+02  0.10500000000E+00 0. -1.
</event>
<event>
11    0  0.3396091E-009  0.9118800E+02  0.7816531E-02  0.1126479E+00
         25   -1    0    0    0    0  0.00000000000E+00  0.00000000000E+00  0.99999998245E-14  0.12500000000E+03  0.12500000000E+03 0.  0.
    3000001    1    3    3    0    0 -0.26295334515E+02 -0.39809211545E+01  0.18252602389E+02  0.32271502049E+02  0.10000000000E+01 0.  1.
    1000022    2    1    0    0    0 -0.44908264223E+02 -0.13442335490E+02  0.40109867894E+02  0.62499999708E+02  0.99999941031E+01 0.  0.
    3000022    2    3    3    0    0 -0.18612929708E+02 -0.94614143354E+01  0.21857265505E+02  0.30228497659E+02  0.25000368275E+00 0.  0.
    1000022    2    1    0    0    0  0.44908264223E+02  0.13442335490E+02 -0.40109867894E+02  0.62500000292E+02  0.99999977541E+01 0.  0.
    3000022    2    5    5    0    0  0.30738021568E+02  0.54756775947E+01 -0.30180252121E+02  0.43424867676E+02  0.24999910122E+00 0.  0.
        -13    1    4    4    0    0 -0.92144117689E+01 -0.46342619540E+01  0.10722631999E+02  0.14878428348E+02  0.10500000000E+00 0.  1.
         13    1    4    4    0    0 -0.93985179389E+01 -0.48271523813E+01  0.11134633506E+02  0.15350069312E+02  0.10500000000E+00 0. -1.
    3000001    1    5    5    0    0  0.14170242655E+02  0.79666578952E+01 -0.99296157730E+01  0.19075132616E+02  0.10000000000E+01 0. -1.
        -13    1    6    6    0    0  0.12913058034E+02  0.22355168816E+01 -0.12683463413E+02  0.18238033684E+02  0.10500000000E+00 0. -1.
         13    1    6    6    0    0  0.17824963534E+02  0.32401607131E+01 -0.17496788708E+02  0.25186833992E+02  0.10500000000E+00 0.  1.
</event>
<event>
11    0  0.3396091E-009  0.9118800E+02  0.7816531E-02  0.1126479E+00
         25   -1    0    0    0    0  0.00000000000E+00  0.00000000000E+00  0.99999998245E-14  0.12500000000E+03  0.12500000000E+03 0.  0.
    3000001    1    3    3    0    0  0.15679196879E+02  0.67154050727E+00 -0.60397188524E+01  0.16845366878E+02  0.10000000000E+01 0. -1.
    1000022    2    1    0    0    0  0.50626966346E+02  0.11812980105E+02 -0.33220662191E+02  0.62499988214E+02  0.99999954995E+01 0.  0.
    3000022    2    3    3    0    0  0.34947769467E+02  0.11141439598E+02 -0.27180943339E+02  0.45654621337E+02  0.25000315189E+00 0.  0.
    1000022    2    1    0    0    0 -0.50626966346E+02 -0.11812980105E+02  0.33220662191E+02  0.62500011786E+02  0.10000142823E+02 0.  0.
    3000022    2    5    5    0    0 -0.36154581513E+02 -0.47236352333E+01  0.19724077881E+02  0.41455617722E+02  0.24999658062E+00 0.  0.
        -13    1    4    4    0    0  0.19121758859E+02  0.60260585213E+01 -0.14861268385E+02  0.24956429355E+02  0.10500000000E+00 0.  1.
         13    1    4    4    0    0  0.15826010608E+02  0.51153810763E+01 -0.12319674954E+02  0.20698191981E+02  0.10500000000E+00 0. -1.
    3000001    1    5    5    0    0 -0.14472384833E+02 -0.70893448715E+01  0.13496584310E+02  0.21044394064E+02  0.10000000000E+01 0. -1.
        -13    1    6    6    0    0 -0.21486094732E+02 -0.28611227113E+01  0.11764469971E+02  0.24662766850E+02  0.10500000000E+00 0.  1.
         13    1    6    6    0    0 -0.14668486781E+02 -0.18625125220E+01  0.79596079100E+01  0.16792850873E+02  0.10500000000E+00 0. -1.
</event>
<event>
11    0  0.3396091E-009  0.9118800E+02  0.7816531E-02  0.1126479E+00
         25   -1    0    0    0    0  0.00000000000E+00  0.00000000000E+00  0.99999998245E-14  0.12500000000E+03  0.12500000000E+03 0.  0.
    3000001    1    3    3    0    0 -0.43100769180E+02  0.15944202467E+02  0.13083298514E+02  0.47791909317E+02  0.10000000000E+01 0.  1.
    1000022    2    1    0    0    0 -0.55167919512E+02  0.24349366658E+02  0.13032994418E+02  0.62500000018E+02  0.10000002945E+02 0.  0.
    3000022    2    3    3    0    0 -0.12067150332E+02  0.84051641907E+01 -0.50304095877E-01  0.14708090701E+02  0.24999871579E+00 0.  0.
    1000022    2    1    0    0    0  0.55167919512E+02 -0.24349366658E+02 -0.13032994418E+02  0.62499999982E+02  0.10000002715E+02 0.  0.
    3000022    2    5    5    0    0  0.49222396778E+02 -0.19477103935E+02 -0.87841899031E+01  0.53660287066E+02  0.24998707671E+00 0.  0.
        -13    1    4    4    0    0 -0.79557081614E+01  0.55933411805E+01  0.76991112862E-03  0.97257279164E+01  0.10500000000E+00 0.  1.
         13    1    4    4    0    0 -0.41114421711E+01  0.28118230102E+01 -0.51074007006E-01  0.49823627850E+01  0.10500000000E+00 0. -1.
    3000001    1    5    5    0    0  0.59455227344E+01 -0.48722627228E+01 -0.42488045147E+01  0.88397129155E+01  0.10000000000E+01 0. -1.
        -13    1    6    6    0    0  0.20912368714E+02 -0.83081949964E+01 -0.37922058431E+01  0.22819840479E+02  0.10500000000E+00 0.  1.
         13    1    6    6    0    0  0.28310028064E+02 -0.11168908938E+02 -0.49919840600E+01  0.30840446587E+02  0.10500000000E+00 0. -1.
</event>
<event>
11    0  0.3396091E-009  0.9118800E+02  0.7816531E-02  0.1126479E+00
         25   -1    0    0    0    0  0.00000000000E+00  0.00000000000E+00  0.99999998245E-14  0.12500000000E+03  0.12500000000E+03 0.  0.
    3000001    1    3    3    0    0 -0.16362576326E+02  0.57133453550E+01  0.12947630387E+02  0.21656808440E+02  0.10000000000E+01 0. -1.
    1000022    2    1    0    0    0 -0.42372379080E+02  0.28763272824E+02  0.34402114897E+02  0.62500001281E+02  0.10000013913E+02 0.  0.
    3000022    2    3    3    0    0 -0.26009802754E+02  0.23049927469E+02  0.21454484510E+02  0.40843192841E+02  0.25000043516E+00 0.  0.
    1000022    2    1    0    0    0  0.42372379080E+02 -0.28763272824E+02 -0.34402114897E+02  0.62499998719E+02  0.99999979030E+01 0.  0.
    3000022    2    5    5    0    0  0.28698822554E+02 -0.23515120679E+02 -0.28008617419E+02  0.46487938920E+02  0.24999754375E+00 0.  0.
        -13    1    4    4    0    0 -0.10471004841E+02  0.91952486695E+01  0.85976767901E+01  0.16374541571E+02  0.10500000000E+00 0. -1.
         13    1    4    4    0    0 -0.15538797913E+02  0.13854678799E+02  0.12856807720E+02  0.24468651270E+02  0.10500000000E+00 0.  1.
    3000001    1    5    5    0    0  0.13673556527E+02 -0.52481521444E+01 -0.63934974784E+01  0.16012059799E+02  0.10000000000E+01 0.  1.
        -13    1    6    6    0    0  0.19056288989E+02 -0.15545185083E+02 -0.18552988822E+02  0.30806157640E+02  0.10500000000E+00 0. -1.
         13    1    6    6    0    0  0.96425335645E+01 -0.79699355966E+01 -0.94556285963E+01  0.15681781280E+02  0.10500000000E+00 0.  1.
</event>
<event>
11    0  0.3396091E-009  0.9118800E+02  0.7816531E-02  0.1126479E+00
         25   -1    0    0    0    0  0.00000000000E+00  0.00000000000E+00  0.99999998245E-14  0.12500000000E+03  0.12500000000E+03 0.  0.
    3000001    1    3    3    0    0  0.12727974547E+02  0.46355093084E+02  0.13007006415E+01  0.48098729849E+02  0.10000000000E+01 0.  1.
    1000022    2    1    0    0    0  0.12850548467E+02  0.60298065224E+02 -0.22927149884E+01  0.62500001344E+02  0.10000018021E+02 0.  0.
    3000022    2    3    3    0    0  0.12257392066E+00  0.13942972140E+02 -0.35934156299E+01  0.14401271496E+02  0.24997671523E+00 0.  0.
    1000022    2    1    0    0    0 -0.12850548467E+02 -0.60298065224E+02  0.22927149884E+01  0.62499998656E+02  0.10000001215E+02 0.  0.
    3000022    2    5    5    0    0 -0.11355308570E+02 -0.58220802608E+02  0.36592059300E+01  0.59431112894E+02  0.25000546719E+00 0.  0.
        -13    1    4    4    0    0  0.73078268922E-02  0.41027349254E+01 -0.10229004488E+01  0.42296379987E+01  0.10500000000E+00 0. -1.
         13    1    4    4    0    0  0.11526609377E+00  0.98402372143E+01 -0.25705151811E+01  0.10171633497E+02  0.10500000000E+00 0.  1.
    3000001    1    5    5    0    0 -0.14952398970E+01 -0.20772626155E+01 -0.13664909416E+01  0.30688857614E+01  0.10000000000E+01 0. -1.
        -13    1    6    6    0    0 -0.47680441675E+01 -0.24737303287E+02  0.15880735157E+01  0.25242848919E+02  0.10500000000E+00 0. -1.
         13    1    6    6    0    0 -0.65872644028E+01 -0.33483499321E+02  0.20711324143E+01  0.34188263975E+02  0.10500000000E+00 0.  1.
</event>
<event>
11    0  0.3396091E-009  0.9118800E+02  0.7816531E-02  0.1126479E+00
         25   -1    0    0    0    0  0.00000000000E+00  0.00000000000E+00  0.99999998245E-14  0.12500000000E+03  0.12500000000E+03 0.  0.
    3000001    1    3    3    0    0  0.11296587941E+02  0.14299412938E+02 -0.18177130912E+02  0.25758381115E+02  0.10000000000E+01 0. -1.
    1000022    2    1    0    0    0  0.35879895558E+02  0.35061957832E+02 -0.35910198384E+02  0.62499998771E+02  0.99999853078E+01 0.  0.
    3000022    2    3    3    0    0  0.24583307617E+02  0.20762544894E+02 -0.17733067472E+02  0.36741617656E+02  0.25000430199E+00 0.  0.
    1000022    2    1    0    0    0 -0.35879895558E+02 -0.35061957832E+02  0.35910198384E+02  0.62500001229E+02  0.10000000672E+02 0.  0.
    3000022    2    5    5    0    0 -0.24502389387E+02 -0.29703697397E+02  0.26089854137E+02  0.46512576087E+02  0.25004124971E+00 0.  0.
        -13    1    4    4    0    0  0.16858487209E+02  0.14281606074E+02 -0.12134349406E+02  0.25207663984E+02  0.10500000000E+00 0.  1.
         13    1    4    4    0    0  0.77248204076E+01  0.64809388205E+01 -0.55987180659E+01  0.11533953672E+02  0.10500000000E+00 0. -1.
    3000001    1    5    5    0    0 -0.11377506170E+02 -0.53582604350E+01  0.98203442467E+01  0.15987425142E+02  0.10000000000E+01 0. -1.
        -13    1    6    6    0    0 -0.16494444527E+02 -0.19979698319E+02  0.17492493575E+02  0.31261052472E+02  0.10500000000E+00 0. -1.
         13    1    6    6    0    0 -0.80079448602E+01 -0.97239990779E+01  0.85973605621E+01  0.15251523615E+02  0.10500000000E+00 0.  1.
</event>
<event>
11    0  0.3396091E-009  0.9118800E+02  0.7816531E-02  0.1126479E+00
         25   -1    0    0    0    0  0.00000000000E+00  0.00000000000E+00  0.99999998245E-14  0.12500000000E+03  0.12500000000E+03 0.  0.
    3000001    1    3    3    0    0  0.29157222839E+02  0.21486834753E+02 -0.22493981166E+02  0.42647472377E+02  0.10000000000E+01 0.  1.
    1000022    2    1    0    0    0  0.46418745582E+02  0.29903932742E+02 -0.27519168058E+02  0.62499997088E+02  0.99999945250E+01 0.  0.
    3000022    2    3    3    0    0  0.17261522743E+02  0.84170979884E+01 -0.50251868921E+01  0.19852524711E+02  0.25005629756E+00 0.  0.
    1000022    2    1    0    0    0 -0.46418745582E+02 -0.29903932742E+02  0.27519168058E+02  0.62500002912E+02  0.10000030928E+02 0.  0.
    3000022    2    5    5    0    0 -0.14317311275E+02 -0.63245066243E+01  0.12067453255E+02  0.19765392689E+02  0.25006776495E+00 0.  0.
        -13    1    4    4    0    0  0.13307646548E+02  0.64843407987E+01 -0.38751445768E+01  0.15302545629E+02  0.10500000000E+00 0. -1.
         13    1    4    4    0    0  0.39538761944E+01  0.19327571896E+01 -0.11500423153E+01  0.45499790815E+01  0.10500000000E+00 0.  1.
    3000001    1    5    5    0    0 -0.32101434307E+02 -0.23579426117E+02  0.15451714803E+02  0.42734610223E+02  0.10000000000E+01 0.  1.
        -13    1    6    6    0    0 -0.10029402621E+02 -0.44527153083E+01  0.85111864818E+01  0.13887653181E+02  0.10500000000E+00 0. -1.
         13    1    6    6    0    0 -0.42879086548E+01 -0.18717913161E+01  0.35562667731E+01  0.58777395081E+01  0.10500000000E+00 0.  1.
</event>
<event>
11    0  0.3396091E-009  0.9118800E+02  0.7816531E-02  0.1126479E+00
         25   -1    0    0    0    0  0.00000000000E+00  0.00000000000E+00  0.99999998245E-14  0.12500000000E+03  0.12500000000E+03 0.  0.
    3000001    1    3    3    0    0 -0.69021675540E+00  0.24016539176E+01  0.45267388571E+01  0.52664699173E+01  0.10000000000E+01 0. -1.
    1000022    2    1    0    0    0  0.13572070800E+02  0.73531469453E+01  0.59732572726E+02  0.62499997936E+02  0.99999810863E+01 0.  0.
    3000022    2    3    3    0    0  0.14262287555E+02  0.49514930277E+01  0.55205833869E+02  0.57233528019E+02  0.25001357066E+00 0.  0.
    1000022    2    1    0    0    0 -0.13572070800E+02 -0.73531469453E+01 -0.59732572726E+02  0.62500002064E+02  0.10000006885E+02 0.  0.
    3000022    2    5    5    0    0  0.88265855107E+00 -0.18952911094E+01 -0.15360932736E+02  0.15504578602E+02  0.24997720667E+00 0.  0.
        -13    1    4    4    0    0  0.83581829447E+01  0.29073987433E+01  0.32600947052E+02  0.33780837220E+02  0.10500000000E+00 0. -1.
         13    1    4    4    0    0  0.59041046103E+01  0.20440942844E+01  0.22604886817E+02  0.23452690799E+02  0.10500000000E+00 0.  1.
    3000001    1    5    5    0    0 -0.14454729351E+02 -0.54578558359E+01 -0.44371639991E+02  0.46995423462E+02  0.10000000000E+01 0.  1.
        -13    1    6    6    0    0  0.38290595736E+00 -0.70146884370E+00 -0.61332507468E+01  0.61859894305E+01  0.10500000000E+00 0.  1.
         13    1    6    6    0    0  0.49975259371E+00 -0.11938222657E+01 -0.92276819889E+01  0.93185891714E+01  0.10500000000E+00 0. -1.
</event>
<event>
11    0  0.3396091E-009  0.9118800E+02  0.7816531E-02  0.1126479E+00
         25   -1    0    0    0    0  0.00000000000E+00  0.00000000000E+00  0.99999998245E-14  0.12500000000E+03  0.12500000000E+03 0.  0.
    3000001    1    3    3    0    0 -0.10917426025E+02  0.23526338301E+01 -0.60936755216E+02  0.61959770926E+02  0.10000000000E+01 0. -1.
    1000022    2    1    0    0    0 -0.10603668030E+02  0.26417985603E+01 -0.60719297062E+02  0.62500000850E+02  0.10000009758E+02 0.  0.
    3000022    2    3    3    0    0  0.31375799582E+00  0.28916473019E+00  0.21745815381E+00  0.54022992355E+00  0.25000000103E+00 0.  0.
    1000022    2    1    0    0    0  0.10603668030E+02 -0.26417985603E+01  0.60719297062E+02  0.62499999150E+02  0.99999991393E+01 0.  0.
    3000022    2    5    5    0    0  0.38801283045E+01  0.36817635940E+01  0.17796980810E+02  0.18585096701E+02  0.25002918279E+00 0.  0.
        -13    1    4    4    0    0  0.19720535236E+00  0.24094874364E+00  0.12289924714E+00  0.35082114105E+00  0.10500000000E+00 0. -1.
         13    1    4    4    0    0  0.11655264346E+00  0.48215986551E-01  0.94558906674E-01  0.18940878250E+00  0.10500000000E+00 0.  1.
    3000001    1    5    5    0    0  0.67235397251E+01 -0.63235621543E+01  0.42922316252E+02  0.43914902450E+02  0.10000000000E+01 0. -1.
        -13    1    6    6    0    0  0.29799446867E+01  0.28082616449E+01  0.13624136844E+02  0.14226543275E+02  0.10500000000E+00 0.  1.
         13    1    6    6    0    0  0.90018361775E+00  0.87350194910E+00  0.41728439661E+01  0.43585534258E+01  0.10500000000E+00 0. -1.
</event>
<event>
11    0  0.3396091E-009  0.9118800E+02  0.7816531E-02  0.1126479E+00
         25   -1    0    0    0    0  0.00000000000E+00  0.00000000000E+00  0.99999998245E-14  0.12500000000E+03  0.12500000000E+03 0.  0.
    3000001    1    3    3    0    0  0.10129453172E+02 -0.23338314963E+02  0.17637997387E+02  0.30973887691E+02  0.10000000000E+01 0. -1.
    1000022    2    1    0    0    0  0.25528476248E+02 -0.39617314276E+02  0.39812250478E+02  0.62499999575E+02  0.99999984388E+01 0.  0.
    3000022    2    3    3    0    0  0.15399023076E+02 -0.16278999313E+02  0.22174253091E+02  0.31526111884E+02  0.25000012614E+00 0.  0.
    1000022    2    1    0    0    0 -0.25528476248E+02  0.39617314276E+02 -0.39812250478E+02  0.62500000425E+02  0.10000003749E+02 0.  0.
    3000022    2    5    5    0    0 -0.51192689268E+01  0.66783478942E+01 -0.27125844382E+01  0.88446514831E+01  0.25000116389E+00 0.  0.
        -13    1    4    4    0    0  0.68257614262E+01 -0.72643218466E+01  0.99447661447E+01  0.14080866082E+02  0.10500000000E+00 0.  1.
         13    1    4    4    0    0  0.85732616496E+01 -0.90146774669E+01  0.12229486946E+02  0.17445245802E+02  0.10500000000E+00 0. -1.
    3000001    1    5    5    0    0 -0.20409207321E+02  0.32938966382E+02 -0.37099666040E+02  0.53655348942E+02  0.10000000000E+01 0.  1.
        -13    1    6    6    0    0 -0.23332193838E+01  0.30389478496E+01 -0.13054019320E+01  0.40489771461E+01  0.10500000000E+00 0.  1.
         13    1    6    6    0    0 -0.27860495430E+01  0.36394000446E+01 -0.14071825062E+01  0.47956743370E+01  0.10500000000E+00 0. -1.
</event>
<event>
11    0  0.3396091E-009  0.9118800E+02  0.7816531E-02  0.1126479E+00
         25   -1    0    0    0    0  0.00000000000E+00  0.00000000000E+00  0.99999998245E-14  0.12500000000E+03  0.12500000000E+03 0.  0.
    3000001    1    3    3    0    0  0.54898309996E+01 -0.72483356633E+01  0.39602576912E+02  0.40645303694E+02  0.10000000000E+01 0.  1.
    1000022    2    1    0    0    0  0.17583057187E+01 -0.13888222939E+02  0.60085570477E+02  0.62500003426E+02  0.10000013665E+02 0.  0.
    3000022    2    3    3    0    0 -0.37315252809E+01 -0.66398872754E+01  0.20482993565E+02  0.21854699732E+02  0.24998209103E+00 0.  0.
    1000022    2    1    0    0    0 -0.17583057187E+01  0.13888222939E+02 -0.60085570477E+02  0.62499996574E+02  0.99999708402E+01 0.  0.
    3000022    2    5    5    0    0 -0.31408178937E+01  0.15152577502E+01 -0.56046851353E+01  0.66057350162E+01  0.24999309505E+00 0.  0.
        -13    1    4    4    0    0 -0.20715754932E+01 -0.38126640366E+01  0.11605131974E+02  0.12390235882E+02  0.10500000000E+00 0.  1.
         13    1    4    4    0    0 -0.16599497877E+01 -0.28272232388E+01  0.88778615915E+01  0.94644638505E+01  0.10500000000E+00 0. -1.
    3000001    1    5    5    0    0  0.13825121750E+01  0.12372965189E+02 -0.54480885342E+02  0.55894261558E+02  0.10000000000E+01 0.  1.
        -13    1    6    6    0    0 -0.12150271798E+01  0.54125797572E+00 -0.22264932782E+01  0.25956788248E+01  0.10500000000E+00 0. -1.
         13    1    6    6    0    0 -0.19257907139E+01  0.97399977448E+00 -0.33781918571E+01  0.40100561913E+01  0.10500000000E+00 0.  1.
</event>
<event>
11    0  0.3396091E-009  0.9118800E+02  0.7816531E-02  0.1126479E+00
         25   -1    0    0    0    0  0.00000000000E+00  0.00000000000E+00  0.99999998245E-14  0.12500000000E+03  0.12500000000E+03 0.  0.
    3000001    1    3    3    0    0 -0.28176379059E+00 -0.73723898809E+01  0.46423846072E+01  0.87740103847E+01  0.10000000000E+01 0. -1.
    1000022    2    1    0    0    0  0.10604370306E+02 -0.38150044467E+02  0.47311431436E+02  0.62500000336E+02  0.99999967531E+01 0.  0.
    3000022    2    3    3    0    0  0.10886134096E+02 -0.30777654586E+02  0.42669046828E+02  0.53725989951E+02  0.25000317309E+00 0.  0.
    1000022    2    1    0    0    0 -0.10604370306E+02  0.38150044467E+02 -0.47311431436E+02  0.62499999664E+02  0.99999925580E+01 0.  0.
    3000022    2    5    5    0    0 -0.89755770834E+01  0.34370791071E+02 -0.45888812432E+02  0.58032386384E+02  0.25000041124E+00 0.  0.
        -13    1    4    4    0    0  0.73191671289E+01 -0.20624462188E+02  0.28681467618E+02  0.36077364895E+02  0.10500000000E+00 0. -1.
         13    1    4    4    0    0  0.35669669672E+01 -0.10153192398E+02  0.13987579210E+02  0.17648625056E+02  0.10500000000E+00 0.  1.
    3000001    1    5    5    0    0 -0.16287932222E+01  0.37792533961E+01 -0.14226190036E+01  0.44676132803E+01  0.10000000000E+01 0.  1.
        -13    1    6    6    0    0 -0.45016452902E+01  0.16980938821E+02 -0.22662206004E+02  0.28674094572E+02  0.10500000000E+00 0. -1.
         13    1    6    6    0    0 -0.44739317932E+01  0.17389852250E+02 -0.23226606428E+02  0.29358291812E+02  0.10500000000E+00 0.  1.
</event>
<event>
11    0  0.3396091E-009  0.9118800E+02  0.7816531E-02  0.1126479E+00
         25   -1    0    0    0    0  0.00000000000E+00  0.00000000000E+00  0.99999998245E-14  0.12500000000E+03  0.12500000000E+03 0.  0.
    3000001    1    3    3    0    0 -0.17924092997E+01  0.60287177346E+01  0.18302730859E+02  0.19379064103E+02  0.10000000000E+01 0.  1.
    1000022    2    1    0    0    0  0.73649178539E+01  0.25126981663E+02  0.55862714475E+02  0.62500000943E+02  0.10000001348E+02 0.  0.
    3000022    2    3    3    0    0  0.91573271536E+01  0.19098263928E+02  0.37559983616E+02  0.43120936840E+02  0.24999818422E+00 0.  0.
    1000022    2    1    0    0    0 -0.73649178539E+01 -0.25126981663E+02 -0.55862714475E+02  0.62499999057E+02  0.99999895568E+01 0.  0.
    3000022    2    5    5    0    0  0.19708720309E+01 -0.33668593017E+01 -0.12322257225E+02  0.12927513589E+02  0.25001270730E+00 0.  0.
        -13    1    4    4    0    0  0.23559164833E+01  0.49813031846E+01  0.97484475095E+01  0.11198525695E+02  0.10500000000E+00 0.  1.
         13    1    4    4    0    0  0.68014106703E+01  0.14116960743E+02  0.27811536106E+02  0.31922411145E+02  0.10500000000E+00 0. -1.
    3000001    1    5    5    0    0 -0.93357898849E+01 -0.21760122361E+02 -0.43540457250E+02  0.49572485468E+02  0.10000000000E+01 0.  1.
        -13    1    6    6    0    0  0.86346009539E+00 -0.14041949058E+01 -0.50297907814E+01  0.52940671487E+01  0.10500000000E+00 0.  1.
         13    1    6    6    0    0  0.11074119355E+01 -0.19626643959E+01 -0.72924664435E+01  0.76334464402E+01  0.10500000000E+00 0. -1.
</event>
<event>
11    0  0.3396091E-009  0.9118800E+02  0.7816531E-02  0.1126479E+00
         25   -1    0    0    0    0  0.00000000000E+00  0.00000000000E+00  0.99999998245E-14  0.12500000000E+03  0.12500000000E+03 0.  0.
    3000001    1    3    3    0    0  0.24876978008E+01 -0.23371623844E+01  0.40678133789E+01  0.54035242245E+01  0.10000000000E+01 0.  1.
    1000022    2    1    0    0    0  0.43538077305E+02 -0.37514176406E+02  0.22435964247E+02  0.62499999091E+02  0.99999893950E+01 0.  0.
    3000022    2    3    3    0    0  0.41050379504E+02 -0.35177014021E+02  0.18368150868E+02  0.57096474867E+02  0.25000600588E+00 0.  0.
    1000022    2    1    0    0    0 -0.43538077305E+02  0.37514176406E+02 -0.22435964247E+02  0.62500000909E+02  0.10000000754E+02 0.  0.
    3000022    2    5    5    0    0 -0.62805186468E+01  0.14104665853E+01 -0.23127571979E+01  0.68443902130E+01  0.25000214028E+00 0.  0.
        -13    1    4    4    0    0  0.95836551243E+01 -0.82181478580E+01  0.42769319183E+01  0.13329950165E+02  0.10500000000E+00 0.  1.
         13    1    4    4    0    0  0.31466724380E+02 -0.26958866163E+02  0.14091218949E+02  0.43766524702E+02  0.10500000000E+00 0. -1.
    3000001    1    5    5    0    0 -0.37257558658E+02  0.36103709821E+02 -0.20123207049E+02  0.55655610696E+02  0.10000000000E+01 0.  1.
        -13    1    6    6    0    0 -0.31603115716E+01  0.76949998777E+00 -0.11316683820E+01  0.34454894845E+01  0.10500000000E+00 0. -1.
         13    1    6    6    0    0 -0.31202070752E+01  0.64096659752E+00 -0.11810888159E+01  0.33989007285E+01  0.10500000000E+00 0.  1.
</event>
<event>
11    0  0.3396091E-009  0.9118800E+02  0.7816531E-02  0.1126479E+00
         25   -1    0    0    0    0  0.00000000000E+00  0.00000000000E+00  0.99999998245E-14  0.12500000000E+03  0.12500000000E+03 0.  0.
    3000001    1    3    3    0    0  0.24398742986E+02  0.72426556221E+01 -0.67762204494E+01  0.26356628831E+02  0.10000000000E+01 0.  1.
    1000022    2    1    0    0    0  0.52291771165E+02  0.20243397082E+02 -0.25729858796E+02  0.62499998850E+02  0.99999882816E+01 0.  0.
    3000022    2    3    3    0    0  0.27893028179E+02  0.13000741460E+02 -0.18953638347E+02  0.36143370020E+02  0.24998055184E+00 0.  0.
    1000022    2    1    0    0    0 -0.52291771165E+02 -0.20243397082E+02  0.25729858796E+02  0.62500001150E+02  0.10000002652E+02 0.  0.
    3000022    2    5    5    0    0 -0.37732661744E+02 -0.11148443663E+02  0.21307193003E+02  0.44744838026E+02  0.24999582073E+00 0.  0.
        -13    1    4    4    0    0  0.12888277828E+02  0.59366241656E+01 -0.87154092834E+01  0.16652945560E+02  0.10500000000E+00 0. -1.
         13    1    4    4    0    0  0.15004750352E+02  0.70641172942E+01 -0.10238229063E+02  0.19490424460E+02  0.10500000000E+00 0.  1.
    3000001    1    5    5    0    0 -0.14559109421E+02 -0.90949534193E+01  0.44226657933E+01  0.17755163124E+02  0.10000000000E+01 0. -1.
        -13    1    6    6    0    0 -0.20867084146E+02 -0.61709937620E+01  0.11708831348E+02  0.24710809807E+02  0.10500000000E+00 0. -1.
         13    1    6    6    0    0 -0.16865577598E+02 -0.49774499006E+01  0.95983616546E+01  0.20034028219E+02  0.10500000000E+00 0.  1.
</event>
<event>
11    0  0.3396091E-009  0.9118800E+02  0.7816531E-02  0.1126479E+00
         25   -1    0    0    0    0  0.00000000000E+00  0.00000000000E+00  0.99999998245E-14  0.12500000000E+03  0.12500000000E+03 0.  0.
    3000001    1    3    3    0    0 -0.23804747555E+01 -0.34863851359E+01  0.12414933146E+01  0.45125211387E+01  0.10000000000E+01 0.  1.
    1000022    2    1    0    0    0 -0.36190476461E+01 -0.61047389151E+02  0.81467079389E+01  0.62500000262E+02  0.99999977224E+01 0.  0.
    3000022    2    3    3    0    0 -0.12385728906E+01 -0.57561004016E+02  0.69052146243E+01  0.57987479123E+02  0.24999997689E+00 0.  0.
    1000022    2    1    0    0    0  0.36190476461E+01  0.61047389151E+02 -0.81467079389E+01  0.62499999738E+02  0.99999944464E+01 0.  0.
    3000022    2    5    5    0    0 -0.34585725936E+01  0.19623565008E+02 -0.23241643554E+01  0.20062658531E+02  0.24999875291E+00 0.  0.
        -13    1    4    4    0    0 -0.35046365427E+00 -0.14891109360E+02  0.17942442822E+01  0.15003276319E+02  0.10500000000E+00 0.  1.
         13    1    4    4    0    0 -0.88810923629E+00 -0.42669894655E+02  0.51109703421E+01  0.42984202805E+02  0.10500000000E+00 0. -1.
    3000001    1    5    5    0    0  0.70776202397E+01  0.41423824144E+02 -0.58225435835E+01  0.42437341207E+02  0.10000000000E+01 0. -1.
        -13    1    6    6    0    0 -0.16575399685E+01  0.90289077813E+01 -0.10865930970E+01  0.92444753247E+01  0.10500000000E+00 0. -1.
         13    1    6    6    0    0 -0.18010326251E+01  0.10594657226E+02 -0.12375712584E+01  0.10818183206E+02  0.10500000000E+00 0.  1.
</event>
<event>
11    0  0.3396091E-009  0.9118800E+02  0.7816531E-02  0.1126479E+00
         25   -1    0    0    0    0  0.00000000000E+00  0.00000000000E+00  0.99999998245E-14  0.12500000000E+03  0.12500000000E+03 0.  0.
    3000001    1    3    3    0    0 -0.72670279431E+01 -0.15809636937E+02 -0.34974673772E+02  0.39076618593E+02  0.10000000000E+01 0.  1.
    1000022    2    1    0    0    0 -0.68512461915E+01 -0.30599562867E+02 -0.53131696708E+02  0.62499999361E+02  0.99999951506E+01 0.  0.
    3000022    2    3    3    0    0  0.41578175157E+00 -0.14789925930E+02 -0.18157022936E+02  0.23423380768E+02  0.25000243525E+00 0.  0.
    1000022    2    1    0    0    0  0.68512461915E+01  0.30599562867E+02  0.53131696708E+02  0.62500000639E+02  0.10000003137E+02 0.  0.
    3000022    2    5    5    0    0  0.82359656525E+01  0.15404768160E+02  0.25317444140E+02  0.30759933214E+02  0.25000257003E+00 0.  0.
        -13    1    4    4    0    0  0.76863920329E-01 -0.41585300279E+01 -0.51018390223E+01  0.65832413342E+01  0.10500000000E+00 0. -1.
         13    1    4    4    0    0  0.33891783124E+00 -0.10631395902E+02 -0.13055183914E+02  0.16840139434E+02  0.10500000000E+00 0.  1.
    3000001    1    5    5    0    0 -0.13847194610E+01  0.15194794707E+02  0.27814252568E+02  0.31740067425E+02  0.10000000000E+01 0.  1.
        -13    1    6    6    0    0  0.40973299605E+01  0.77819840722E+01  0.12814347664E+02  0.15542391063E+02  0.10500000000E+00 0. -1.
         13    1    6    6    0    0  0.41386356919E+01  0.76227840879E+01  0.12503096476E+02  0.15217542151E+02  0.10500000000E+00 0.  1.
</event>
<event>
11    0  0.3396091E-009  0.9118800E+02  0.7816531E-02  0.1126479E+00
         25   -1    0    0    0    0  0.00000000000E+00  0.00000000000E+00  0.99999998245E-14  0.12500000000E+03  0.12500000000E+03 0.  0.
    3000001    1    3    3    0    0  0.32914642478E+02  0.18179292070E+02  0.14389895847E+02  0.40273185274E+02  0.10000000000E+01 0. -1.
    1000022    2    1    0    0    0  0.48995326041E+02  0.33230911215E+02  0.17361293550E+02  0.62500000770E+02  0.10000007423E+02 0.  0.
    3000022    2    3    3    0    0  0.16080683563E+02  0.15051619145E+02  0.29713977030E+01  0.22226815496E+02  0.25000009433E+00 0.  0.
    1000022    2    1    0    0    0 -0.48995326041E+02 -0.33230911215E+02 -0.17361293550E+02  0.62499999230E+02  0.99999978010E+01 0.  0.
    3000022    2    5    5    0    0 -0.47454575993E+02 -0.33297438098E+02 -0.17736090601E+02  0.60624150258E+02  0.25003623959E+00 0.  0.
        -13    1    4    4    0    0  0.61734445367E+01  0.57434603264E+01  0.10814494788E+01  0.85017240572E+01  0.10500000000E+00 0.  1.
         13    1    4    4    0    0  0.99072390267E+01  0.93081588182E+01  0.18899482243E+01  0.13725091439E+02  0.10500000000E+00 0. -1.
    3000001    1    5    5    0    0 -0.15407500481E+01  0.66526883480E-01  0.37479705117E+00  0.18758489722E+01  0.10000000000E+01 0.  1.
        -13    1    6    6    0    0 -0.33420482229E+02 -0.23395678892E+02 -0.12486178363E+02  0.42663826579E+02  0.10500000000E+00 0.  1.
         13    1    6    6    0    0 -0.14034093764E+02 -0.99017592058E+01 -0.52499122378E+01  0.17960323679E+02  0.10500000000E+00 0. -1.
</event>
<event>
11    0  0.3396091E-009  0.9118800E+02  0.7816531E-02  0.1126479E+00
         25   -1    0    0    0    0  0.00000000000E+00  0.00000000000E+00  0.99999998245E-14  0.12500000000E+03  0.12500000000E+03 0.  0.
    3000001    1    3    3    0    0 -0.43168405120E+02  0.14498012910E+02 -0.22388566618E+02  0.50753832310E+02  0.10000000000E+01 0. -1.
    1000022    2    1    0    0    0 -0.53376411771E+02  0.13107077471E+02 -0.28025225466E+02  0.62500002975E+02  0.10000014806E+02 0.  0.
    3000022    2    3    3    0    0 -0.10208006651E+02 -0.13909354399E+01 -0.56366588481E+01  0.11746170665E+02  0.25000228464E+00 0.  0.
    1000022    2    1    0    0    0  0.53376411771E+02 -0.13107077471E+02  0.28025225466E+02  0.62499997025E+02  0.99999776190E+01 0.  0.
    3000022    2    5    5    0    0  0.42832456586E+02 -0.14384477723E+02  0.23186298371E+02  0.50785819386E+02  0.24996393676E+00 0.  0.
        -13    1    4    4    0    0 -0.36762440921E+01 -0.48109400113E+00 -0.19666465458E+01  0.41982074387E+01  0.10500000000E+00 0.  1.
         13    1    4    4    0    0 -0.65317625589E+01 -0.90984143876E+00 -0.36700123022E+01  0.75479632264E+01  0.10500000000E+00 0. -1.
    3000001    1    5    5    0    0  0.10543955184E+02  0.12774002520E+01  0.48389270952E+01  0.11714177639E+02  0.10000000000E+01 0. -1.
        -13    1    6    6    0    0  0.32577604140E+02 -0.10932212782E+02  0.17614329789E+02  0.38614624260E+02  0.10500000000E+00 0.  1.
         13    1    6    6    0    0  0.10254852446E+02 -0.34522649407E+01  0.55719685811E+01  0.12171195126E+02  0.10500000000E+00 0. -1.
</event>
<event>
11    0  0.3396091E-009  0.9118800E+02  0.7816531E-02  0.1126479E+00
         25   -1    0    0    0    0  0.00000000000E+00  0.00000000000E+00  0.99999998245E-14  0.12500000000E+03  0.12500000000E+03 0.  0.
    3000001    1    3    3    0    0  0.15230236758E+02  0.43405199415E+02 -0.96608088939E+01  0.47013856217E+02  0.10000000000E+01 0. -1.
    1000022    2    1    0    0    0  0.14735161431E+02  0.58207348922E+02 -0.14178490284E+02  0.62500000737E+02  0.10000002728E+02 0.  0.
    3000022    2    3    3    0    0 -0.49507532663E+00  0.14802149507E+02 -0.45176813901E+01  0.15486144520E+02  0.24999471248E+00 0.  0.
    1000022    2    1    0    0    0 -0.14735161431E+02 -0.58207348922E+02  0.14178490284E+02  0.62499999263E+02  0.99999935110E+01 0.  0.
    3000022    2    5    5    0    0 -0.14168280894E+02 -0.37020078098E+02  0.86281059472E+01  0.40567635851E+02  0.25000100775E+00 0.  0.
        -13    1    4    4    0    0 -0.36257497092E+00  0.10424774789E+02 -0.32259000935E+01  0.10919013070E+02  0.10500000000E+00 0.  1.
         13    1    4    4    0    0 -0.13250035571E+00  0.43773747176E+01 -0.12917812966E+01  0.45671314499E+01  0.10500000000E+00 0. -1.
    3000001    1    5    5    0    0 -0.56688053711E+00 -0.21187270824E+02  0.55503843368E+01  0.21932363411E+02  0.10000000000E+01 0. -1.
        -13    1    6    6    0    0 -0.81022685191E+01 -0.20996359879E+02  0.49203510446E+01  0.23037247290E+02  0.10500000000E+00 0. -1.
         13    1    6    6    0    0 -0.60660123747E+01 -0.16023718219E+02  0.37077549025E+01  0.17530388561E+02  0.10500000000E+00 0.  1.
</event>
<event>
11    0  0.3396091E-009  0.9118800E+02  0.7816531E-02  0.1126479E+00
         25   -1    0    0    0    0  0.00000000000E+00  0.00000000000E+00  0.99999998245E-14  0.12500000000E+03  0.12500000000E+03 0.  0.
    3000001    1    3    3    0    0 -0.13793855458E+02  0.45007784977E+02  0.24071949296E+02  0.52881281185E+02  0.10000000000E+01 0.  1.
    1000022    2    1    0    0    0 -0.18932407012E+02  0.53064771974E+02  0.25138491460E+02  0.62499999449E+02  0.10000005917E+02 0.  0.
    3000022    2    3    3    0    0 -0.51385515549E+01  0.80569869976E+01  0.10665421641E+01  0.96187182642E+01  0.24995459067E+00 0.  0.
    1000022    2    1    0    0    0  0.18932407012E+02 -0.53064771974E+02 -0.25138491460E+02  0.62500000551E+02  0.10000012799E+02 0.  0.
    3000022    2    5    5    0    0  0.96426639022E+01 -0.16691244283E+02 -0.51341463776E+01  0.19949951597E+02  0.25001372317E+00 0.  0.
        -13    1    4    4    0    0 -0.30717156853E+01  0.49022365537E+01  0.68784557638E+00  0.58267930302E+01  0.10500000000E+00 0. -1.
         13    1    4    4    0    0 -0.20668358696E+01  0.31547504439E+01  0.37869658774E+00  0.37919252341E+01  0.10500000000E+00 0.  1.
    3000001    1    5    5    0    0  0.92897431102E+01 -0.36373527691E+02 -0.20004345082E+02  0.42550048953E+02  0.10000000000E+01 0. -1.
        -13    1    6    6    0    0  0.63022486792E+01 -0.10856424397E+02 -0.33948343850E+01  0.13004469024E+02  0.10500000000E+00 0.  1.
         13    1    6    6    0    0  0.33404152230E+01 -0.58348198859E+01 -0.17393119927E+01  0.69454825729E+01  0.10500000000E+00 0. -1.
</event>
<event>
11    0  0.3396091E-009  0.9118800E+02  0.7816531E-02  0.1126479E+00
         25   -1    0    0    0    0  0.00000000000E+00  0.00000000000E+00  0.99999998245E-14  0.12500000000E+03  0.12500000000E+03 0.  0.
    3000001    1    3    3    0    0 -0.51676335642E+02  0.28317037948E+02 -0.56343294774E+01  0.59203411829E+02  0.10000000000E+01 0. -1.
    1000022    2    1    0    0    0 -0.54619554098E+02  0.27817485730E+02 -0.70101570397E+01  0.62499999380E+02  0.99999709257E+01 0.  0.
    3000022    2    3    3    0    0 -0.29432184560E+01 -0.49955221813E+00 -0.13758275623E+01  0.32965875504E+01  0.25000139648E+00 0.  0.
    1000022    2    1    0    0    0  0.54619554098E+02 -0.27817485730E+02  0.70101570397E+01  0.62500000620E+02  0.99999786803E+01 0.  0.
    3000022    2    5    5    0    0  0.38528736385E+01 -0.40047736236E+01 -0.15326039709E+01  0.57701154765E+01  0.25002125871E+00 0.  0.
        -13    1    4    4    0    0 -0.15605127586E+01 -0.32851402088E+00 -0.76082494031E+00  0.17700285652E+01  0.10500000000E+00 0.  1.
         13    1    4    4    0    0 -0.13827056973E+01 -0.17103819724E+00 -0.61500262199E+00  0.15265589852E+01  0.10500000000E+00 0. -1.
    3000001    1    5    5    0    0  0.50766680460E+02 -0.23812712106E+02  0.85427610106E+01  0.56729885144E+02  0.10000000000E+01 0. -1.
        -13    1    6    6    0    0  0.23449763875E+01 -0.24460513961E+01 -0.87009255815E+00  0.35000239642E+01  0.10500000000E+00 0.  1.
         13    1    6    6    0    0  0.15078972510E+01 -0.15587222275E+01 -0.66251141272E+00  0.22700915122E+01  0.10500000000E+00 0. -1.
</event>
<event>
11    0  0.3396091E-009  0.9118800E+02  0.7816531E-02  0.1126479E+00
         25   -1    0    0    0    0  0.00000000000E+00  0.00000000000E+00  0.99999998245E-14  0.12500000000E+03  0.12500000000E+03 0.  0.
    3000001    1    3    3    0    0 -0.44239521806E+01  0.61759801317E+00 -0.62318477391E+01  0.77323157233E+01  0.10000000000E+01 0.  1.
    1000022    2    1    0    0    0 -0.27247072598E+02 -0.18997066407E+02 -0.51989983787E+02  0.62500001440E+02  0.10000013432E+02 0.  0.
    3000022    2    3    3    0    0 -0.22823120417E+02 -0.19614664420E+02 -0.45758136048E+02  0.54767685717E+02  0.24999662916E+00 0.  0.
    1000022    2    1    0    0    0  0.27247072598E+02  0.18997066407E+02  0.51989983787E+02  0.62499998560E+02  0.99999954267E+01 0.  0.
    3000022    2    5    5    0    0  0.17532572367E+01  0.12494518733E+00  0.83774600281E+01  0.85635191637E+01  0.25000341087E+00 0.  0.
        -13    1    4    4    0    0 -0.74310306773E+01 -0.64022498934E+01 -0.14822667878E+02  0.17774462823E+02  0.10500000000E+00 0. -1.
         13    1    4    4    0    0 -0.15392089740E+02 -0.13212414526E+02 -0.30935468170E+02  0.36993222894E+02  0.10500000000E+00 0.  1.
    3000001    1    5    5    0    0  0.25493815361E+02  0.18872121219E+02  0.43612523759E+02  0.53936479396E+02  0.10000000000E+01 0.  1.
        -13    1    6    6    0    0  0.96421357770E+00  0.23052271356E-01  0.43482506951E+01  0.44551709662E+01  0.10500000000E+00 0.  1.
         13    1    6    6    0    0  0.78904365900E+00  0.10189291597E+00  0.40292093330E+01  0.41083481974E+01  0.10500000000E+00 0. -1.
</event>
<event>
11    0  0.3396091E-009  0.9118800E+02  0.7816531E-02  0.1126479E+00
         25   -1    0    0    0    0  0.00000000000E+00  0.00000000000E+00  0.99999998245E-14  0.12500000000E+03  0.12500000000E+03 0.  0.
    3000001    1    3    3    0    0 -0.33291944839E+02  0.33619171682E+01 -0.15412522422E+02  0.36853791198E+02  0.10000000000E+01 0. -1.
    1000022    2    1    0    0    0 -0.57909626933E+02 -0.81189487719E+00 -0.21261840753E+02  0.62499999582E+02  0.10000000532E+02 0.  0.
    3000022    2    3    3    0    0 -0.24617682094E+02 -0.41738120454E+01 -0.58493183306E+01  0.25646208384E+02  0.25000172163E+00 0.  0.
    1000022    2    1    0    0    0  0.57909626933E+02  0.81189487719E+00  0.21261840753E+02  0.62500000418E+02  0.10000005762E+02 0.  0.
    3000022    2    5    5    0    0  0.99646055012E+01 -0.18771502571E+01  0.72483197359E+01  0.12466663380E+02  0.25000192805E+00 0.  0.
        -13    1    4    4    0    0 -0.15514977526E+02 -0.25847323526E+01 -0.37244975969E+01  0.16164104563E+02  0.10500000000E+00 0.  1.
         13    1    4    4    0    0 -0.91027045682E+01 -0.15890796927E+01 -0.21248207338E+01  0.94821038212E+01  0.10500000000E+00 0. -1.
    3000001    1    5    5    0    0  0.47945021432E+02  0.26890451343E+01  0.14013521017E+02  0.50033337038E+02  0.10000000000E+01 0. -1.
        -13    1    6    6    0    0  0.46801434050E+01 -0.94897249867E+00  0.33973372646E+01  0.58615029288E+01  0.10500000000E+00 0. -1.
         13    1    6    6    0    0  0.52844620962E+01 -0.92817775843E+00  0.38509824713E+01  0.66051604516E+01  0.10500000000E+00 0.  1.
</event>
<event>
11    0  0.3396091E-009  0.9118800E+02  0.7816531E-02  0.1126479E+00
         25   -1    0    0    0    0  0.00000000000E+00  0.00000000000E+00  0.99999998245E-14  0.12500000000E+03  0.12500000000E+03 0.  0.
    3000001    1    3    3    0    0 -0.27990303519E+02 -0.93012933824E+01 -0.10501389108E+02  0.31324915369E+02  0.10000000000E+01 0.  1.
    1000022    2    1    0    0    0 -0.51333468188E+02 -0.17147348478E+02 -0.29615778645E+02  0.62500006549E+02  0.99999978924E+01 0.  0.
    3000022    2    3    3    0    0 -0.23343164669E+02 -0.78460550956E+01 -0.19114389538E+02  0.31175091181E+02  0.25001077497E+00 0.  0.
    1000022    2    1    0    0    0  0.51333468188E+02  0.17147348478E+02  0.29615778645E+02  0.62499993451E+02  0.99999160251E+01 0.  0.
    3000022    2    5    5    0    0 -0.18226394696E+00  0.29076520545E+00  0.12388595962E+01  0.13095972126E+01  0.25001441798E+00 0.  0.
        -13    1    4    4    0    0 -0.12192403739E+02 -0.40452807590E+01 -0.99130161358E+01  0.16226457385E+02  0.10500000000E+00 0. -1.
         13    1    4    4    0    0 -0.11150760930E+02 -0.38007743366E+01 -0.92013734017E+01  0.14948633796E+02  0.10500000000E+00 0.  1.
    3000001    1    5    5    0    0  0.51515732135E+02  0.16856583273E+02  0.28376919049E+02  0.61190396238E+02  0.10000000000E+01 0. -1.
        -13    1    6    6    0    0 -0.17356529161E+00  0.18002716746E+00  0.82283585897E+00  0.86638244574E+00  0.10500000000E+00 0.  1.
         13    1    6    6    0    0 -0.86986553493E-02  0.11073803799E+00  0.41602373723E+00  0.44321476691E+00  0.10500000000E+00 0.  1.
</event>
<event>
11    0  0.3396091E-009  0.9118800E+02  0.7816531E-02  0.1126479E+00
         25   -1    0    0    0    0  0.00000000000E+00  0.00000000000E+00  0.99999998245E-14  0.12500000000E+03  0.12500000000E+03 0.  0.
    3000001    1    3    3    0    0 -0.45171274159E+02 -0.34232948595E+02  0.51028174976E+01  0.56915529736E+02  0.10000000000E+01 0.  1.
    1000022    2    1    0    0    0 -0.50598776362E+02 -0.35058740786E+02  0.41107958369E+01  0.62500000391E+02  0.99999965801E+01 0.  0.
    3000022    2    3    3    0    0 -0.54275022025E+01 -0.82579219110E+00 -0.99202166068E+00  0.55844706550E+01  0.24998523900E+00 0.  0.
    1000022    2    1    0    0    0  0.50598776362E+02  0.35058740786E+02 -0.41107958369E+01  0.62499999609E+02  0.99999916942E+01 0.  0.
    3000022    2    5    5    0    0  0.25782249726E+02  0.23734493926E+02 -0.14554199733E+01  0.35074653992E+02  0.25000502861E+00 0.  0.
        -13    1    4    4    0    0 -0.23922354656E+01 -0.40021080606E+00 -0.49495850943E+00  0.24776941172E+01  0.10500000000E+00 0. -1.
         13    1    4    4    0    0 -0.30352667369E+01 -0.42558138504E+00 -0.49706315124E+00  0.31067765378E+01  0.10500000000E+00 0.  1.
    3000001    1    5    5    0    0  0.24816526636E+02  0.11324246860E+02 -0.26553758636E+01  0.27425345617E+02  0.10000000000E+01 0. -1.
        -13    1    6    6    0    0  0.18513605306E+02  0.17020088777E+02 -0.10076307063E+01  0.25168697782E+02  0.10500000000E+00 0. -1.
         13    1    6    6    0    0  0.72686444199E+01  0.67144051493E+01 -0.44778926701E+00  0.99059562103E+01  0.10500000000E+00 0.  1.
</event>
<event>
11    0  0.3396091E-009  0.9118800E+02  0.7816531E-02  0.1126479E+00
         25   -1    0    0    0    0  0.00000000000E+00  0.00000000000E+00  0.99999998245E-14  0.12500000000E+03  0.12500000000E+03 0.  0.
    3000001    1    3    3    0    0  0.24425377907E+01  0.30746633767E+02 -0.44918136425E+02  0.54497343593E+02  0.10000000000E+01 0.  1.
    1000022    2    1    0    0    0  0.61003856654E+01  0.33374811746E+02 -0.51528204838E+02  0.62500010300E+02  0.10000131468E+02 0.  0.
    3000022    2    3    3    0    0  0.36578478747E+01  0.26281779791E+01 -0.66100684132E+01  0.80026667070E+01  0.24999886418E+00 0.  0.
    1000022    2    1    0    0    0 -0.61003856654E+01 -0.33374811746E+02  0.51528204838E+02  0.62499989700E+02  0.10000002715E+02 0.  0.
    3000022    2    5    5    0    0 -0.85593230526E+01 -0.21900840916E+02  0.32333442117E+02  0.39980280652E+02  0.25003586487E+00 0.  0.
        -13    1    4    4    0    0  0.15184387729E+01  0.11174127220E+01 -0.26599333359E+01  0.32619837292E+01  0.10500000000E+00 0.  1.
         13    1    4    4    0    0  0.21394091017E+01  0.15107652571E+01 -0.39501350773E+01  0.47406829777E+01  0.10500000000E+00 0. -1.
    3000001    1    5    5    0    0  0.24589373872E+01 -0.11473970830E+02  0.19194762721E+02  0.22519709048E+02  0.10000000000E+01 0. -1.
        -13    1    6    6    0    0 -0.22594269888E+01 -0.58089493808E+01  0.86266718388E+01  0.10643279346E+02  0.10500000000E+00 0. -1.
         13    1    6    6    0    0 -0.62998960637E+01 -0.16091891535E+02  0.23706770278E+02  0.29337001306E+02  0.10500000000E+00 0.  1.
</event>
<event>
11    0  0.3396091E-009  0.9118800E+02  0.7816531E-02  0.1126479E+00
         25   -1    0    0    0    0  0.00000000000E+00  0.00000000000E+00  0.99999998245E-14  0.12500000000E+03  0.12500000000E+03 0.  0.
    3000001    1    3    3    0    0  0.18229610898E+01 -0.19711065522E+02  0.48703370353E+00  0.19826408978E+02  0.10000000000E+01 0.  1.
    1000022    2    1    0    0    0  0.17069535684E+02 -0.58486868721E+02  0.97039577900E+01  0.62499997224E+02  0.99999997475E+01 0.  0.
    3000022    2    3    3    0    0  0.15246574594E+02 -0.38775803200E+02  0.92169240865E+01  0.42673588246E+02  0.24998712293E+00 0.  0.
    1000022    2    1    0    0    0 -0.17069535684E+02  0.58486868721E+02 -0.97039577900E+01  0.62500002776E+02  0.10000034442E+02 0.  0.
    3000022    2    5    5    0    0 -0.12193253025E+02  0.37889837423E+02 -0.10920507859E+02  0.41275115852E+02  0.24999471594E+00 0.  0.
        -13    1    4    4    0    0  0.58980742962E+01 -0.15000649231E+02  0.35025260716E+01  0.16495013538E+02  0.10500000000E+00 0. -1.
         13    1    4    4    0    0  0.93485002981E+01 -0.23775153969E+02  0.57143980149E+01  0.26178574708E+02  0.10500000000E+00 0.  1.
    3000001    1    5    5    0    0 -0.48762826588E+01  0.20597031298E+02  0.12165500691E+01  0.21224886924E+02  0.10000000000E+01 0. -1.
        -13    1    6    6    0    0 -0.78319306760E+01  0.24333578792E+02 -0.70732710903E+01  0.26523657060E+02  0.10500000000E+00 0. -1.
         13    1    6    6    0    0 -0.43613223493E+01  0.13556258632E+02 -0.38472367689E+01  0.14751458792E+02  0.10500000000E+00 0.  1.
</event>
<event>
11    0  0.3396091E-009  0.9118800E+02  0.7816531E-02  0.1126479E+00
         25   -1    0    0    0    0  0.00000000000E+00  0.00000000000E+00  0.99999998245E-14  0.12500000000E+03  0.12500000000E+03 0.  0.
    3000001    1    3    3    0    0 -0.35085216189E+01 -0.23627802410E+02  0.17392511221E+01  0.23970977559E+02  0.10000000000E+01 0.  1.
    1000022    2    1    0    0    0 -0.13050712515E+02 -0.59865143690E+02 -0.72175799129E+01  0.62500000805E+02  0.10000005733E+02 0.  0.
    3000022    2    3    3    0    0 -0.95421908964E+01 -0.36237341280E+02 -0.89568310350E+01  0.38529023246E+02  0.24999991449E+00 0.  0.
    1000022    2    1    0    0    0  0.13050712515E+02  0.59865143690E+02  0.72175799129E+01  0.62499999195E+02  0.99999956666E+01 0.  0.
    3000022    2    5    5    0    0  0.10636590976E+02  0.30154350807E+02  0.66964420961E+01  0.32669967663E+02  0.25002036928E+00 0.  0.
        -13    1    4    4    0    0 -0.69944251750E+01 -0.26560399972E+02 -0.66006378792E+01  0.28248119860E+02  0.10500000000E+00 0. -1.
         13    1    4    4    0    0 -0.25477657214E+01 -0.96769413078E+01 -0.23561931558E+01  0.10280903386E+02  0.10500000000E+00 0.  1.
    3000001    1    5    5    0    0  0.24141215397E+01  0.29710792883E+02  0.52113781688E+00  0.29830031531E+02  0.10000000000E+01 0.  1.
        -13    1    6    6    0    0  0.48427827431E+01  0.13862813042E+02  0.30239808485E+01  0.14992852140E+02  0.10500000000E+00 0. -1.
         13    1    6    6    0    0  0.57938082325E+01  0.16291537766E+02  0.36724612475E+01  0.17677115523E+02  0.10500000000E+00 0.  1.
</event>
<event>
11    0  0.3396091E-009  0.9118800E+02  0.7816531E-02  0.1126479E+00
         25   -1    0    0    0    0  0.00000000000E+00  0.00000000000E+00  0.99999998245E-14  0.12500000000E+03  0.12500000000E+03 0.  0.
    3000001    1    3    3    0    0  0.10524830583E+02  0.22711215084E+02 -0.14858876785E+02  0.29126578390E+02  0.10000000000E+01 0.  1.
    1000022    2    1    0    0    0  0.16014513282E+02  0.53898483000E+02 -0.25391709082E+02  0.62500001255E+02  0.10000008075E+02 0.  0.
    3000022    2    3    3    0    0  0.54896826984E+01  0.31187267915E+02 -0.10532832297E+02  0.33373422865E+02  0.25000276766E+00 0.  0.
    1000022    2    1    0    0    0 -0.16014513282E+02 -0.53898483000E+02  0.25391709082E+02  0.62499998745E+02  0.99999923831E+01 0.  0.
    3000022    2    5    5    0    0 -0.16191725415E+02 -0.45580390101E+02  0.19035681686E+02  0.51982339410E+02  0.24999930998E+00 0.  0.
        -13    1    4    4    0    0  0.32918839393E+01  0.18535026846E+02 -0.62017227161E+01  0.19820598116E+02  0.10500000000E+00 0.  1.
         13    1    4    4    0    0  0.21977987590E+01  0.12652241069E+02 -0.43311095814E+01  0.13552824749E+02  0.10500000000E+00 0. -1.
    3000001    1    5    5    0    0  0.17721213356E+00 -0.83180928990E+01  0.63560273961E+01  0.10517659335E+02  0.10000000000E+01 0.  1.
        -13    1    6    6    0    0 -0.10035109598E+02 -0.28202153166E+02  0.11716883855E+02  0.32145936915E+02  0.10500000000E+00 0.  1.
         13    1    6    6    0    0 -0.61566158172E+01 -0.17378236934E+02  0.73187978311E+01  0.19836402495E+02  0.10500000000E+00 0. -1.
</event>
<event>
11    0  0.3396091E-009  0.9118800E+02  0.7816531E-02  0.1126479E+00
         25   -1    0    0    0    0  0.00000000000E+00  0.00000000000E+00  0.99999998245E-14  0.12500000000E+03  0.12500000000E+03 0.  0.
    3000001    1    3    3    0    0 -0.23523486123E+02  0.22902977783E+02  0.45802056867E+00  0.32849818471E+02  0.10000000000E+01 0. -1.
    1000022    2    1    0    0    0 -0.43853492488E+02  0.42567433587E+02 -0.84341541729E+01  0.62499999813E+02  0.99999907172E+01 0.  0.
    3000022    2    3    3    0    0 -0.20330006365E+02  0.19664455804E+02 -0.88921747416E+01  0.29650181342E+02  0.25000218807E+00 0.  0.
    1000022    2    1    0    0    0  0.43853492488E+02 -0.42567433587E+02  0.84341541729E+01  0.62500000187E+02  0.99999930603E+01 0.  0.
    3000022    2    5    5    0    0  0.29892212627E+02 -0.23864526012E+02  0.82908613152E+01  0.39138993789E+02  0.24995181399E+00 0.  0.
        -13    1    4    4    0    0 -0.13011788402E+02  0.12648872874E+02 -0.56672324477E+01  0.19011290620E+02  0.10500000000E+00 0. -1.
         13    1    4    4    0    0 -0.73182179626E+01  0.70155829303E+01 -0.32249422938E+01  0.10638890722E+02  0.10500000000E+00 0.  1.
    3000001    1    5    5    0    0  0.13961279861E+02 -0.18702907575E+02  0.14329285766E+00  0.23361006399E+02  0.10000000000E+01 0.  1.
        -13    1    6    6    0    0  0.11962008710E+02 -0.95948078055E+01  0.32702267059E+01  0.15679776686E+02  0.10500000000E+00 0.  1.
         13    1    6    6    0    0  0.17930203917E+02 -0.14269718206E+02  0.50206346093E+01  0.23459217103E+02  0.10500000000E+00 0. -1.
</event>
<event>
11    0  0.3396091E-009  0.9118800E+02  0.7816531E-02  0.1126479E+00
         25   -1    0    0    0    0  0.00000000000E+00  0.00000000000E+00  0.99999998245E-14  0.12500000000E+03  0.12500000000E+03 0.  0.
    3000001    1    3    3    0    0  0.42910080213E+02 -0.35844796506E+02 -0.23298173570E+02  0.60579941500E+02  0.10000000000E+01 0.  1.
    1000022    2    1    0    0    0  0.42939016976E+02 -0.36517775902E+02 -0.25078732966E+02  0.62500001230E+02  0.10000008545E+02 0.  0.
    3000022    2    3    3    0    0  0.28936763171E-01 -0.67297939598E+00 -0.17805593967E+01  0.19200597306E+01  0.24999800000E+00 0.  0.
    1000022    2    1    0    0    0 -0.42939016976E+02  0.36517775902E+02  0.25078732966E+02  0.62499998770E+02  0.99999931682E+01 0.  0.
    3000022    2    5    5    0    0 -0.24530518209E+02  0.14431704089E+02  0.11719506155E+02  0.30780346565E+02  0.25000729279E+00 0.  0.
        -13    1    4    4    0    0 -0.14434979695E-01 -0.26369423721E+00 -0.56550918852E+00  0.63290493889E+00  0.10500000000E+00 0. -1.
         13    1    4    4    0    0  0.43371742866E-01 -0.40928515878E+00 -0.12150502082E+01  0.12871547917E+01  0.10500000000E+00 0.  1.
    3000001    1    5    5    0    0 -0.18408498766E+02  0.22086071813E+02  0.13359226811E+02  0.31719652204E+02  0.10000000000E+01 0.  1.
        -13    1    6    6    0    0 -0.14629680152E+02  0.86252800069E+01  0.69267588733E+01  0.18341592353E+02  0.10500000000E+00 0.  1.
         13    1    6    6    0    0 -0.99008380577E+01  0.58064240818E+01  0.47927472816E+01  0.12438754213E+02  0.10500000000E+00 0. -1.
</event>
<event>
11    0  0.3396091E-009  0.9118800E+02  0.7816531E-02  0.1126479E+00
         25   -1    0    0    0    0  0.00000000000E+00  0.00000000000E+00  0.99999998245E-14  0.12500000000E+03  0.12500000000E+03 0.  0.
    3000001    1    3    3    0    0 -0.26060516612E-01 -0.22226633255E+02 -0.34733775541E+01  0.22518620221E+02  0.10000000000E+01 0.  1.
    1000022    2    1    0    0    0 -0.34365756697E+01 -0.61523355872E+02  0.30522865423E+01  0.62500001050E+02  0.10000015404E+02 0.  0.
    3000022    2    3    3    0    0 -0.34105151531E+01 -0.39296722617E+02  0.65256640964E+01  0.39981380830E+02  0.24999825093E+00 0.  0.
    1000022    2    1    0    0    0  0.34365756697E+01  0.61523355872E+02 -0.30522865423E+01  0.62499998950E+02  0.10000002274E+02 0.  0.
    3000022    2    5    5    0    0  0.65545172907E+01  0.42295277534E+02 -0.38888748771E+01  0.42977180594E+02  0.25001072762E+00 0.  0.
        -13    1    4    4    0    0 -0.18317218340E+01 -0.21834523056E+02  0.36038299168E+01  0.22205859970E+02  0.10500000000E+00 0.  1.
         13    1    4    4    0    0 -0.15787933190E+01 -0.17462199561E+02  0.29218341796E+01  0.17775520859E+02  0.10500000000E+00 0. -1.
    3000001    1    5    5    0    0 -0.31179416210E+01  0.19228078338E+02  0.83658833482E+00  0.19522818356E+02  0.10000000000E+01 0.  1.
        -13    1    6    6    0    0  0.36288471836E+01  0.23335680779E+02 -0.20800868807E+01  0.23707811281E+02  0.10500000000E+00 0. -1.
         13    1    6    6    0    0  0.29256701071E+01  0.18959596756E+02 -0.18087879964E+01  0.19269369313E+02  0.10500000000E+00 0.  1.
</event>
<event>
11    0  0.3396091E-009  0.9118800E+02  0.7816531E-02  0.1126479E+00
         25   -1    0    0    0    0  0.00000000000E+00  0.00000000000E+00  0.99999998245E-14  0.12500000000E+03  0.12500000000E+03 0.  0.
    3000001    1    3    3    0    0  0.10226916967E+02  0.12216652759E+02  0.90422014975E+01  0.18346603043E+02  0.10000000000E+01 0.  1.
    1000022    2    1    0    0    0  0.27850501242E+02  0.34908448461E+02  0.42567586906E+02  0.62499997939E+02  0.10000004698E+02 0.  0.
    3000022    2    3    3    0    0  0.17623584274E+02  0.22691795703E+02  0.33525385408E+02  0.44153394896E+02  0.24999836294E+00 0.  0.
    1000022    2    1    0    0    0 -0.27850501242E+02 -0.34908448461E+02 -0.42567586906E+02  0.62500002061E+02  0.10000030465E+02 0.  0.
    3000022    2    5    5    0    0 -0.19392595579E+01 -0.26109402434E+01 -0.22743281309E+00  0.32698566009E+01  0.24999983621E+00 0.  0.
        -13    1    4    4    0    0  0.56079434291E+01  0.71413214303E+01  0.10578861345E+02  0.13941694073E+02  0.10500000000E+00 0.  1.
         13    1    4    4    0    0  0.12015640845E+02  0.15550474272E+02  0.22946524064E+02  0.30211700823E+02  0.10500000000E+00 0. -1.
    3000001    1    5    5    0    0 -0.25911241684E+02 -0.32297508218E+02 -0.42340154093E+02  0.59230145460E+02  0.10000000000E+01 0.  1.
        -13    1    6    6    0    0 -0.54986146646E+00 -0.77204620471E+00 -0.10585484345E+00  0.95949633787E+00  0.10500000000E+00 0.  1.
         13    1    6    6    0    0 -0.13893980915E+01 -0.18388940387E+01 -0.12157796964E+00  0.23103602630E+01  0.10500000000E+00 0. -1.
</event>
<event>
11    0  0.3396091E-009  0.9118800E+02  0.7816531E-02  0.1126479E+00
         25   -1    0    0    0    0  0.00000000000E+00  0.00000000000E+00  0.99999998245E-14  0.12500000000E+03  0.12500000000E+03 0.  0.
    3000001    1    3    3    0    0  0.12884458401E+02  0.12016099972E+02 -0.54883806287E+02  0.57650916032E+02  0.10000000000E+01 0. -1.
    1000022    2    1    0    0    0  0.16321708832E+02  0.11905915183E+02 -0.58293238143E+02  0.62499994453E+02  0.99999348939E+01 0.  0.
    3000022    2    3    3    0    0  0.34372504311E+01 -0.11018478936E+00 -0.34094318565E+01  0.48490784210E+01  0.25000946895E+00 0.  0.
    1000022    2    1    0    0    0 -0.16321708832E+02 -0.11905915183E+02  0.58293238143E+02  0.62500005547E+02  0.10000004234E+02 0.  0.
    3000022    2    5    5    0    0 -0.10815276062E+02 -0.36140188091E+01  0.21106882118E+02  0.23991546454E+02  0.25000051367E+00 0.  0.
        -13    1    4    4    0    0  0.19474210359E+01 -0.75384315994E-01 -0.20215474787E+01  0.28099485217E+01  0.10500000000E+00 0. -1.
         13    1    4    4    0    0  0.14898293953E+01 -0.34800473362E-01 -0.13878843778E+01  0.20391298993E+01  0.10500000000E+00 0.  1.
    3000001    1    5    5    0    0 -0.55064327695E+01 -0.82918963735E+01  0.37186356025E+02  0.38508459093E+02  0.10000000000E+01 0.  1.
        -13    1    6    6    0    0 -0.60732661725E+01 -0.19938890198E+01  0.11711375547E+02  0.13342694542E+02  0.10500000000E+00 0. -1.
         13    1    6    6    0    0 -0.47420098896E+01 -0.16201297892E+01  0.93955065709E+01  0.10648851912E+02  0.10500000000E+00 0.  1.
</event>
<event>
11    0  0.3396091E-009  0.9118800E+02  0.7816531E-02  0.1126479E+00
         25   -1    0    0    0    0  0.00000000000E+00  0.00000000000E+00  0.99999998245E-14  0.12500000000E+03  0.12500000000E+03 0.  0.
    3000001    1    3    3    0    0 -0.54486570206E+01  0.12559416500E+02  0.41163210831E+01  0.14330767789E+02  0.10000000000E+01 0. -1.
    1000022    2    1    0    0    0 -0.21931317755E+02  0.46690365754E+02  0.33841939956E+02  0.62499997809E+02  0.99999936706E+01 0.  0.
    3000022    2    3    3    0    0 -0.16482660735E+02  0.34130949254E+02  0.29725618873E+02  0.48169230021E+02  0.25000302840E+00 0.  0.
    1000022    2    1    0    0    0  0.21931317755E+02 -0.46690365754E+02 -0.33841939956E+02  0.62500002191E+02  0.10000021055E+02 0.  0.
    3000022    2    5    5    0    0  0.91144175873E+01 -0.98982020516E+01 -0.69254579589E+01  0.15135107565E+02  0.25000247734E+00 0.  0.
        -13    1    4    4    0    0 -0.66954176876E+01  0.13751635791E+02  0.11944270073E+02  0.19406512245E+02  0.10500000000E+00 0. -1.
         13    1    4    4    0    0 -0.97872430469E+01  0.20379313463E+02  0.17781348800E+02  0.28762717775E+02  0.10500000000E+00 0.  1.
    3000001    1    5    5    0    0  0.12816900168E+02 -0.36792163703E+02 -0.26916481997E+02  0.47364894626E+02  0.10000000000E+01 0. -1.
        -13    1    6    6    0    0  0.60419892511E+01 -0.66034660110E+01 -0.45549784024E+01  0.10043418278E+02  0.10500000000E+00 0. -1.
         13    1    6    6    0    0  0.30724283362E+01 -0.32947360406E+01 -0.23704795565E+01  0.50916892861E+01  0.10500000000E+00 0.  1.
</event>
<event>
11    0  0.3396091E-009  0.9118800E+02  0.7816531E-02  0.1126479E+00
         25   -1    0    0    0    0  0.00000000000E+00  0.00000000000E+00  0.99999998245E-14  0.12500000000E+03  0.12500000000E+03 0.  0.
    3000001    1    3    3    0    0  0.55544349218E+02 -0.16153909515E+01  0.13978072113E+02  0.57307684633E+02  0.10000000000E+01 0.  1.
    1000022    2    1    0    0    0  0.59046250459E+02 -0.24177535277E+01  0.17718465086E+02  0.62500000146E+02  0.10000039396E+02 0.  0.
    3000022    2    3    3    0    0  0.35019012412E+01 -0.80236257621E+00  0.37403929733E+01  0.51923155140E+01  0.25000559006E+00 0.  0.
    1000022    2    1    0    0    0 -0.59046250459E+02  0.24177535277E+01 -0.17718465086E+02  0.62499999854E+02  0.10000037565E+02 0.  0.
    3000022    2    5    5    0    0 -0.90373757656E+01 -0.29095568847E+01 -0.43861272071E+01  0.10461369802E+02  0.24992851417E+00 0.  0.
        -13    1    4    4    0    0  0.26282929897E+01 -0.57576335836E+00  0.28098327165E+01  0.38917364221E+01  0.10500000000E+00 0. -1.
         13    1    4    4    0    0  0.87360825148E+00 -0.22659921785E+00  0.93056025685E+00  0.13005790919E+01  0.10500000000E+00 0.  1.
    3000001    1    5    5    0    0 -0.50008874693E+02  0.53273104124E+01 -0.13332337879E+02  0.52038630052E+02  0.10000000000E+01 0.  1.
        -13    1    6    6    0    0 -0.43471090570E+01 -0.13396034081E+01 -0.21412183085E+01  0.50286912104E+01  0.10500000000E+00 0. -1.
         13    1    6    6    0    0 -0.46902667086E+01 -0.15699534766E+01 -0.22449088986E+01  0.54326785916E+01  0.10500000000E+00 0.  1.
</event>
<event>
11    0  0.3396091E-009  0.9118800E+02  0.7816531E-02  0.1126479E+00
         25   -1    0    0    0    0  0.00000000000E+00  0.00000000000E+00  0.99999998245E-14  0.12500000000E+03  0.12500000000E+03 0.  0.
    3000001    1    3    3    0    0  0.11121993019E+02 -0.22535436231E+02 -0.37040664682E+01  0.25421737219E+02  0.10000000000E+01 0. -1.
    1000022    2    1    0    0    0  0.23318194033E+02 -0.57083798337E+02  0.19878956897E+01  0.62500000034E+02  0.10000003469E+02 0.  0.
    3000022    2    3    3    0    0  0.12196201013E+02 -0.34548362107E+02  0.56919621579E+01  0.37078262815E+02  0.24999348821E+00 0.  0.
    1000022    2    1    0    0    0 -0.23318194033E+02  0.57083798337E+02 -0.19878956897E+01  0.62499999966E+02  0.10000003047E+02 0.  0.
    3000022    2    5    5    0    0 -0.50037469919E+01  0.24793838478E+02 -0.18718784358E+01  0.25364115190E+02  0.25000009341E+00 0.  0.
        -13    1    4    4    0    0  0.29306112986E+01 -0.82488662459E+01  0.13657701654E+01  0.88605095830E+01  0.10500000000E+00 0. -1.
         13    1    4    4    0    0  0.92655897147E+01 -0.26299495861E+02  0.43261919925E+01  0.28217753232E+02  0.10500000000E+00 0.  1.
    3000001    1    5    5    0    0 -0.18314447041E+02  0.32289959859E+02 -0.11601725387E+00  0.37135884777E+02  0.10000000000E+01 0.  1.
        -13    1    6    6    0    0 -0.20932019321E+01  0.10333124720E+02 -0.84453188512E+00  0.10577297382E+02  0.10500000000E+00 0. -1.
         13    1    6    6    0    0 -0.29105450598E+01  0.14460713758E+02 -0.10273465507E+01  0.14786817808E+02  0.10500000000E+00 0.  1.
</event>
<event>
11    0  0.3396091E-009  0.9118800E+02  0.7816531E-02  0.1126479E+00
         25   -1    0    0    0    0  0.00000000000E+00  0.00000000000E+00  0.99999998245E-14  0.12500000000E+03  0.12500000000E+03 0.  0.
    3000001    1    3    3    0    0 -0.13884158564E+02 -0.28295138544E+02  0.36728236086E+01  0.31747036988E+02  0.10000000000E+01 0.  1.
    1000022    2    1    0    0    0 -0.18105892019E+02 -0.58649052055E+02  0.62221628146E+01  0.62499999962E+02  0.10000002621E+02 0.  0.
    3000022    2    3    3    0    0 -0.42217334548E+01 -0.30353913511E+02  0.25493392060E+01  0.30752962974E+02  0.25000500020E+00 0.  0.
    1000022    2    1    0    0    0  0.18105892019E+02  0.58649052055E+02 -0.62221628146E+01  0.62500000038E+02  0.10000003098E+02 0.  0.
    3000022    2    5    5    0    0  0.90380240737E+01  0.43466929375E+02 -0.58751707387E+01  0.44784371863E+02  0.25000704303E+00 0.  0.
        -13    1    4    4    0    0 -0.26923095431E+01 -0.19297313056E+02  0.16791351865E+01  0.19556721142E+02  0.10500000000E+00 0. -1.
         13    1    4    4    0    0 -0.15294239117E+01 -0.11056600455E+02  0.87020401958E+00  0.11196241832E+02  0.10500000000E+00 0.  1.
    3000001    1    5    5    0    0  0.90678679452E+01  0.15182122680E+02 -0.34699207589E+00  0.17715628175E+02  0.10000000000E+01 0. -1.
        -13    1    6    6    0    0  0.20726289036E+01  0.99524225722E+01 -0.13454412347E+01  0.10255132507E+02  0.10500000000E+00 0. -1.
         13    1    6    6    0    0  0.69653951700E+01  0.33514506802E+02 -0.45297295041E+01  0.34529239355E+02  0.10500000000E+00 0.  1.
</event>
<event>
11    0  0.3396091E-009  0.9118800E+02  0.7816531E-02  0.1126479E+00
         25   -1    0    0    0    0  0.00000000000E+00  0.00000000000E+00  0.99999998245E-14  0.12500000000E+03  0.12500000000E+03 0.  0.
    3000001    1    3    3    0    0 -0.32398297290E+01  0.81116995681E+01  0.16655802195E+02  0.18833797103E+02  0.10000000000E+01 0.  1.
    1000022    2    1    0    0    0  0.11032035207E+01  0.34912351498E+02  0.50854308952E+02  0.62499999704E+02  0.99999939465E+01 0.  0.
    3000022    2    3    3    0    0  0.43430332496E+01  0.26800651930E+02  0.34198506756E+02  0.43666202601E+02  0.25000708122E+00 0.  0.
    1000022    2    1    0    0    0 -0.11032035207E+01 -0.34912351498E+02 -0.50854308952E+02  0.62500000296E+02  0.99999976487E+01 0.  0.
    3000022    2    5    5    0    0 -0.41589241185E+01 -0.63790074630E+01 -0.10670136025E+02  0.13111166498E+02  0.24999620665E+00 0.  0.
        -13    1    4    4    0    0  0.11289952889E+01  0.71855183794E+01  0.91680666043E+01  0.11703451414E+02  0.10500000000E+00 0. -1.
         13    1    4    4    0    0  0.32140379608E+01  0.19615133550E+02  0.25030440152E+02  0.31962751186E+02  0.10500000000E+00 0.  1.
    3000001    1    5    5    0    0  0.30557205979E+01 -0.28533344035E+02 -0.40184172926E+02  0.49388833798E+02  0.10000000000E+01 0. -1.
        -13    1    6    6    0    0 -0.20278152071E+01 -0.31376737265E+01 -0.51210557258E+01  0.63398160600E+01  0.10500000000E+00 0. -1.
         13    1    6    6    0    0 -0.21311089115E+01 -0.32413337365E+01 -0.55490802995E+01  0.67713504379E+01  0.10500000000E+00 0.  1.
</event>
<event>
11    0  0.3396091E-009  0.9118800E+02  0.7816531E-02  0.1126479E+00
         25   -1    0    0    0    0  0.00000000000E+00  0.00000000000E+00  0.99999998245E-14  0.12500000000E+03  0.12500000000E+03 0.  0.
    3000001    1    3    3    0    0  0.10972246125E+02  0.16065406899E+02 -0.20313372246E+02  0.28144636715E+02  0.10000000000E+01 0. -1.
    1000022    2    1    0    0    0  0.23495064717E+02  0.43205123740E+02 -0.37249826583E+02  0.62500003066E+02  0.10000000969E+02 0.  0.
    3000022    2    3    3    0    0  0.12522818593E+02  0.27139716841E+02 -0.16936454337E+02  0.34355366351E+02  0.24999174330E+00 0.  0.
    1000022    2    1    0    0    0 -0.23495064717E+02 -0.43205123740E+02  0.37249826583E+02  0.62499996934E+02  0.99999626438E+01 0.  0.
    3000022    2    5    5    0    0 -0.56606145079E+01 -0.18835684250E+02  0.11386445451E+02  0.22727497907E+02  0.24992661801E+00 0.  0.
        -13    1    4    4    0    0  0.54652698198E+01  0.11956163444E+02 -0.73953516661E+01  0.15083808198E+02  0.10500000000E+00 0. -1.
         13    1    4    4    0    0  0.70575487729E+01  0.15183553398E+02 -0.95411026709E+01  0.19271558153E+02  0.10500000000E+00 0.  1.
    3000001    1    5    5    0    0 -0.17834450209E+02 -0.24369439489E+02  0.25863381132E+02  0.39772499027E+02  0.10000000000E+01 0.  1.
        -13    1    6    6    0    0 -0.22290545432E+01 -0.74402527747E+01  0.44250190428E+01  0.89396791909E+01  0.10500000000E+00 0.  1.
         13    1    6    6    0    0 -0.34315599647E+01 -0.11395431476E+02  0.69614264081E+01  0.13787818716E+02  0.10500000000E+00 0. -1.
</event>
<event>
11    0  0.3396091E-009  0.9118800E+02  0.7816531E-02  0.1126479E+00
         25   -1    0    0    0    0  0.00000000000E+00  0.00000000000E+00  0.99999998245E-14  0.12500000000E+03  0.12500000000E+03 0.  0.
    3000001    1    3    3    0    0 -0.10699007903E+02 -0.36073014276E+02  0.12858790860E+02  0.39775364629E+02  0.10000000000E+01 0.  1.
    1000022    2    1    0    0    0 -0.23295570096E+02 -0.53056634590E+02  0.21179234178E+02  0.62499999150E+02  0.99999936621E+01 0.  0.
    3000022    2    3    3    0    0 -0.12596562193E+02 -0.16983620315E+02  0.83204433184E+01  0.22724634521E+02  0.24999799832E+00 0.  0.
    1000022    2    1    0    0    0  0.23295570096E+02  0.53056634590E+02 -0.21179234178E+02  0.62500000850E+02  0.10000004287E+02 0.  0.
    3000022    2    5    5    0    0  0.86794807520E+01  0.31651674739E+02 -0.10647133180E+02  0.34504866891E+02  0.24998862934E+00 0.  0.
        -13    1    4    4    0    0 -0.40238357318E+01 -0.53469653721E+01  0.26525994373E+01  0.71992083913E+01  0.10500000000E+00 0. -1.
         13    1    4    4    0    0 -0.85727264613E+01 -0.11636654943E+02  0.56678438811E+01  0.15525426129E+02  0.10500000000E+00 0.  1.
    3000001    1    5    5    0    0  0.14616089344E+02  0.21404959851E+02 -0.10532100998E+02  0.27995133959E+02  0.10000000000E+01 0.  1.
        -13    1    6    6    0    0  0.63538138725E+01  0.23280069144E+02 -0.78465961051E+01  0.25375434292E+02  0.10500000000E+00 0. -1.
         13    1    6    6    0    0  0.23256668795E+01  0.83716055952E+01 -0.28005370752E+01  0.91294325993E+01  0.10500000000E+00 0.  1.
</event>
<event>
11    0  0.3396091E-009  0.9118800E+02  0.7816531E-02  0.1126479E+00
         25   -1    0    0    0    0  0.00000000000E+00  0.00000000000E+00  0.99999998245E-14  0.12500000000E+03  0.12500000000E+03 0.  0.
    3000001    1    3    3    0    0  0.15543441039E+02  0.12098738521E+02  0.69268849044E+01  0.20903582650E+02  0.10000000000E+01 0. -1.
    1000022    2    1    0    0    0  0.45478468754E+02  0.27394489472E+02  0.31424516315E+02  0.62500004766E+02  0.10000059826E+02 0.  0.
    3000022    2    3    3    0    0  0.29935027715E+02  0.15295750951E+02  0.24497631411E+02  0.41596422116E+02  0.25001338542E+00 0.  0.
    1000022    2    1    0    0    0 -0.45478468754E+02 -0.27394489472E+02 -0.31424516315E+02  0.62499995234E+02  0.10000000247E+02 0.  0.
    3000022    2    5    5    0    0 -0.37341759728E+02 -0.18095366718E+02 -0.25999110679E+02  0.48968005577E+02  0.24999557727E+00 0.  0.
        -13    1    4    4    0    0  0.10867964706E+02  0.55938246446E+01  0.89646447749E+01  0.15158476571E+02  0.10500000000E+00 0.  1.
         13    1    4    4    0    0  0.19067063009E+02  0.97019263063E+01  0.15532986636E+02  0.26437945546E+02  0.10500000000E+00 0. -1.
    3000001    1    5    5    0    0 -0.81367090259E+01 -0.92991227541E+01 -0.54254056356E+01  0.13531989657E+02  0.10000000000E+01 0.  1.
        -13    1    6    6    0    0 -0.13557811370E+02 -0.65870270880E+01 -0.93776888872E+01  0.17752612452E+02  0.10500000000E+00 0. -1.
         13    1    6    6    0    0 -0.23783948358E+02 -0.11508339629E+02 -0.16621421792E+02  0.31215393125E+02  0.10500000000E+00 0.  1.
</event>
<event>
11    0  0.3396091E-009  0.9118800E+02  0.7816531E-02  0.1126479E+00
         25   -1    0    0    0    0  0.00000000000E+00  0.00000000000E+00  0.99999998245E-14  0.12500000000E+03  0.12500000000E+03 0.  0.
    3000001    1    3    3    0    0  0.56123140376E+00 -0.58007868806E+02 -0.34704492033E+00  0.58020240126E+02  0.10000000000E+01 0. -1.
    1000022    2    1    0    0    0 -0.20186243010E+01 -0.61660122291E+02 -0.45249910266E+00  0.62499998175E+02  0.99999745688E+01 0.  0.
    3000022    2    3    3    0    0 -0.25798557048E+01 -0.36522534857E+01 -0.10545418233E+00  0.44797580493E+01  0.25000122837E+00 0.  0.
    1000022    2    1    0    0    0  0.20186243010E+01  0.61660122291E+02  0.45249910266E+00  0.62500001825E+02  0.99999973806E+01 0.  0.
    3000022    2    5    5    0    0  0.45953882694E+00  0.29588858431E+00 -0.91249984736E+00  0.10926476390E+01  0.24999380753E+00 0.  0.
        -13    1    4    4    0    0 -0.15777276166E+01 -0.21308433643E+01 -0.38988448760E-01  0.26537262433E+01  0.10500000000E+00 0.  1.
         13    1    4    4    0    0 -0.10021280882E+01 -0.15214101214E+01 -0.66465733571E-01  0.18260318060E+01  0.10500000000E+00 0. -1.
    3000001    1    5    5    0    0  0.15590854741E+01  0.61364233707E+02  0.13649989500E+01  0.61407354186E+02  0.10000000000E+01 0. -1.
        -13    1    6    6    0    0  0.12884073638E+00  0.15015942847E+00 -0.31530114447E+00  0.38676556338E+00  0.10500000000E+00 0. -1.
         13    1    6    6    0    0  0.33069809056E+00  0.14572915584E+00 -0.59719870289E+00  0.70588207563E+00  0.10500000000E+00 0. -1.
</event>
<event>
11    0  0.3396091E-009  0.9118800E+02  0.7816531E-02  0.1126479E+00
         25   -1    0    0    0    0  0.00000000000E+00  0.00000000000E+00  0.99999998245E-14  0.12500000000E+03  0.12500000000E+03 0.  0.
    3000001    1    3    3    0    0 -0.39156016013E+02  0.53287815785E+01  0.34305845346E+01  0.39678185611E+02  0.10000000000E+01 0.  1.
    1000022    2    1    0    0    0 -0.61565524706E+02  0.39386710880E+01 -0.65035722985E+00  0.62499996976E+02  0.99999847602E+01 0.  0.
    3000022    2    3    3    0    0 -0.22409508693E+02 -0.13901104906E+01 -0.40809417645E+01  0.22821811366E+02  0.25000252145E+00 0.  0.
    1000022    2    1    0    0    0  0.61565524706E+02 -0.39386710880E+01  0.65035722985E+00  0.62500003024E+02  0.10000022558E+02 0.  0.
    3000022    2    5    5    0    0  0.46364145942E+01 -0.17980787724E+01  0.23295327537E+01  0.54971492001E+01  0.24999783294E+00 0.  0.
        -13    1    4    4    0    0 -0.15372037429E+02 -0.96719047441E+00 -0.28476704226E+01  0.15663819585E+02  0.10500000000E+00 0. -1.
         13    1    4    4    0    0 -0.70374712642E+01 -0.42292001614E+00 -0.12332713419E+01  0.71579917810E+01  0.10500000000E+00 0.  1.
    3000001    1    5    5    0    0  0.56929110112E+02 -0.21405923155E+01 -0.16791755238E+01  0.57002853824E+02  0.10000000000E+01 0.  1.
        -13    1    6    6    0    0  0.20981009620E+01 -0.75890521739E+00  0.10923876256E+01  0.24864232343E+01  0.10500000000E+00 0. -1.
         13    1    6    6    0    0  0.25383136322E+01 -0.10391735551E+01  0.12371451280E+01  0.30107259657E+01  0.10500000000E+00 0.  1.
</event>
<event>
11    0  0.3396091E-009  0.9118800E+02  0.7816531E-02  0.1126479E+00
         25   -1    0    0    0    0  0.00000000000E+00  0.00000000000E+00  0.99999998245E-14  0.12500000000E+03  0.12500000000E+03 0.  0.
    3000001    1    3    3    0    0  0.50929916166E+02  0.19661895441E+02  0.24757751711E+01  0.54658722595E+02  0.10000000000E+01 0.  1.
    1000022    2    1    0    0    0  0.57733759511E+02  0.21734703839E+02 -0.81577268476E+00  0.62499998766E+02  0.10000001124E+02 0.  0.
    3000022    2    3    3    0    0  0.68038433453E+01  0.20728083974E+01 -0.32915478559E+01  0.78412761716E+01  0.25001158360E+00 0.  0.
    1000022    2    1    0    0    0 -0.57733759511E+02 -0.21734703839E+02  0.81577268476E+00  0.62500001234E+02  0.10000016546E+02 0.  0.
    3000022    2    5    5    0    0 -0.12635683007E+02 -0.81929917355E+00 -0.13113049042E+01  0.12732390123E+02  0.25000297722E+00 0.  0.
        -13    1    4    4    0    0  0.39561344942E+01  0.11541128313E+01 -0.19536183705E+01  0.45618665370E+01  0.10500000000E+00 0. -1.
         13    1    4    4    0    0  0.28477088511E+01  0.91869556611E+00 -0.13379294853E+01  0.32794096346E+01  0.10500000000E+00 0.  1.
    3000001    1    5    5    0    0 -0.45098076504E+02 -0.20915404665E+02  0.21270775890E+01  0.49767611111E+02  0.10000000000E+01 0. -1.
        -13    1    6    6    0    0 -0.43154276502E+01 -0.27114078287E+00 -0.50252482919E+00  0.43543069864E+01  0.10500000000E+00 0. -1.
         13    1    6    6    0    0 -0.83202553571E+01 -0.54815839068E+00 -0.80878007506E+00  0.83780831363E+01  0.10500000000E+00 0.  1.
</event>
<event>
11    0  0.3396091E-009  0.9118800E+02  0.7816531E-02  0.1126479E+00
         25   -1    0    0    0    0  0.00000000000E+00  0.00000000000E+00  0.99999998245E-14  0.12500000000E+03  0.12500000000E+03 0.  0.
    3000001    1    3    3    0    0 -0.56051759916E+01 -0.27210958784E+01 -0.17023549504E+02  0.18155539055E+02  0.10000000000E+01 0. -1.
    1000022    2    1    0    0    0 -0.10499176578E+02 -0.21809381514E+02 -0.56748287523E+02  0.62499999829E+02  0.10000000547E+02 0.  0.
    3000022    2    3    3    0    0 -0.48940005863E+01 -0.19088285636E+02 -0.39724738019E+02  0.44344460773E+02  0.25000067393E+00 0.  0.
    1000022    2    1    0    0    0  0.10499176578E+02  0.21809381514E+02  0.56748287523E+02  0.62500000171E+02  0.10000002691E+02 0.  0.
    3000022    2    5    5    0    0 -0.16428370018E+01  0.24350291314E+01  0.37411032064E+01  0.47630482846E+01  0.24999095103E+00 0.  0.
        -13    1    4    4    0    0 -0.28625217560E+01 -0.10941596327E+02 -0.22876260284E+02  0.25519538996E+02  0.10500000000E+00 0. -1.
         13    1    4    4    0    0 -0.20314788303E+01 -0.81466893087E+01 -0.16848477735E+02  0.18824921777E+02  0.10500000000E+00 0.  1.
    3000001    1    5    5    0    0  0.12142013580E+02  0.19374352383E+02  0.53007184316E+02  0.57736951887E+02  0.10000000000E+01 0.  1.
        -13    1    6    6    0    0 -0.94916364953E+00  0.14217765732E+01  0.22786098567E+01  0.28505171701E+01  0.10500000000E+00 0. -1.
         13    1    6    6    0    0 -0.69367335228E+00  0.10132525582E+01  0.14624933497E+01  0.19125311146E+01  0.10500000000E+00 0.  1.
</event>
<event>
11    0  0.3396091E-009  0.9118800E+02  0.7816531E-02  0.1126479E+00
         25   -1    0    0    0    0  0.00000000000E+00  0.00000000000E+00  0.99999998245E-14  0.12500000000E+03  0.12500000000E+03 0.  0.
    3000001    1    3    3    0    0  0.36894956831E+02 -0.37522040764E+02 -0.35834233331E-01  0.52632144805E+02  0.10000000000E+01 0. -1.
    1000022    2    1    0    0    0  0.42188477208E+02 -0.44844014241E+02  0.39238945458E+01  0.62500001615E+02  0.10000001554E+02 0.  0.
    3000022    2    3    3    0    0  0.52935203769E+01 -0.73219734776E+01  0.39597287792E+01  0.98678568105E+01  0.24998488035E+00 0.  0.
    1000022    2    1    0    0    0 -0.42188477208E+02  0.44844014241E+02 -0.39238945458E+01  0.62499998385E+02  0.99999813654E+01 0.  0.
    3000022    2    5    5    0    0 -0.42231166994E+01  0.87590357882E+01 -0.27115937714E+01  0.10098052413E+02  0.24999830593E+00 0.  0.
        -13    1    4    4    0    0  0.32286158504E+01 -0.43586446152E+01  0.23825141837E+01  0.59252967880E+01  0.10500000000E+00 0.  1.
         13    1    4    4    0    0  0.20649045265E+01 -0.29633288625E+01  0.15772145955E+01  0.39425600225E+01  0.10500000000E+00 0. -1.
    3000001    1    5    5    0    0 -0.37965360509E+02  0.36084978453E+02 -0.12123007744E+01  0.52401945972E+02  0.10000000000E+01 0. -1.
        -13    1    6    6    0    0 -0.12645840944E+01  0.26346346696E+01 -0.76784624336E+00  0.30234228331E+01  0.10500000000E+00 0. -1.
         13    1    6    6    0    0 -0.29585326050E+01  0.61244011186E+01 -0.19437475281E+01  0.70746295797E+01  0.10500000000E+00 0.  1.
</event>
<event>
11    0  0.3396091E-009  0.9118800E+02  0.7816531E-02  0.1126479E+00
         25   -1    0    0    0    0  0.00000000000E+00  0.00000000000E+00  0.99999998245E-14  0.12500000000E+03  0.12500000000E+03 0.  0.
    3000001    1    3    3    0    0 -0.21024298698E+02  0.25361553494E+02  0.59579718037E+01  0.33492192514E+02  0.10000000000E+01 0.  1.
    1000022    2    1    0    0    0 -0.34782027800E+02  0.47206562602E+02  0.19183354970E+02  0.62499998235E+02  0.99999830456E+01 0.  0.
    3000022    2    3    3    0    0 -0.13757729103E+02  0.21845009108E+02  0.13225383167E+02  0.29007805722E+02  0.24999979530E+00 0.  0.
    1000022    2    1    0    0    0  0.34782027800E+02 -0.47206562602E+02 -0.19183354970E+02  0.62500001765E+02  0.10000005106E+02 0.  0.
    3000022    2    5    5    0    0  0.11199973670E+02 -0.23056457282E+02 -0.98891272002E+01  0.27475388507E+02  0.25000853663E+00 0.  0.
        -13    1    4    4    0    0 -0.53079203124E+01  0.83225724494E+01  0.50300558107E+01  0.11079337375E+02  0.10500000000E+00 0. -1.
         13    1    4    4    0    0 -0.84498087905E+01  0.13522436658E+02  0.81953273560E+01  0.17928468346E+02  0.10500000000E+00 0.  1.
    3000001    1    5    5    0    0  0.23582054131E+02 -0.24150105320E+02 -0.92942277702E+01  0.35024613257E+02  0.10000000000E+01 0.  1.
        -13    1    6    6    0    0  0.73183572516E+01 -0.14946088099E+02 -0.64436036548E+01  0.17845866619E+02  0.10500000000E+00 0. -1.
         13    1    6    6    0    0  0.38816164180E+01 -0.81103691826E+01 -0.34455235454E+01  0.96295218882E+01  0.10500000000E+00 0.  1.
</event>
<event>
11    0  0.3396091E-009  0.9118800E+02  0.7816531E-02  0.1126479E+00
         25   -1    0    0    0    0  0.00000000000E+00  0.00000000000E+00  0.99999998245E-14  0.12500000000E+03  0.12500000000E+03 0.  0.
    3000001    1    3    3    0    0 -0.30210470012E+02  0.22344931444E+02  0.91008166449E+01  0.38675487369E+02  0.10000000000E+01 0.  1.
    1000022    2    1    0    0    0 -0.43055349501E+02  0.40715992751E+02  0.17166679603E+02  0.62500001360E+02  0.10000004756E+02 0.  0.
    3000022    2    3    3    0    0 -0.12844879488E+02  0.18371061307E+02  0.80658629583E+01  0.23824513992E+02  0.24999812791E+00 0.  0.
    1000022    2    1    0    0    0  0.43055349501E+02 -0.40715992751E+02 -0.17166679603E+02  0.62499998640E+02  0.99999877506E+01 0.  0.
    3000022    2    5    5    0    0  0.27110773610E+02 -0.20970396399E+02 -0.61881646650E+01  0.34829692066E+02  0.24999322357E+00 0.  0.
        -13    1    4    4    0    0 -0.77926127519E+01  0.11239097802E+02  0.48882136099E+01  0.14524041799E+02  0.10500000000E+00 0. -1.
         13    1    4    4    0    0 -0.50522667364E+01  0.71319635053E+01  0.31776493484E+01  0.93004721922E+01  0.10500000000E+00 0.  1.
    3000001    1    5    5    0    0  0.15944575890E+02 -0.19745596352E+02 -0.10978514938E+02  0.27670306573E+02  0.10000000000E+01 0.  1.
        -13    1    6    6    0    0  0.80962763218E+01 -0.62168294343E+01 -0.18154313125E+01  0.10368484670E+02  0.10500000000E+00 0.  1.
         13    1    6    6    0    0  0.19014497289E+02 -0.14753566965E+02 -0.43727333526E+01  0.24461207397E+02  0.10500000000E+00 0. -1.
</event>
<event>
11    0  0.3396091E-009  0.9118800E+02  0.7816531E-02  0.1126479E+00
         25   -1    0    0    0    0  0.00000000000E+00  0.00000000000E+00  0.99999998245E-14  0.12500000000E+03  0.12500000000E+03 0.  0.
    3000001    1    3    3    0    0  0.77838026049E+00 -0.55016708266E+01 -0.85781285874E+01  0.10269301231E+02  0.10000000000E+01 0.  1.
    1000022    2    1    0    0    0  0.25320781731E+02 -0.26666944885E+02 -0.49537686397E+02  0.62500002665E+02  0.10000001134E+02 0.  0.
    3000022    2    3    3    0    0  0.24542401470E+02 -0.21165274058E+02 -0.40959557809E+02  0.52230701434E+02  0.25000097514E+00 0.  0.
    1000022    2    1    0    0    0 -0.25320781731E+02  0.26666944885E+02  0.49537686397E+02  0.62499997335E+02  0.99999678181E+01 0.  0.
    3000022    2    5    5    0    0 -0.94719969730E+01  0.11600238981E+02  0.12646701318E+02  0.19603209749E+02  0.25001434780E+00 0.  0.
        -13    1    4    4    0    0  0.16870594146E+02 -0.14579238604E+02 -0.28110519131E+02  0.35880126197E+02  0.10500000000E+00 0. -1.
         13    1    4    4    0    0  0.76718073242E+01 -0.65860354546E+01 -0.12849038678E+02  0.16350575237E+02  0.10500000000E+00 0.  1.
    3000001    1    5    5    0    0 -0.15848784758E+02  0.15066705904E+02  0.36890985078E+02  0.42896787585E+02  0.10000000000E+01 0. -1.
        -13    1    6    6    0    0 -0.57631708629E+01  0.71529783019E+01  0.77748283109E+01  0.12034875041E+02  0.10500000000E+00 0. -1.
         13    1    6    6    0    0 -0.37088261100E+01  0.44472606789E+01  0.48718730074E+01  0.75683347085E+01  0.10500000000E+00 0.  1.
</event>
<event>
11    0  0.3396091E-009  0.9118800E+02  0.7816531E-02  0.1126479E+00
         25   -1    0    0    0    0  0.00000000000E+00  0.00000000000E+00  0.99999998245E-14  0.12500000000E+03  0.12500000000E+03 0.  0.
    3000001    1    3    3    0    0  0.31639387413E+02 -0.38437022898E+02 -0.18392590550E+02  0.53082416602E+02  0.10000000000E+01 0. -1.
    1000022    2    1    0    0    0  0.38768909796E+02 -0.41835756604E+02 -0.23515763226E+02  0.62500000834E+02  0.10000004335E+02 0.  0.
    3000022    2    3    3    0    0  0.71295223825E+01 -0.33987337057E+01 -0.51231726760E+01  0.94175842314E+01  0.25002856461E+00 0.  0.
    1000022    2    1    0    0    0 -0.38768909796E+02  0.41835756604E+02  0.23515763226E+02  0.62499999166E+02  0.99999939128E+01 0.  0.
    3000022    2    5    5    0    0 -0.77993850210E+01  0.33905451739E+01  0.28580861590E+01  0.89753752206E+01  0.25000115308E+00 0.  0.
        -13    1    4    4    0    0  0.35254182155E+01 -0.16190186714E+01 -0.25624402194E+01  0.46504752371E+01  0.10500000000E+00 0. -1.
         13    1    4    4    0    0  0.36041041669E+01 -0.17797150343E+01 -0.25607324566E+01  0.47671089943E+01  0.10500000000E+00 0.  1.
    3000001    1    5    5    0    0 -0.30969524775E+02  0.38445211430E+02  0.20657677067E+02  0.53524623946E+02  0.10000000000E+01 0.  1.
        -13    1    6    6    0    0 -0.49933111824E+01  0.21498487093E+01  0.17686522651E+01  0.57178808900E+01  0.10500000000E+00 0.  1.
         13    1    6    6    0    0 -0.28060738385E+01  0.12406964645E+01  0.10894338939E+01  0.32574943306E+01  0.10500000000E+00 0. -1.
</event>
<event>
11    0  0.3396091E-009  0.9118800E+02  0.7816531E-02  0.1126479E+00
         25   -1    0    0    0    0  0.00000000000E+00  0.00000000000E+00  0.99999998245E-14  0.12500000000E+03  0.12500000000E+03 0.  0.
    3000001    1    3    3    0    0 -0.42709433861E+02  0.59652203640E+01 -0.12281296067E+02  0.44849858727E+02  0.10000000000E+01 0. -1.
    1000022    2    1    0    0    0 -0.56610384529E+02  0.10879320785E+02 -0.21980787767E+02  0.62499999091E+02  0.99999799146E+01 0.  0.
    3000022    2    3    3    0    0 -0.13900950668E+02  0.49141004211E+01 -0.96994917007E+01  0.17650140365E+02  0.25000644875E+00 0.  0.
    1000022    2    1    0    0    0  0.56610384529E+02 -0.10879320785E+02  0.21980787767E+02  0.62500000909E+02  0.99999912712E+01 0.  0.
    3000022    2    5    5    0    0  0.49712209281E+02 -0.11156038137E+02  0.22069304578E+02  0.55523667383E+02  0.24999296984E+00 0.  0.
        -13    1    4    4    0    0 -0.93345299879E+01  0.33119555095E+01 -0.64540756176E+01  0.11822377784E+02  0.10500000000E+00 0. -1.
         13    1    4    4    0    0 -0.45664206800E+01  0.16021449116E+01 -0.32454160831E+01  0.58277625807E+01  0.10500000000E+00 0.  1.
    3000001    1    5    5    0    0  0.68981752476E+01  0.27671735178E+00 -0.88516811081E-01  0.69763335260E+01  0.10000000000E+01 0.  1.
        -13    1    6    6    0    0  0.16819614573E+02 -0.37205422263E+01  0.74470176999E+01  0.18767284472E+02  0.10500000000E+00 0.  1.
         13    1    6    6    0    0  0.32892594708E+02 -0.74354959105E+01  0.14622286879E+02  0.36756382910E+02  0.10500000000E+00 0. -1.
</event>
<event>
11    0  0.3396091E-009  0.9118800E+02  0.7816531E-02  0.1126479E+00
         25   -1    0    0    0    0  0.00000000000E+00  0.00000000000E+00  0.99999998245E-14  0.12500000000E+03  0.12500000000E+03 0.  0.
    3000001    1    3    3    0    0  0.12009101561E+02 -0.41805945055E+02  0.17447058956E+02  0.46875957894E+02  0.10000000000E+01 0.  1.
    1000022    2    1    0    0    0  0.10302865646E+02 -0.56199002171E+02  0.23276005917E+02  0.62499992469E+02  0.99999860821E+01 0.  0.
    3000022    2    3    3    0    0 -0.17062359145E+01 -0.14393057116E+02  0.58289469615E+01  0.15624034575E+02  0.24999919519E+00 0.  0.
    1000022    2    1    0    0    0 -0.10302865646E+02  0.56199002171E+02 -0.23276005917E+02  0.62500007531E+02  0.10000080221E+02 0.  0.
    3000022    2    5    5    0    0 -0.98441138530E+01  0.52591158243E+02 -0.24029930120E+02  0.58653529569E+02  0.24997278889E+00 0.  0.
        -13    1    4    4    0    0 -0.56324538370E+00 -0.48179781839E+01  0.18937692603E+01  0.52084110969E+01  0.10500000000E+00 0. -1.
         13    1    4    4    0    0 -0.11429905308E+01 -0.95750789318E+01  0.39351777013E+01  0.10415623478E+02  0.10500000000E+00 0.  1.
    3000001    1    5    5    0    0 -0.45875179305E+00  0.36078439273E+01  0.75392420233E+00  0.38464779623E+01  0.10000000000E+01 0.  1.
        -13    1    6    6    0    0 -0.62999967921E+01  0.33348981935E+02 -0.15224957336E+02  0.37197512102E+02  0.10500000000E+00 0. -1.
         13    1    6    6    0    0 -0.35441170610E+01  0.19242176309E+02 -0.88049727834E+01  0.21456017467E+02  0.10500000000E+00 0.  1.
</event>
<event>
11    0  0.3396091E-009  0.9118800E+02  0.7816531E-02  0.1126479E+00
         25   -1    0    0    0    0  0.00000000000E+00  0.00000000000E+00  0.99999998245E-14  0.12500000000E+03  0.12500000000E+03 0.  0.
    3000001    1    3    3    0    0 -0.17598008663E+02  0.34329067399E+02 -0.37647807454E+02  0.53912263758E+02  0.10000000000E+01 0.  1.
    1000022    2    1    0    0    0 -0.23544170929E+02  0.39341831252E+02 -0.41281264562E+02  0.62499997038E+02  0.99999577440E+01 0.  0.
    3000022    2    3    3    0    0 -0.59461622655E+01  0.50127638530E+01 -0.36334571077E+01  0.85877332796E+01  0.25001038846E+00 0.  0.
    1000022    2    1    0    0    0  0.23544170929E+02 -0.39341831252E+02  0.41281264562E+02  0.62500002962E+02  0.99999947738E+01 0.  0.
    3000022    2    5    5    0    0  0.56282305816E+00 -0.79722229275E+01  0.62040816294E+01  0.10120584878E+02  0.25000241185E+00 0.  0.
        -13    1    4    4    0    0 -0.42496175608E+01  0.36219051245E+01 -0.26376097004E+01  0.61762007800E+01  0.10500000000E+00 0.  1.
         13    1    4    4    0    0 -0.16965447047E+01  0.13908587284E+01 -0.99584740738E+00  0.24115324995E+01  0.10500000000E+00 0. -1.
    3000001    1    5    5    0    0  0.22981347870E+02 -0.31369608325E+02  0.35077182933E+02  0.52379418084E+02  0.10000000000E+01 0. -1.
        -13    1    6    6    0    0  0.22997950269E+00 -0.25963390721E+01  0.19946104516E+01  0.32838031309E+01  0.10500000000E+00 0.  1.
         13    1    6    6    0    0  0.33284355547E+00 -0.53758838554E+01  0.42094711778E+01  0.68367817470E+01  0.10500000000E+00 0. -1.
</event>
<event>
11    0  0.3396091E-009  0.9118800E+02  0.7816531E-02  0.1126479E+00
         25   -1    0    0    0    0  0.00000000000E+00  0.00000000000E+00  0.99999998245E-14  0.12500000000E+03  0.12500000000E+03 0.  0.
    3000001    1    3    3    0    0 -0.31555340363E+02  0.24095059541E+02  0.18587410150E+01  0.39758852070E+02  0.10000000000E+01 0. -1.
    1000022    2    1    0    0    0 -0.51359048142E+02  0.34026855085E+02 -0.32666764199E+01  0.62499999916E+02  0.10000006081E+02 0.  0.
    3000022    2    3    3    0    0 -0.19803707779E+02  0.99317955442E+01 -0.51254174349E+01  0.22741147847E+02  0.24999394025E+00 0.  0.
    1000022    2    1    0    0    0  0.51359048142E+02 -0.34026855085E+02  0.32666764199E+01  0.62500000084E+02  0.10000007129E+02 0.  0.
    3000022    2    5    5    0    0  0.10347961008E+02 -0.12006428202E+02  0.10727216178E+01  0.15888607638E+02  0.25001164691E+00 0.  0.
        -13    1    4    4    0    0 -0.74776635247E+01  0.37818666838E+01 -0.19936421636E+01  0.86141512338E+01  0.10500000000E+00 0. -1.
         13    1    4    4    0    0 -0.12326044254E+02  0.61499288605E+01 -0.31317752713E+01  0.14126996613E+02  0.10500000000E+00 0.  1.
    3000001    1    5    5    0    0  0.41011087134E+02 -0.22020426884E+02  0.21939548020E+01  0.46611392446E+02  0.10000000000E+01 0. -1.
        -13    1    6    6    0    0  0.72498823120E+01 -0.84146387809E+01  0.79735944221E+00  0.11136145941E+02  0.10500000000E+00 0. -1.
         13    1    6    6    0    0  0.30980786962E+01 -0.35917894208E+01  0.27536217563E+00  0.47524616967E+01  0.10500000000E+00 0.  1.
</event>
<event>
11    0  0.3396091E-009  0.9118800E+02  0.7816531E-02  0.1126479E+00
         25   -1    0    0    0    0  0.00000000000E+00  0.00000000000E+00  0.99999998245E-14  0.12500000000E+03  0.12500000000E+03 0.  0.
    3000001    1    3    3    0    0  0.18318060952E+02  0.85566324548E+01 -0.13746700733E+02  0.24469145818E+02  0.10000000000E+01 0. -1.
    1000022    2    1    0    0    0  0.37418704100E+02  0.23973844008E+02 -0.42794213564E+02  0.62499994894E+02  0.10000001712E+02 0.  0.
    3000022    2    3    3    0    0  0.19100643147E+02  0.15417211553E+02 -0.29047512831E+02  0.38030849076E+02  0.24999818284E+00 0.  0.
    1000022    2    1    0    0    0 -0.37418704100E+02 -0.23973844008E+02  0.42794213564E+02  0.62500005106E+02  0.10000065533E+02 0.  0.
    3000022    2    5    5    0    0 -0.10504477404E+02 -0.65138630995E+01  0.18477257877E+02  0.22231644501E+02  0.25000108024E+00 0.  0.
        -13    1    4    4    0    0  0.13935070230E+02  0.11204480152E+02 -0.21181095988E+02  0.27719603353E+02  0.10500000000E+00 0.  1.
         13    1    4    4    0    0  0.51655729177E+01  0.42127314009E+01 -0.78664168426E+01  0.10311245723E+02  0.10500000000E+00 0. -1.
    3000001    1    5    5    0    0 -0.26914226696E+02 -0.17459980908E+02  0.24316955687E+02  0.40268360605E+02  0.10000000000E+01 0.  1.
        -13    1    6    6    0    0 -0.72771889953E+01 -0.44930976023E+01  0.12702777648E+02  0.15313947587E+02  0.10500000000E+00 0. -1.
         13    1    6    6    0    0 -0.32272884085E+01 -0.20207654972E+01  0.57744802291E+01  0.69176969132E+01  0.10500000000E+00 0.  1.
</event>
<event>
11    0  0.3396091E-009  0.9118800E+02  0.7816531E-02  0.1126479E+00
         25   -1    0    0    0    0  0.00000000000E+00  0.00000000000E+00  0.99999998245E-14  0.12500000000E+03  0.12500000000E+03 0.  0.
    3000001    1    3    3    0    0 -0.17467842070E+01  0.46825958818E+02 -0.28116474069E+02  0.54655812027E+02  0.10000000000E+01 0.  1.
    1000022    2    1    0    0    0 -0.28254876480E+01  0.50924625221E+02 -0.34712385224E+02  0.62499995044E+02  0.99999429068E+01 0.  0.
    3000022    2    3    3    0    0 -0.10787034410E+01  0.40986664037E+01 -0.65959111551E+01  0.78441830168E+01  0.24999166438E+00 0.  0.
    1000022    2    1    0    0    0  0.28254876480E+01 -0.50924625221E+02  0.34712385224E+02  0.62500004956E+02  0.10000004861E+02 0.  0.
    3000022    2    5    5    0    0  0.32060287080E+01 -0.57820845866E+01  0.63864281113E+01  0.91956558579E+01  0.25000078334E+00 0.  0.
        -13    1    4    4    0    0 -0.46746970750E+00  0.16292170537E+01 -0.27332274513E+01  0.32178305480E+01  0.10500000000E+00 0.  1.
         13    1    4    4    0    0 -0.61123373348E+00  0.24694493500E+01 -0.38626837038E+01  0.46263524687E+01  0.10500000000E+00 0. -1.
    3000001    1    5    5    0    0 -0.38054106003E+00 -0.45142540635E+02  0.28325957113E+02  0.53304349098E+02  0.10000000000E+01 0.  1.
        -13    1    6    6    0    0  0.16997454440E+01 -0.30017475570E+01  0.34154151585E+01  0.48554823319E+01  0.10500000000E+00 0.  1.
         13    1    6    6    0    0  0.15062832640E+01 -0.27803370296E+01  0.29710129528E+01  0.43401735260E+01  0.10500000000E+00 0. -1.
</event>
<event>
11    0  0.3396091E-009  0.9118800E+02  0.7816531E-02  0.1126479E+00
         25   -1    0    0    0    0  0.00000000000E+00  0.00000000000E+00  0.99999998245E-14  0.12500000000E+03  0.12500000000E+03 0.  0.
    3000001    1    3    3    0    0 -0.17458337984E+02 -0.23162351693E+02  0.24542192044E+00  0.29023237810E+02  0.10000000000E+01 0. -1.
    1000022    2    1    0    0    0 -0.29566336943E+02 -0.53904900205E+02 -0.51326290790E+01  0.62500003699E+02  0.10000001740E+02 0.  0.
    3000022    2    3    3    0    0 -0.12107998960E+02 -0.30742548512E+02 -0.53780509995E+01  0.33476765889E+02  0.24998797678E+00 0.  0.
    1000022    2    1    0    0    0  0.29566336943E+02  0.53904900205E+02  0.51326290790E+01  0.62499996301E+02  0.99999555010E+01 0.  0.
    3000022    2    5    5    0    0  0.13427062449E+02  0.22220852641E+02 -0.26122513845E+01  0.26094801279E+02  0.24999673128E+00 0.  0.
        -13    1    4    4    0    0 -0.54332866502E+01 -0.13679476678E+02 -0.24475849715E+01  0.14921473895E+02  0.10500000000E+00 0.  1.
         13    1    4    4    0    0 -0.66747123093E+01 -0.17063071834E+02 -0.29304660279E+01  0.18555291994E+02  0.10500000000E+00 0. -1.
    3000001    1    5    5    0    0  0.16139274494E+02  0.31684047564E+02  0.77448804635E+01  0.36405195022E+02  0.10000000000E+01 0. -1.
        -13    1    6    6    0    0  0.90149313251E+01  0.14825862915E+02 -0.17683751946E+01  0.17441713614E+02  0.10500000000E+00 0. -1.
         13    1    6    6    0    0  0.44121311243E+01  0.73949897263E+01 -0.84387618989E+00  0.86530876648E+01  0.10500000000E+00 0.  1.
</event>
<event>
11    0  0.3396091E-009  0.9118800E+02  0.7816531E-02  0.1126479E+00
         25   -1    0    0    0    0  0.00000000000E+00  0.00000000000E+00  0.99999998245E-14  0.12500000000E+03  0.12500000000E+03 0.  0.
    3000001    1    3    3    0    0  0.92023628212E+00 -0.11114748588E+01 -0.45688411775E-01  0.17562171300E+01  0.10000000000E+01 0. -1.
    1000022    2    1    0    0    0 -0.15912064158E+01 -0.53396346175E+02 -0.30863376007E+02  0.62500002686E+02  0.10000031724E+02 0.  0.
    3000022    2    3    3    0    0 -0.25114426979E+01 -0.52284871316E+02 -0.30817687595E+02  0.60743785556E+02  0.25000390453E+00 0.  0.
    1000022    2    1    0    0    0  0.15912064158E+01  0.53396346175E+02  0.30863376007E+02  0.62499997314E+02  0.99999981537E+01 0.  0.
    3000022    2    5    5    0    0 -0.14099689961E+01  0.23404493281E+02  0.84473448349E+01  0.24923452139E+02  0.25002684870E+00 0.  0.
        -13    1    4    4    0    0 -0.11155364546E+01 -0.22247350145E+02 -0.13167033468E+02  0.25876066266E+02  0.10500000000E+00 0. -1.
         13    1    4    4    0    0 -0.13959062433E+01 -0.30037521171E+02 -0.17650654127E+02  0.34867719290E+02  0.10500000000E+00 0.  1.
    3000001    1    5    5    0    0  0.30011754119E+01  0.29991852894E+02  0.22416031172E+02  0.37576545176E+02  0.10000000000E+01 0. -1.
        -13    1    6    6    0    0 -0.79450864238E+00  0.12858318641E+02  0.45736144994E+01  0.13671012283E+02  0.10500000000E+00 0.  1.
         13    1    6    6    0    0 -0.61546035371E+00  0.10546174641E+02  0.38737303355E+01  0.11252439856E+02  0.10500000000E+00 0. -1.
</event>
<event>
11    0  0.3396091E-009  0.9118800E+02  0.7816531E-02  0.1126479E+00
         25   -1    0    0    0    0  0.00000000000E+00  0.00000000000E+00  0.99999998245E-14  0.12500000000E+03  0.12500000000E+03 0.  0.
    3000001    1    3    3    0    0 -0.26287472418E+02 -0.19726388550E+02  0.24761795687E+02  0.41161974406E+02  0.10000000000E+01 0. -1.
    1000022    2    1    0    0    0 -0.39901980773E+02 -0.34448103444E+02  0.32053237218E+02  0.62500000195E+02  0.10000005384E+02 0.  0.
    3000022    2    3    3    0    0 -0.13614508355E+02 -0.14721714894E+02  0.72914415305E+01  0.21338025789E+02  0.24999556969E+00 0.  0.
    1000022    2    1    0    0    0  0.39901980773E+02  0.34448103444E+02 -0.32053237218E+02  0.62499999805E+02  0.10000002947E+02 0.  0.
    3000022    2    5    5    0    0  0.12094330094E+02  0.62117003382E+01 -0.49222481374E+01  0.14461989176E+02  0.25012536407E+00 0.  0.
        -13    1    4    4    0    0 -0.99245087269E+01 -0.10724344842E+02  0.52745443629E+01  0.15535098615E+02  0.10500000000E+00 0.  1.
         13    1    4    4    0    0 -0.36899996283E+01 -0.39973700526E+01  0.20168971676E+01  0.58029271733E+01  0.10500000000E+00 0. -1.
    3000001    1    5    5    0    0  0.27807650680E+02  0.28236403106E+02 -0.27130989080E+02  0.48038010629E+02  0.10000000000E+01 0.  1.
        -13    1    6    6    0    0  0.73378909931E+01  0.36984025813E+01 -0.29703345430E+01  0.87382342712E+01  0.10500000000E+00 0.  1.
         13    1    6    6    0    0  0.47564391008E+01  0.25132977569E+01 -0.19519135944E+01  0.57237549052E+01  0.10500000000E+00 0. -1.
</event>
<event>
11    0  0.3396091E-009  0.9118800E+02  0.7816531E-02  0.1126479E+00
         25   -1    0    0    0    0  0.00000000000E+00  0.00000000000E+00  0.99999998245E-14  0.12500000000E+03  0.12500000000E+03 0.  0.
    3000001    1    3    3    0    0  0.11502112534E+02 -0.68930111929E+01  0.13841822819E+02  0.19297882138E+02  0.10000000000E+01 0. -1.
    1000022    2    1    0    0    0  0.27036663405E+02 -0.32908721333E+02  0.44635020104E+02  0.62499999550E+02  0.99999908106E+01 0.  0.
    3000022    2    3    3    0    0  0.15534550871E+02 -0.26015710140E+02  0.30793197285E+02  0.43202117412E+02  0.25001002048E+00 0.  0.
    1000022    2    1    0    0    0 -0.27036663405E+02  0.32908721333E+02 -0.44635020104E+02  0.62500000450E+02  0.99999964333E+01 0.  0.
    3000022    2    5    5    0    0 -0.22488691775E+02  0.25659407289E+02 -0.29596586837E+02  0.45168206683E+02  0.25000470597E+00 0.  0.
        -13    1    4    4    0    0  0.68175196117E+01 -0.11466272057E+02  0.13644092235E+02  0.19082092297E+02  0.10500000000E+00 0.  1.
         13    1    4    4    0    0  0.87170312594E+01 -0.14549438083E+02  0.17149105050E+02  0.24120025115E+02  0.10500000000E+00 0. -1.
    3000001    1    5    5    0    0 -0.45479716302E+01  0.72493140439E+01 -0.15038433267E+02  0.17331793767E+02  0.10000000000E+01 0.  1.
        -13    1    6    6    0    0 -0.11671562240E+02  0.13393589304E+02 -0.15470096006E+02  0.23557344821E+02  0.10500000000E+00 0.  1.
         13    1    6    6    0    0 -0.10817129535E+02  0.12265817985E+02 -0.14126490831E+02  0.21610861862E+02  0.10500000000E+00 0. -1.
</event>
<event>
11    0  0.3396091E-009  0.9118800E+02  0.7816531E-02  0.1126479E+00
         25   -1    0    0    0    0  0.00000000000E+00  0.00000000000E+00  0.99999998245E-14  0.12500000000E+03  0.12500000000E+03 0.  0.
    3000001    1    3    3    0    0 -0.95567689970E+01 -0.37922348230E+02 -0.14264718425E+02  0.41640347269E+02  0.10000000000E+01 0.  1.
    1000022    2    1    0    0    0 -0.20620231018E+02 -0.53831784898E+02 -0.21981713129E+02  0.62499994282E+02  0.99999290287E+01 0.  0.
    3000022    2    3    3    0    0 -0.11063462021E+02 -0.15909436668E+02 -0.77169947039E+01  0.20859647012E+02  0.24999848318E+00 0.  0.
    1000022    2    1    0    0    0  0.20620231018E+02  0.53831784898E+02  0.21981713129E+02  0.62500005718E+02  0.10000000509E+02 0.  0.
    3000022    2    5    5    0    0  0.63496300740E+01  0.27429475162E+02  0.13913860222E+02  0.31406240085E+02  0.25000061150E+00 0.  0.
        -13    1    4    4    0    0 -0.27646281002E+01 -0.40236112924E+01 -0.19428400708E+01  0.52553086404E+01  0.10500000000E+00 0.  1.
         13    1    4    4    0    0 -0.82988339212E+01 -0.11885825375E+02 -0.57741546331E+01  0.15604338372E+02  0.10500000000E+00 0. -1.
    3000001    1    5    5    0    0  0.14270600944E+02  0.26402309736E+02  0.80678529077E+01  0.31093765633E+02  0.10000000000E+01 0.  1.
        -13    1    6    6    0    0  0.37079971346E+01  0.15733128113E+02  0.79753731080E+01  0.18024931739E+02  0.10500000000E+00 0. -1.
         13    1    6    6    0    0  0.26416329393E+01  0.11696347049E+02  0.59384871137E+01  0.13381308347E+02  0.10500000000E+00 0.  1.
</event>
<event>
11    0  0.3396091E-009  0.9118800E+02  0.7816531E-02  0.1126479E+00
         25   -1    0    0    0    0  0.00000000000E+00  0.00000000000E+00  0.99999998245E-14  0.12500000000E+03  0.12500000000E+03 0.  0.
    3000001    1    3    3    0    0  0.26630346073E+02 -0.38747206719E+02 -0.76146145511E+01  0.47639308510E+02  0.10000000000E+01 0. -1.
    1000022    2    1    0    0    0  0.36004945657E+02 -0.47928592675E+02 -0.14585747018E+02  0.62500000137E+02  0.99999946750E+01 0.  0.
    3000022    2    3    3    0    0  0.93745995841E+01 -0.91813859554E+01 -0.69711324668E+01  0.14860691627E+02  0.25000469639E+00 0.  0.
    1000022    2    1    0    0    0 -0.36004945657E+02  0.47928592675E+02  0.14585747018E+02  0.62499999863E+02  0.99999929630E+01 0.  0.
    3000022    2    5    5    0    0 -0.24324844576E+02  0.25055751890E+02  0.62264823951E+01  0.35472811480E+02  0.25000980493E+00 0.  0.
        -13    1    4    4    0    0  0.62434921152E+01 -0.61778237157E+01 -0.46974376086E+01  0.99611066023E+01  0.10500000000E+00 0.  1.
         13    1    4    4    0    0  0.31311074690E+01 -0.30035622397E+01 -0.22736948582E+01  0.48995850251E+01  0.10500000000E+00 0. -1.
    3000001    1    5    5    0    0 -0.11680101081E+02  0.22872840785E+02  0.83592646228E+01  0.27027188383E+02  0.10000000000E+01 0.  1.
        -13    1    6    6    0    0 -0.98535462632E+01  0.10204473887E+02  0.25809912224E+01  0.14418606103E+02  0.10500000000E+00 0.  1.
         13    1    6    6    0    0 -0.14471298313E+02  0.14851278003E+02  0.36454911727E+01  0.21054205377E+02  0.10500000000E+00 0. -1.
</event>
<event>
11    0  0.3396091E-009  0.9118800E+02  0.7816531E-02  0.1126479E+00
         25   -1    0    0    0    0  0.00000000000E+00  0.00000000000E+00  0.99999998245E-14  0.12500000000E+03  0.12500000000E+03 0.  0.
    3000001    1    3    3    0    0 -0.46241223882E+01 -0.55889512433E+01 -0.38078527769E+01  0.82534009131E+01  0.10000000000E+01 0. -1.
    1000022    2    1    0    0    0 -0.25816338336E+02 -0.29411164945E+02 -0.47694335646E+02  0.62500002157E+02  0.10000033426E+02 0.  0.
    3000022    2    3    3    0    0 -0.21192215947E+02 -0.23822213702E+02 -0.43886482869E+02  0.54246601244E+02  0.24997115239E+00 0.  0.
    1000022    2    1    0    0    0  0.25816338336E+02  0.29411164945E+02  0.47694335646E+02  0.62499997843E+02  0.10000006458E+02 0.  0.
    3000022    2    5    5    0    0  0.30094307213E+01 -0.26540098553E-01  0.24207515228E+01  0.38703898575E+01  0.25000414185E+00 0.  0.
        -13    1    4    4    0    0 -0.12056732293E+02 -0.13595835327E+02 -0.24911515388E+02  0.30835144815E+02  0.10500000000E+00 0.  1.
         13    1    4    4    0    0 -0.91354836543E+01 -0.10226378375E+02 -0.18974967480E+02  0.23411456429E+02  0.10500000000E+00 0. -1.
    3000001    1    5    5    0    0  0.22806907614E+02  0.29437705044E+02  0.45273584123E+02  0.58629607985E+02  0.10000000000E+01 0.  1.
        -13    1    6    6    0    0  0.84254454236E+00 -0.47280552691E-01  0.68582788908E+00  0.10924750111E+01  0.10500000000E+00 0. -1.
         13    1    6    6    0    0  0.21668861789E+01  0.20740454138E-01  0.17349236337E+01  0.27779148464E+01  0.10500000000E+00 0.  1.
</event>
<event>
11    0  0.3396091E-009  0.9118800E+02  0.7816531E-02  0.1126479E+00
         25   -1    0    0    0    0  0.00000000000E+00  0.00000000000E+00  0.99999998245E-14  0.12500000000E+03  0.12500000000E+03 0.  0.
    3000001    1    3    3    0    0  0.24784357565E+01  0.78895563155E+01 -0.56192233788E+02  0.56806292616E+02  0.10000000000E+01 0. -1.
    1000022    2    1    0    0    0  0.47057432617E+01  0.63300809941E+01 -0.61188526558E+02  0.62499999635E+02  0.10000011346E+02 0.  0.
    3000022    2    3    3    0    0  0.22273075053E+01 -0.15594753214E+01 -0.49962927704E+01  0.56937070191E+01  0.24999233987E+00 0.  0.
    1000022    2    1    0    0    0 -0.47057432617E+01 -0.63300809941E+01  0.61188526558E+02  0.62500000365E+02  0.10000015912E+02 0.  0.
    3000022    2    5    5    0    0 -0.53952571349E+01 -0.46911926150E+01  0.59268180022E+02  0.59698373102E+02  0.25000051538E+00 0.  0.
        -13    1    4    4    0    0  0.57945179519E+00 -0.44065279581E+00 -0.13896577294E+01  0.15722954158E+01  0.10500000000E+00 0. -1.
         13    1    4    4    0    0  0.16478557101E+01 -0.11188225256E+01 -0.36066350410E+01  0.41214116033E+01  0.10500000000E+00 0.  1.
    3000001    1    5    5    0    0  0.68951387322E+00 -0.16388883791E+01  0.19203465367E+01  0.28016272631E+01  0.10000000000E+01 0.  1.
        -13    1    6    6    0    0 -0.29591790222E+01 -0.25294630436E+01  0.31780842337E+02  0.32018555377E+02  0.10500000000E+00 0.  1.
         13    1    6    6    0    0 -0.24360781127E+01 -0.21617295714E+01  0.27487337685E+02  0.27679817725E+02  0.10500000000E+00 0. -1.
</event>
<event>
11    0  0.3396091E-009  0.9118800E+02  0.7816531E-02  0.1126479E+00
         25   -1    0    0    0    0  0.00000000000E+00  0.00000000000E+00  0.99999998245E-14  0.12500000000E+03  0.12500000000E+03 0.  0.
    3000001    1    3    3    0    0  0.21592158544E+02  0.12590677481E+02 -0.20017412252E+02  0.32038153244E+02  0.10000000000E+01 0. -1.
    1000022    2    1    0    0    0  0.47766162392E+02  0.18139963865E+02 -0.34577239137E+02  0.62500000108E+02  0.99999994222E+01 0.  0.
    3000022    2    3    3    0    0  0.26174003848E+02  0.55492863840E+01 -0.14559826885E+02  0.30461846864E+02  0.24999724946E+00 0.  0.
    1000022    2    1    0    0    0 -0.47766162392E+02 -0.18139963865E+02  0.34577239137E+02  0.62499999892E+02  0.99999980726E+01 0.  0.
    3000022    2    5    5    0    0 -0.15351293435E+02 -0.94668027864E+01  0.16117897972E+02  0.24189495734E+02  0.25000739470E+00 0.  0.
        -13    1    4    4    0    0  0.20013158152E+02  0.42393794443E+01 -0.11148527830E+02  0.23298058612E+02  0.10500000000E+00 0.  1.
         13    1    4    4    0    0  0.61608456956E+01  0.13099069397E+01 -0.34112990553E+01  0.71637882521E+01  0.10500000000E+00 0. -1.
    3000001    1    5    5    0    0 -0.32414868957E+02 -0.86731610787E+01  0.18459341165E+02  0.38310504158E+02  0.10000000000E+01 0. -1.
        -13    1    6    6    0    0 -0.10090399806E+02 -0.62204584184E+01  0.10666929013E+02  0.15946932957E+02  0.10500000000E+00 0. -1.
         13    1    6    6    0    0 -0.52608936292E+01 -0.32463443680E+01  0.54509689597E+01  0.82425627770E+01  0.10500000000E+00 0.  1.
</event>
<event>
11    0  0.3396091E-009  0.9118800E+02  0.7816531E-02  0.1126479E+00
         25   -1    0    0    0    0  0.00000000000E+00  0.00000000000E+00  0.99999998245E-14  0.12500000000E+03  0.12500000000E+03 0.  0.
    3000001    1    3    3    0    0 -0.20747924457E+02 -0.30430934021E+02  0.71706010934E+01  0.37535791382E+02  0.10000000000E+01 0.  1.
    1000022    2    1    0    0    0 -0.40414621744E+02 -0.45118730419E+02  0.11713601064E+02  0.62499999679E+02  0.10000001233E+02 0.  0.
    3000022    2    3    3    0    0 -0.19666697287E+02 -0.14687796398E+02  0.45429999702E+01  0.24964208297E+02  0.25000387329E+00 0.  0.
    1000022    2    1    0    0    0  0.40414621744E+02  0.45118730419E+02 -0.11713601064E+02  0.62500000321E+02  0.10000005248E+02 0.  0.
    3000022    2    5    5    0    0  0.20358893372E+02  0.29857504631E+02 -0.78888570027E+01  0.36989886244E+02  0.24999488424E+00 0.  0.
        -13    1    4    4    0    0 -0.13580936309E+02 -0.10118173552E+02  0.30893781493E+01  0.17215532214E+02  0.10500000000E+00 0.  1.
         13    1    4    4    0    0 -0.60857609778E+01 -0.45696228460E+01  0.14536218209E+01  0.77486760825E+01  0.10500000000E+00 0. -1.
    3000001    1    5    5    0    0  0.20055728372E+02  0.15261225788E+02 -0.38247440608E+01  0.25510114077E+02  0.10000000000E+01 0.  1.
        -13    1    6    6    0    0  0.10472766463E+02  0.15301384038E+02 -0.41085850609E+01  0.18992174364E+02  0.10500000000E+00 0. -1.
         13    1    6    6    0    0  0.98861269086E+01  0.14556120594E+02 -0.37802719418E+01  0.17997711881E+02  0.10500000000E+00 0.  1.
</event>
<event>
11    0  0.3396091E-009  0.9118800E+02  0.7816531E-02  0.1126479E+00
         25   -1    0    0    0    0  0.00000000000E+00  0.00000000000E+00  0.99999998245E-14  0.12500000000E+03  0.12500000000E+03 0.  0.
    3000001    1    3    3    0    0 -0.24110447950E+02  0.91380263792E+00 -0.92008008676E+01  0.25841893743E+02  0.10000000000E+01 0.  1.
    1000022    2    1    0    0    0 -0.55597451125E+02  0.13626187222E+02 -0.23010891873E+02  0.62500006120E+02  0.10000003520E+02 0.  0.
    3000022    2    3    3    0    0 -0.31487003175E+02  0.12712384584E+02 -0.13810091005E+02  0.36658112377E+02  0.24999744521E+00 0.  0.
    1000022    2    1    0    0    0  0.55597451125E+02 -0.13626187222E+02  0.23010891873E+02  0.62499993880E+02  0.99999270194E+01 0.  0.
    3000022    2    5    5    0    0  0.32950189174E+02 -0.92314855212E+01  0.18745947168E+02  0.39018051238E+02  0.24999125447E+00 0.  0.
        -13    1    4    4    0    0 -0.19052509249E+02  0.76807145422E+01 -0.84210799056E+01  0.22201736336E+02  0.10500000000E+00 0.  1.
         13    1    4    4    0    0 -0.12434493926E+02  0.50316700417E+01 -0.53890110996E+01  0.14456376041E+02  0.10500000000E+00 0. -1.
    3000001    1    5    5    0    0  0.22647261951E+02 -0.43947017006E+01  0.42649447049E+01  0.23481942642E+02  0.10000000000E+01 0. -1.
        -13    1    6    6    0    0  0.17498193545E+02 -0.49242511060E+01  0.10031193787E+02  0.20762246990E+02  0.10500000000E+00 0.  1.
         13    1    6    6    0    0  0.15451995629E+02 -0.43072344152E+01  0.87147533807E+01  0.18255804247E+02  0.10500000000E+00 0. -1.
</event>
<event>
11    0  0.3396091E-009  0.9118800E+02  0.7816531E-02  0.1126479E+00
         25   -1    0    0    0    0  0.00000000000E+00  0.00000000000E+00  0.99999998245E-14  0.12500000000E+03  0.12500000000E+03 0.  0.
    3000001    1    3    3    0    0  0.37224746709E+02 -0.32166702448E+02 -0.27527616212E+02  0.56383935374E+02  0.10000000000E+01 0. -1.
    1000022    2    1    0    0    0  0.38577285899E+02 -0.35640138522E+02 -0.32370099929E+02  0.62500000896E+02  0.10000014072E+02 0.  0.
    3000022    2    3    3    0    0  0.13525391903E+01 -0.34734360740E+01 -0.48424837162E+01  0.61160655224E+01  0.24997701897E+00 0.  0.
    1000022    2    1    0    0    0 -0.38577285899E+02  0.35640138522E+02  0.32370099929E+02  0.62499999104E+02  0.10000002867E+02 0.  0.
    3000022    2    5    5    0    0 -0.31580506336E+02  0.25538616308E+02  0.28355037013E+02  0.49534028045E+02  0.25001384315E+00 0.  0.
        -13    1    4    4    0    0  0.10054080076E+01 -0.25042127168E+01 -0.35434202359E+01  0.44551968039E+01  0.10500000000E+00 0.  1.
         13    1    4    4    0    0  0.34713118275E+00 -0.96922335719E+00 -0.12990634803E+01  0.16608687185E+01  0.10500000000E+00 0. -1.
    3000001    1    5    5    0    0 -0.69967795634E+01  0.10101522214E+02  0.40150629155E+01  0.12965971059E+02  0.10000000000E+01 0. -1.
        -13    1    6    6    0    0 -0.18825548668E+02  0.15148917926E+02  0.16838958243E+02  0.29452547202E+02  0.10500000000E+00 0.  1.
         13    1    6    6    0    0 -0.12754957668E+02  0.10389698382E+02  0.11516078770E+02  0.20081480843E+02  0.10500000000E+00 0. -1.
</event>
<event>
11    0  0.3396091E-009  0.9118800E+02  0.7816531E-02  0.1126479E+00
         25   -1    0    0    0    0  0.00000000000E+00  0.00000000000E+00  0.99999998245E-14  0.12500000000E+03  0.12500000000E+03 0.  0.
    3000001    1    3    3    0    0 -0.17899463009E+02  0.16382126508E+01  0.95214907472E+01  0.20365001909E+02  0.10000000000E+01 0.  1.
    1000022    2    1    0    0    0 -0.48472693664E+02 -0.40509360872E+01  0.37950465966E+02  0.62499999482E+02  0.99999977021E+01 0.  0.
    3000022    2    3    3    0    0 -0.30573230654E+02 -0.56891487380E+01  0.28428975219E+02  0.42134997573E+02  0.25008494540E+00 0.  0.
    1000022    2    1    0    0    0  0.48472693664E+02  0.40509360872E+01 -0.37950465966E+02  0.62500000518E+02  0.10000004175E+02 0.  0.
    3000022    2    5    5    0    0  0.25095344923E+02  0.64954800526E+01 -0.17024426771E+02  0.31013886979E+02  0.24996159585E+00 0.  0.
        -13    1    4    4    0    0 -0.87528081532E+01 -0.16694789447E+01  0.81291509808E+01  0.12062045066E+02  0.10500000000E+00 0. -1.
         13    1    4    4    0    0 -0.21820422501E+02 -0.40196697933E+01  0.20299824238E+02  0.30072952507E+02  0.10500000000E+00 0.  1.
    3000001    1    5    5    0    0  0.23377348741E+02 -0.24445439654E+01 -0.20926039195E+02  0.31486113538E+02  0.10000000000E+01 0. -1.
        -13    1    6    6    0    0  0.16381684768E+02  0.42863934579E+01 -0.11080498999E+02  0.20236631335E+02  0.10500000000E+00 0.  1.
         13    1    6    6    0    0  0.87136601542E+01  0.22090865947E+01 -0.59439277723E+01  0.10777255645E+02  0.10500000000E+00 0. -1.
</event>
<event>
11    0  0.3396091E-009  0.9118800E+02  0.7816531E-02  0.1126479E+00
         25   -1    0    0    0    0  0.00000000000E+00  0.00000000000E+00  0.99999998245E-14  0.12500000000E+03  0.12500000000E+03 0.  0.
    3000001    1    3    3    0    0  0.17217705832E+02 -0.33470834940E+02 -0.14028826885E+02  0.40181515271E+02  0.10000000000E+01 0.  1.
    1000022    2    1    0    0    0  0.29513667206E+02 -0.52071921018E+02 -0.14956881963E+02  0.62500002500E+02  0.10000024196E+02 0.  0.
    3000022    2    3    3    0    0  0.12295961374E+02 -0.18601086079E+02 -0.92805507787E+00  0.22318487229E+02  0.25003310336E+00 0.  0.
    1000022    2    1    0    0    0 -0.29513667206E+02  0.52071921018E+02  0.14956881963E+02  0.62499997500E+02  0.99999929506E+01 0.  0.
    3000022    2    5    5    0    0 -0.98261136303E+01  0.14193685663E+02  0.28579068666E-01  0.17264892695E+02  0.24996247788E+00 0.  0.
        -13    1    4    4    0    0  0.45843460941E+01 -0.70059475030E+01 -0.39444751367E+00  0.83824902843E+01  0.10500000000E+00 0.  1.
         13    1    4    4    0    0  0.77116152795E+01 -0.11595138576E+02 -0.53360756420E+00  0.13935996945E+02  0.10500000000E+00 0. -1.
    3000001    1    5    5    0    0 -0.19687553575E+02  0.37878235356E+02  0.14928302894E+02  0.45235104805E+02  0.10000000000E+01 0. -1.
        -13    1    6    6    0    0 -0.48187821524E+01  0.68457308293E+01  0.31218273999E-01  0.83723766996E+01  0.10500000000E+00 0.  1.
         13    1    6    6    0    0 -0.50073314779E+01  0.73479548337E+01 -0.26392053328E-02  0.88925159956E+01  0.10500000000E+00 0. -1.
</event>
<event>
11    0  0.3396091E-009  0.9118800E+02  0.7816531E-02  0.1126479E+00
         25   -1    0    0    0    0  0.00000000000E+00  0.00000000000E+00  0.99999998245E-14  0.12500000000E+03  0.12500000000E+03 0.  0.
    3000001    1    3    3    0    0  0.36760774595E+02  0.20399037162E+02 -0.23832080776E+02  0.48336770062E+02  0.10000000000E+01 0.  1.
    1000022    2    1    0    0    0  0.49760815317E+02  0.21735430630E+02 -0.29286213123E+02  0.62499999949E+02  0.10000001440E+02 0.  0.
    3000022    2    3    3    0    0  0.13000040722E+02  0.13363934679E+01 -0.54541323473E+01  0.14163229886E+02  0.25002973414E+00 0.  0.
    1000022    2    1    0    0    0 -0.49760815317E+02 -0.21735430630E+02  0.29286213123E+02  0.62500000051E+02  0.10000002080E+02 0.  0.
    3000022    2    5    5    0    0 -0.30219181068E+02 -0.11476473932E+02  0.22508084985E+02  0.39390160529E+02  0.24999704337E+00 0.  0.
        -13    1    4    4    0    0  0.76152548338E+01  0.83738135687E+00 -0.31596456165E+01  0.82878042413E+01  0.10500000000E+00 0.  1.
         13    1    4    4    0    0  0.53847858886E+01  0.49901211099E+00 -0.22944867308E+01  0.58754256451E+01  0.10500000000E+00 0. -1.
    3000001    1    5    5    0    0 -0.19541634250E+02 -0.10258956698E+02  0.67781281383E+01  0.23109839522E+02  0.10000000000E+01 0.  1.
        -13    1    6    6    0    0 -0.17087855678E+02 -0.65264813383E+01  0.12668325206E+02  0.22250556372E+02  0.10500000000E+00 0.  1.
         13    1    6    6    0    0 -0.13131325390E+02 -0.49499925939E+01  0.98397597787E+01  0.17139604157E+02  0.10500000000E+00 0. -1.
</event>
<event>
11    0  0.3396091E-009  0.9118800E+02  0.7816531E-02  0.1126479E+00
         25   -1    0    0    0    0  0.00000000000E+00  0.00000000000E+00  0.99999998245E-14  0.12500000000E+03  0.12500000000E+03 0.  0.
    3000001    1    3    3    0    0  0.48552399481E+01  0.20769901238E+01 -0.16682710452E+02  0.17527123864E+02  0.10000000000E+01 0. -1.
    1000022    2    1    0    0    0  0.18583844428E+02  0.22249209057E+02 -0.54459741741E+02  0.62500000031E+02  0.99999977996E+01 0.  0.
    3000022    2    3    3    0    0  0.13728604480E+02  0.20172218933E+02 -0.37777031289E+02  0.44972876167E+02  0.25000010679E+00 0.  0.
    1000022    2    1    0    0    0 -0.18583844428E+02 -0.22249209057E+02  0.54459741741E+02  0.62499999969E+02  0.99999974177E+01 0.  0.
    3000022    2    5    5    0    0 -0.78360733792E+01 -0.16738544790E+02  0.34821438683E+02  0.39423064511E+02  0.24999157595E+00 0.  0.
        -13    1    4    4    0    0  0.88214394021E+01  0.13037259025E+02 -0.24440911932E+02  0.29071586078E+02  0.10500000000E+00 0.  1.
         13    1    4    4    0    0  0.49071650776E+01  0.71349599073E+01 -0.13336119357E+02  0.15901290089E+02  0.10500000000E+00 0. -1.
    3000001    1    5    5    0    0 -0.10747771049E+02 -0.55106642669E+01  0.19638303057E+02  0.23076935458E+02  0.10000000000E+01 0.  1.
        -13    1    6    6    0    0 -0.47148672962E+01 -0.10193130578E+02  0.21232885470E+02  0.24020331700E+02  0.10500000000E+00 0. -1.
         13    1    6    6    0    0 -0.31212060830E+01 -0.65454142116E+01  0.13588553214E+02  0.15402732811E+02  0.10500000000E+00 0.  1.
</event>
<event>
11    0  0.3396091E-009  0.9118800E+02  0.7816531E-02  0.1126479E+00
         25   -1    0    0    0    0  0.00000000000E+00  0.00000000000E+00  0.99999998245E-14  0.12500000000E+03  0.12500000000E+03 0.  0.
    3000001    1    3    3    0    0  0.42304559884E+02  0.29615639198E+01 -0.17615473312E+02  0.45932031828E+02  0.10000000000E+01 0. -1.
    1000022    2    1    0    0    0  0.55161676620E+02 -0.10085409749E-01 -0.27630404378E+02  0.62499999316E+02  0.99999999605E+01 0.  0.
    3000022    2    3    3    0    0  0.12857116736E+02 -0.29716493296E+01 -0.10014931065E+02  0.16567967488E+02  0.25010387082E+00 0.  0.
    1000022    2    1    0    0    0 -0.55161676620E+02  0.10085409749E-01  0.27630404378E+02  0.62500000684E+02  0.10000008505E+02 0.  0.
    3000022    2    5    5    0    0 -0.33084717627E+02 -0.38384942013E+01  0.19755808545E+02  0.38725793169E+02  0.25001423732E+00 0.  0.
        -13    1    4    4    0    0  0.46300081265E+01 -0.11300370218E+01 -0.36168168998E+01  0.59838406069E+01  0.10500000000E+00 0.  1.
         13    1    4    4    0    0  0.82271086097E+01 -0.18416123077E+01 -0.63981141656E+01  0.10584126882E+02  0.10500000000E+00 0. -1.
    3000001    1    5    5    0    0 -0.22076958993E+02  0.38485796110E+01  0.78745958323E+01  0.23774207514E+02  0.10000000000E+01 0. -1.
        -13    1    6    6    0    0 -0.15572999066E+02 -0.18630131751E+01  0.92589993997E+01  0.18213434955E+02  0.10500000000E+00 0.  1.
         13    1    6    6    0    0 -0.17511718561E+02 -0.19754810261E+01  0.10496809146E+02  0.20512358214E+02  0.10500000000E+00 0. -1.
</event>
<event>
11    0  0.3396091E-009  0.9118800E+02  0.7816531E-02  0.1126479E+00
         25   -1    0    0    0    0  0.00000000000E+00  0.00000000000E+00  0.99999998245E-14  0.12500000000E+03  0.12500000000E+03 0.  0.
    3000001    1    3    3    0    0 -0.99838709243E+00 -0.18132762725E+01 -0.20744015487E+01  0.30964317225E+01  0.10000000000E+01 0.  1.
    1000022    2    1    0    0    0 -0.51914927076E+02 -0.24683801755E+02 -0.22400897865E+02  0.62500000053E+02  0.10000002955E+02 0.  0.
    3000022    2    3    3    0    0 -0.50916539983E+02 -0.22870525482E+02 -0.20326496316E+02  0.59403568330E+02  0.24999635886E+00 0.  0.
    1000022    2    1    0    0    0  0.51914927076E+02  0.24683801755E+02  0.22400897865E+02  0.62499999947E+02  0.10000002299E+02 0.  0.
    3000022    2    5    5    0    0  0.36755184210E+02  0.19044067012E+02  0.11483378757E+02  0.42959871105E+02  0.24996599046E+00 0.  0.
        -13    1    4    4    0    0 -0.13555008408E+02 -0.61250023141E+01 -0.54268742855E+01  0.15834010730E+02  0.10500000000E+00 0.  1.
         13    1    4    4    0    0 -0.37361531575E+02 -0.16745523168E+02 -0.14899622030E+02  0.43569557600E+02  0.10500000000E+00 0. -1.
    3000001    1    5    5    0    0  0.15159742865E+02  0.56397347424E+01  0.10917519108E+02  0.19540128842E+02  0.10000000000E+01 0. -1.
        -13    1    6    6    0    0  0.11317835887E+02  0.58594473891E+01  0.35849651535E+01  0.13239695353E+02  0.10500000000E+00 0.  1.
         13    1    6    6    0    0  0.25437348323E+02  0.13184619623E+02  0.78984136031E+01  0.29720175752E+02  0.10500000000E+00 0. -1.
</event>
<event>
11    0  0.3396091E-009  0.9118800E+02  0.7816531E-02  0.1126479E+00
         25   -1    0    0    0    0  0.00000000000E+00  0.00000000000E+00  0.99999998245E-14  0.12500000000E+03  0.12500000000E+03 0.  0.
    3000001    1    3    3    0    0 -0.27862861783E+02 -0.11268429848E+02 -0.33278213498E+02  0.44852603844E+02  0.10000000000E+01 0. -1.
    1000022    2    1    0    0    0 -0.35838841404E+02 -0.21100736252E+02 -0.45569577283E+02  0.62500000843E+02  0.10000005402E+02 0.  0.
    3000022    2    3    3    0    0 -0.79759796210E+01 -0.98323064046E+01 -0.12291363785E+02  0.17647396999E+02  0.24999398147E+00 0.  0.
    1000022    2    1    0    0    0  0.35838841404E+02  0.21100736252E+02  0.45569577283E+02  0.62499999157E+02  0.99999948667E+01 0.  0.
    3000022    2    5    5    0    0  0.32873919983E+02  0.20524175057E+02  0.37946643235E+02  0.54239714335E+02  0.25000303370E+00 0.  0.
        -13    1    4    4    0    0 -0.49770849799E+01 -0.62247121740E+01 -0.77090976007E+01  0.11088716218E+02  0.10500000000E+00 0.  1.
         13    1    4    4    0    0 -0.29988946411E+01 -0.36075942306E+01 -0.45822661845E+01  0.65586807810E+01  0.10500000000E+00 0. -1.
    3000001    1    5    5    0    0  0.29649214214E+01  0.57656119503E+00  0.76229340481E+01  0.82602848225E+01  0.10000000000E+01 0.  1.
        -13    1    6    6    0    0  0.17242220401E+02  0.10826275016E+02  0.19994760940E+02  0.28536010322E+02  0.10500000000E+00 0.  1.
         13    1    6    6    0    0  0.15631699582E+02  0.96979000412E+01  0.17951882295E+02  0.25703704013E+02  0.10500000000E+00 0. -1.
</event>
<event>
11    0  0.3396091E-009  0.9118800E+02  0.7816531E-02  0.1126479E+00
         25   -1    0    0    0    0  0.00000000000E+00  0.00000000000E+00  0.99999998245E-14  0.12500000000E+03  0.12500000000E+03 0.  0.
    3000001    1    3    3    0    0  0.17416888951E+02  0.33025349417E+02  0.42046342378E+01  0.37585910577E+02  0.10000000000E+01 0. -1.
    1000022    2    1    0    0    0  0.31280942272E+02  0.53173916730E+02 -0.53589483319E+00  0.62500000140E+02  0.10000003218E+02 0.  0.
    3000022    2    3    3    0    0  0.13864053321E+02  0.20148567313E+02 -0.47405290710E+01  0.24914089563E+02  0.25000720262E+00 0.  0.
    1000022    2    1    0    0    0 -0.31280942272E+02 -0.53173916730E+02  0.53589483319E+00  0.62499999860E+02  0.10000001466E+02 0.  0.
    3000022    2    5    5    0    0 -0.13660123012E+02 -0.19572229292E+02 -0.42504895310E+01  0.24244593112E+02  0.25002756773E+00 0.  0.
        -13    1    4    4    0    0  0.35476401440E+01  0.51705146962E+01 -0.11863152310E+01  0.63826594491E+01  0.10500000000E+00 0. -1.
         13    1    4    4    0    0  0.10316413177E+02  0.14978052617E+02 -0.35542138399E+01  0.18531430114E+02  0.10500000000E+00 0.  1.
    3000001    1    5    5    0    0 -0.17620819260E+02 -0.33601687439E+02  0.47863843642E+01  0.38255406748E+02  0.10000000000E+01 0. -1.
        -13    1    6    6    0    0 -0.10109688193E+02 -0.14538342996E+02 -0.31489514187E+01  0.17985998234E+02  0.10500000000E+00 0. -1.
         13    1    6    6    0    0 -0.35504348189E+01 -0.50338862954E+01 -0.11015381123E+01  0.62585948784E+01  0.10500000000E+00 0.  1.
</event>
<event>
11    0  0.3396091E-009  0.9118800E+02  0.7816531E-02  0.1126479E+00
         25   -1    0    0    0    0  0.00000000000E+00  0.00000000000E+00  0.99999998245E-14  0.12500000000E+03  0.12500000000E+03 0.  0.
    3000001    1    3    3    0    0 -0.32760775957E+02  0.51122860341E+02  0.34042624116E+01  0.60822728427E+02  0.10000000000E+01 0.  1.
    1000022    2    1    0    0    0 -0.34386596377E+02  0.51087163950E+02  0.37301162843E+01  0.62500000903E+02  0.10000000724E+02 0.  0.
    3000022    2    3    3    0    0 -0.16258204199E+01 -0.35696390499E-01  0.32585387266E+00  0.16772724758E+01  0.24999188332E+00 0.  0.
    1000022    2    1    0    0    0  0.34386596377E+02 -0.51087163950E+02 -0.37301162843E+01  0.62499999097E+02  0.99999894391E+01 0.  0.
    3000022    2    5    5    0    0  0.22187127861E+02 -0.29821831494E+02 -0.67485339324E+01  0.37778505581E+02  0.24999470845E+00 0.  0.
        -13    1    4    4    0    0 -0.85343575547E+00 -0.86268798377E-01  0.17126230062E+00  0.88099413727E+00  0.10500000000E+00 0.  1.
         13    1    4    4    0    0 -0.77238466440E+00  0.50572407878E-01  0.15459157203E+00  0.79627833851E+00  0.10500000000E+00 0. -1.
    3000001    1    5    5    0    0  0.12199468516E+02 -0.21265332457E+02  0.30184176481E+01  0.24721493516E+02  0.10000000000E+01 0.  1.
        -13    1    6    6    0    0  0.15099337674E+02 -0.20284386195E+02 -0.46421522385E+01  0.25710054919E+02  0.10500000000E+00 0.  1.
         13    1    6    6    0    0  0.70877901869E+01 -0.95374452982E+01 -0.21063816940E+01  0.12068450662E+02  0.10500000000E+00 0. -1.
</event>
<event>
11    0  0.3396091E-009  0.9118800E+02  0.7816531E-02  0.1126479E+00
         25   -1    0    0    0    0  0.00000000000E+00  0.00000000000E+00  0.99999998245E-14  0.12500000000E+03  0.12500000000E+03 0.  0.
    3000001    1    3    3    0    0 -0.18521427829E+02  0.91266876640E+01  0.26591918906E+02  0.33681892281E+02  0.10000000000E+01 0.  1.
    1000022    2    1    0    0    0 -0.36967032123E+02  0.23459314074E+02  0.43466643893E+02  0.62500000015E+02  0.99999994861E+01 0.  0.
    3000022    2    3    3    0    0 -0.18445604294E+02  0.14332626410E+02  0.16874724988E+02  0.28818107734E+02  0.24998477651E+00 0.  0.
    1000022    2    1    0    0    0  0.36967032123E+02 -0.23459314074E+02 -0.43466643893E+02  0.62499999985E+02  0.99999993031E+01 0.  0.
    3000022    2    5    5    0    0  0.46866935806E+00 -0.82494239580E+00  0.43822038186E+00  0.10745787596E+01  0.25000296780E+00 0.  0.
        -13    1    4    4    0    0 -0.13483186518E+02  0.10520734120E+02  0.12348009034E+02  0.21094229476E+02  0.10500000000E+00 0.  1.
         13    1    4    4    0    0 -0.49624177758E+01  0.38118922900E+01  0.45267159536E+01  0.77238782575E+01  0.10500000000E+00 0. -1.
    3000001    1    5    5    0    0  0.36498362764E+02 -0.22634371678E+02 -0.43904864275E+02  0.61425421226E+02  0.10000000000E+01 0. -1.
        -13    1    6    6    0    0  0.12529480446E+00 -0.27101615031E+00  0.94389449405E-01  0.33027701995E+00  0.10500000000E+00 0. -1.
         13    1    6    6    0    0  0.34337455360E+00 -0.55392624549E+00  0.34383093245E+00  0.74430173963E+00  0.10500000000E+00 0.  1.
</event>
<event>
11    0  0.3396091E-009  0.9118800E+02  0.7816531E-02  0.1126479E+00
         25   -1    0    0    0    0  0.00000000000E+00  0.00000000000E+00  0.99999998245E-14  0.12500000000E+03  0.12500000000E+03 0.  0.
    3000001    1    3    3    0    0 -0.67323120862E-01 -0.14707154427E+02 -0.18945602843E+02  0.24005015952E+02  0.10000000000E+01 0.  1.
    1000022    2    1    0    0    0 -0.12141678676E+02 -0.34715993106E+02 -0.49534123486E+02  0.62499999826E+02  0.10000002517E+02 0.  0.
    3000022    2    3    3    0    0 -0.12074355556E+02 -0.20008838679E+02 -0.30588520643E+02  0.38494983874E+02  0.25000207330E+00 0.  0.
    1000022    2    1    0    0    0  0.12141678676E+02  0.34715993106E+02  0.49534123486E+02  0.62500000174E+02  0.10000004692E+02 0.  0.
    3000022    2    5    5    0    0  0.13717808231E+02  0.29011726851E+02  0.42431673468E+02  0.53201202718E+02  0.24999954421E+00 0.  0.
        -13    1    4    4    0    0 -0.85419712375E+01 -0.14173034915E+02 -0.21729082638E+02  0.27313078344E+02  0.10500000000E+00 0. -1.
         13    1    4    4    0    0 -0.35323843181E+01 -0.58358037639E+01 -0.88594380045E+01  0.11181905531E+02  0.10500000000E+00 0.  1.
    3000001    1    5    5    0    0 -0.15761295546E+01  0.57042662543E+01  0.71024500175E+01  0.92987974558E+01  0.10000000000E+01 0. -1.
        -13    1    6    6    0    0  0.95238007190E+01  0.20128055803E+02  0.29363830296E+02  0.36852231482E+02  0.10500000000E+00 0.  1.
         13    1    6    6    0    0  0.41940075121E+01  0.88836710486E+01  0.13067843172E+02  0.16348971236E+02  0.10500000000E+00 0. -1.
</event>
<event>
11    0  0.3396091E-009  0.9118800E+02  0.7816531E-02  0.1126479E+00
         25   -1    0    0    0    0  0.00000000000E+00  0.00000000000E+00  0.99999998245E-14  0.12500000000E+03  0.12500000000E+03 0.  0.
    3000001    1    3    3    0    0 -0.18758352406E+01  0.55325953657E+01  0.14208376066E+01  0.60948460879E+01  0.10000000000E+01 0.  1.
    1000022    2    1    0    0    0 -0.43261921250E+02  0.40916647174E+02  0.16139523205E+02  0.62500000512E+02  0.10000000431E+02 0.  0.
    3000022    2    3    3    0    0 -0.41386086009E+02  0.35384051808E+02  0.14718685598E+02  0.56405154425E+02  0.25000482865E+00 0.  0.
    1000022    2    1    0    0    0  0.43261921250E+02 -0.40916647174E+02 -0.16139523205E+02  0.62499999488E+02  0.99999940254E+01 0.  0.
    3000022    2    5    5    0    0  0.77641765519E+01 -0.62552771839E+01 -0.66223768255E+01  0.11972021857E+02  0.25000470931E+00 0.  0.
        -13    1    4    4    0    0 -0.28865705316E+02  0.24728493617E+02  0.10245911666E+02  0.39366446002E+02  0.10500000000E+00 0.  1.
         13    1    4    4    0    0 -0.12520380694E+02  0.10655558191E+02  0.44727739324E+01  0.17038708423E+02  0.10500000000E+00 0. -1.
    3000001    1    5    5    0    0  0.35497744698E+02 -0.34661369990E+02 -0.95171463792E+01  0.50527977630E+02  0.10000000000E+01 0.  1.
        -13    1    6    6    0    0  0.19640493899E+01 -0.15482944938E+01 -0.16568596579E+01  0.30018185774E+01  0.10500000000E+00 0. -1.
         13    1    6    6    0    0  0.58001271620E+01 -0.47069826901E+01 -0.49655171676E+01  0.89702032798E+01  0.10500000000E+00 0.  1.
</event>
<event>
11    0  0.3396091E-009  0.9118800E+02  0.7816531E-02  0.1126479E+00
         25   -1    0    0    0    0  0.00000000000E+00  0.00000000000E+00  0.99999998245E-14  0.12500000000E+03  0.12500000000E+03 0.  0.
    3000001    1    3    3    0    0 -0.13818996691E+02  0.35053786159E+02 -0.10155868930E+02  0.39036832189E+02  0.10000000000E+01 0. -1.
    1000022    2    1    0    0    0 -0.24797462371E+02  0.51969809317E+02 -0.22146666343E+02  0.62500000564E+02  0.10000000995E+02 0.  0.
    3000022    2    3    3    0    0 -0.10978465680E+02  0.16916023158E+02 -0.11990797413E+02  0.23463168375E+02  0.24999884058E+00 0.  0.
    1000022    2    1    0    0    0  0.24797462371E+02 -0.51969809317E+02  0.22146666343E+02  0.62499999436E+02  0.99999939473E+01 0.  0.
    3000022    2    5    5    0    0  0.15990783011E+02 -0.42795322798E+02  0.17090775461E+02  0.48778088606E+02  0.25005490399E+00 0.  0.
        -13    1    4    4    0    0 -0.61252140533E+01  0.94671270224E+01 -0.66297080721E+01  0.13080856064E+02  0.10500000000E+00 0. -1.
         13    1    4    4    0    0 -0.48532516266E+01  0.74488961355E+01 -0.53610893410E+01  0.10382312310E+02  0.10500000000E+00 0.  1.
    3000001    1    5    5    0    0  0.88066793602E+01 -0.91744865189E+01  0.50558908815E+01  0.13721910831E+02  0.10000000000E+01 0. -1.
        -13    1    6    6    0    0  0.52335067044E+01 -0.14079806907E+02  0.55703669662E+01  0.16020941548E+02  0.10500000000E+00 0.  1.
         13    1    6    6    0    0  0.10757276306E+02 -0.28715515891E+02  0.11520408495E+02  0.32757147057E+02  0.10500000000E+00 0. -1.
</event>
<event>
11    0  0.3396091E-009  0.9118800E+02  0.7816531E-02  0.1126479E+00
         25   -1    0    0    0    0  0.00000000000E+00  0.00000000000E+00  0.99999998245E-14  0.12500000000E+03  0.12500000000E+03 0.  0.
    3000001    1    3    3    0    0 -0.50701276196E+02 -0.16856986064E+02 -0.17378612773E+02  0.56194248540E+02  0.10000000000E+01 0.  1.
    1000022    2    1    0    0    0 -0.56134236280E+02 -0.15585090327E+02 -0.20305243724E+02  0.62499995414E+02  0.99999490407E+01 0.  0.
    3000022    2    3    3    0    0 -0.54329600835E+01  0.12718957367E+01 -0.29266309508E+01  0.63057468735E+01  0.25000175316E+00 0.  0.
    1000022    2    1    0    0    0  0.56134236280E+02  0.15585090327E+02  0.20305243724E+02  0.62500004586E+02  0.10000006370E+02 0.  0.
    3000022    2    5    5    0    0  0.38246711166E+02  0.58390932233E+01  0.12444585594E+02  0.40642787003E+02  0.25000017957E+00 0.  0.
        -13    1    4    4    0    0 -0.20804781726E+01  0.54496741720E+00 -0.11006546273E+01  0.24182316930E+01  0.10500000000E+00 0.  1.
         13    1    4    4    0    0 -0.33524819110E+01  0.72692831953E+00 -0.18259763235E+01  0.38875151805E+01  0.10500000000E+00 0. -1.
    3000001    1    5    5    0    0  0.17887525113E+02  0.97459971040E+01  0.78606581300E+01  0.21857217583E+02  0.10000000000E+01 0.  1.
        -13    1    6    6    0    0  0.14738155192E+02  0.21887828034E+01  0.47817503060E+01  0.15648646894E+02  0.10500000000E+00 0. -1.
         13    1    6    6    0    0  0.23508555975E+02  0.36503104199E+01  0.76628352881E+01  0.24994140110E+02  0.10500000000E+00 0.  1.
</event>
<event>
11    0  0.3396091E-009  0.9118800E+02  0.7816531E-02  0.1126479E+00
         25   -1    0    0    0    0  0.00000000000E+00  0.00000000000E+00  0.99999998245E-14  0.12500000000E+03  0.12500000000E+03 0.  0.
    3000001    1    3    3    0    0 -0.29251485605E+02 -0.11834252997E+02 -0.46481745395E+02  0.56189426132E+02  0.10000000000E+01 0.  1.
    1000022    2    1    0    0    0 -0.34813255649E+02 -0.12470741032E+02 -0.49383883826E+02  0.62499998507E+02  0.99999840468E+01 0.  0.
    3000022    2    3    3    0    0 -0.55617700440E+01 -0.63648803501E+00 -0.29021384304E+01  0.63105723749E+01  0.25002637586E+00 0.  0.
    1000022    2    1    0    0    0  0.34813255649E+02  0.12470741032E+02  0.49383883826E+02  0.62500001493E+02  0.10000002704E+02 0.  0.
    3000022    2    5    5    0    0 -0.17935952953E+00  0.13893534271E+00  0.33515892896E+01  0.33685488733E+01  0.24999575078E+00 0.  0.
        -13    1    4    4    0    0 -0.37897626802E+01 -0.46272900924E+00 -0.19316578931E+01  0.42800404816E+01  0.10500000000E+00 0.  1.
         13    1    4    4    0    0 -0.17720073638E+01 -0.17375902577E+00 -0.97048053737E+00  0.20305318933E+01  0.10500000000E+00 0. -1.
    3000001    1    5    5    0    0  0.34992615178E+02  0.12331805690E+02  0.46032294536E+02  0.59131452619E+02  0.10000000000E+01 0.  1.
        -13    1    6    6    0    0 -0.74332066451E-01  0.71546047229E-01  0.94049798678E+00  0.95194829488E+00  0.10500000000E+00 0. -1.
         13    1    6    6    0    0 -0.10502746308E+00  0.67389295480E-01  0.24110913029E+01  0.24166005785E+01  0.10500000000E+00 0.  1.
</event>
<event>
11    0  0.3396091E-009  0.9118800E+02  0.7816531E-02  0.1126479E+00
         25   -1    0    0    0    0  0.00000000000E+00  0.00000000000E+00  0.99999998245E-14  0.12500000000E+03  0.12500000000E+03 0.  0.
    3000001    1    3    3    0    0 -0.20849559640E+02  0.36743290242E+02  0.14694696927E+02  0.44740447391E+02  0.10000000000E+01 0. -1.
    1000022    2    1    0    0    0 -0.32683774124E+02  0.46919300522E+02  0.23164618076E+02  0.62500004862E+02  0.10000061234E+02 0.  0.
    3000022    2    3    3    0    0 -0.11834214484E+02  0.10176010280E+02  0.84699211495E+01  0.17759557471E+02  0.24999922922E+00 0.  0.
    1000022    2    1    0    0    0  0.32683774124E+02 -0.46919300522E+02 -0.23164618076E+02  0.62499995138E+02  0.10000000455E+02 0.  0.
    3000022    2    5    5    0    0  0.73969345017E+01 -0.18673992535E+02 -0.69554709879E+01  0.21257321476E+02  0.25000495412E+00 0.  0.
        -13    1    4    4    0    0 -0.85901235772E+01  0.74164228716E+01  0.61915674341E+01  0.12928266843E+02  0.10500000000E+00 0.  1.
         13    1    4    4    0    0 -0.32440909071E+01  0.27595874085E+01  0.22783537154E+01  0.48312906279E+01  0.10500000000E+00 0. -1.
    3000001    1    5    5    0    0  0.25286839623E+02 -0.28245307988E+02 -0.16209147088E+02  0.41242673661E+02  0.10000000000E+01 0. -1.
        -13    1    6    6    0    0  0.44509449485E+01 -0.11122000685E+02 -0.41983262341E+01  0.12694360100E+02  0.10500000000E+00 0.  1.
         13    1    6    6    0    0  0.29459895532E+01 -0.75519918494E+01 -0.27571447538E+01  0.85629613765E+01  0.10500000000E+00 0. -1.
</event>
<event>
11    0  0.3396091E-009  0.9118800E+02  0.7816531E-02  0.1126479E+00
         25   -1    0    0    0    0  0.00000000000E+00  0.00000000000E+00  0.99999998245E-14  0.12500000000E+03  0.12500000000E+03 0.  0.
    3000001    1    3    3    0    0  0.12823939555E+02  0.19841255596E+02 -0.45707869643E+02  0.51462007312E+02  0.10000000000E+01 0. -1.
    1000022    2    1    0    0    0  0.13194604572E+02  0.27536089429E+02 -0.53608928142E+02  0.62499990964E+02  0.99998941529E+01 0.  0.
    3000022    2    3    3    0    0  0.37066501701E+00  0.76948338330E+01 -0.79010584992E+01  0.11037983651E+02  0.24999481308E+00 0.  0.
    1000022    2    1    0    0    0 -0.13194604572E+02 -0.27536089429E+02  0.53608928142E+02  0.62500009036E+02  0.10000007109E+02 0.  0.
    3000022    2    5    5    0    0 -0.21423088082E+01 -0.10751267849E+02  0.11844441369E+02  0.16141020345E+02  0.24999807486E+00 0.  0.
        -13    1    4    4    0    0  0.14408813931E+00  0.22935626304E+01 -0.24020868310E+01  0.33259941484E+01  0.10500000000E+00 0.  1.
         13    1    4    4    0    0  0.22657687769E+00  0.54012712026E+01 -0.54989716682E+01  0.77119895029E+01  0.10500000000E+00 0. -1.
    3000001    1    5    5    0    0 -0.11052295764E+02 -0.16784821581E+02  0.41764486773E+02  0.46358988692E+02  0.10000000000E+01 0.  1.
        -13    1    6    6    0    0 -0.11690031219E+01 -0.59261434626E+01  0.64293391934E+01  0.88223110409E+01  0.10500000000E+00 0. -1.
         13    1    6    6    0    0 -0.97330568630E+00 -0.48251243861E+01  0.54151021756E+01  0.73187093037E+01  0.10500000000E+00 0.  1.
</event>
<event>
11    0  0.3396091E-009  0.9118800E+02  0.7816531E-02  0.1126479E+00
         25   -1    0    0    0    0  0.00000000000E+00  0.00000000000E+00  0.99999998245E-14  0.12500000000E+03  0.12500000000E+03 0.  0.
    3000001    1    3    3    0    0 -0.12018410578E+01  0.18866213525E+02 -0.16749735597E+02  0.25277105793E+02  0.10000000000E+01 0. -1.
    1000022    2    1    0    0    0 -0.22289496627E+01  0.37412833465E+02 -0.49005731074E+02  0.62499999328E+02  0.99999956719E+01 0.  0.
    3000022    2    3    3    0    0 -0.10271086049E+01  0.18546619940E+02 -0.32255995477E+02  0.37222893535E+02  0.24999123772E+00 0.  0.
    1000022    2    1    0    0    0  0.22289496627E+01 -0.37412833465E+02  0.49005731074E+02  0.62500000672E+02  0.10000004073E+02 0.  0.
    3000022    2    5    5    0    0  0.57537764571E+01 -0.25455659737E+02  0.30190426392E+02  0.39907654673E+02  0.24999915297E+00 0.  0.
        -13    1    4    4    0    0 -0.35171390573E+00  0.64879144938E+01 -0.11395963683E+02  0.13118526991E+02  0.10500000000E+00 0.  1.
         13    1    4    4    0    0 -0.67539469917E+00  0.12058705446E+02 -0.20860031794E+02  0.24104366544E+02  0.10500000000E+00 0. -1.
    3000001    1    5    5    0    0 -0.35248267944E+01 -0.11957173728E+02  0.18815304682E+02  0.22592345999E+02  0.10000000000E+01 0. -1.
        -13    1    6    6    0    0  0.32397652567E+01 -0.14298832899E+02  0.16859924341E+02  0.22343248980E+02  0.10500000000E+00 0.  1.
         13    1    6    6    0    0  0.25140112004E+01 -0.11156826838E+02  0.13330502052E+02  0.17564405693E+02  0.10500000000E+00 0. -1.
</event>
<event>
11    0  0.3396091E-009  0.9118800E+02  0.7816531E-02  0.1126479E+00
         25   -1    0    0    0    0  0.00000000000E+00  0.00000000000E+00  0.99999998245E-14  0.12500000000E+03  0.12500000000E+03 0.  0.
    3000001    1    3    3    0    0 -0.34351869308E+02 -0.20583011683E+02  0.48440723967E+01  0.40350667062E+02  0.10000000000E+01 0. -1.
    1000022    2    1    0    0    0 -0.50463119214E+02 -0.32489502663E+02  0.14288306937E+02  0.62500000382E+02  0.10000007426E+02 0.  0.
    3000022    2    3    3    0    0 -0.16111249906E+02 -0.11906490980E+02  0.94442345407E+01  0.22149333320E+02  0.24999901694E+00 0.  0.
    1000022    2    1    0    0    0  0.50463119214E+02  0.32489502663E+02 -0.14288306937E+02  0.62499999618E+02  0.10000002651E+02 0.  0.
    3000022    2    5    5    0    0  0.45160237167E+02  0.25381737502E+02 -0.10802172215E+02  0.52919080096E+02  0.24998807660E+00 0.  0.
        -13    1    4    4    0    0 -0.11340762360E+02 -0.84297245072E+01  0.66382344153E+01  0.15612505479E+02  0.10500000000E+00 0.  1.
         13    1    4    4    0    0 -0.47704875454E+01 -0.34767664725E+01  0.28060001254E+01  0.65368278415E+01  0.10500000000E+00 0. -1.
    3000001    1    5    5    0    0  0.53028820473E+01  0.71077651610E+01 -0.34861347221E+01  0.95809195223E+01  0.10000000000E+01 0. -1.
        -13    1    6    6    0    0  0.24961546584E+02  0.14078741230E+02 -0.60274914764E+01  0.29285345157E+02  0.10500000000E+00 0.  1.
         13    1    6    6    0    0  0.20198690583E+02  0.11302996271E+02 -0.47746807389E+01  0.23633734938E+02  0.10500000000E+00 0. -1.
</event>
<event>
11    0  0.3396091E-009  0.9118800E+02  0.7816531E-02  0.1126479E+00
         25   -1    0    0    0    0  0.00000000000E+00  0.00000000000E+00  0.99999998245E-14  0.12500000000E+03  0.12500000000E+03 0.  0.
    3000001    1    3    3    0    0  0.48627921297E+02 -0.14290252139E+02  0.20746460410E+02  0.54775009406E+02  0.10000000000E+01 0.  1.
    1000022    2    1    0    0    0  0.53463648061E+02 -0.15392800649E+02  0.26663649342E+02  0.62500000887E+02  0.99999969404E+01 0.  0.
    3000022    2    3    3    0    0  0.48357267633E+01 -0.11025485103E+01  0.59171889320E+01  0.77249914805E+01  0.25000393794E+00 0.  0.
    1000022    2    1    0    0    0 -0.53463648061E+02  0.15392800649E+02 -0.26663649342E+02  0.62499999113E+02  0.99999858571E+01 0.  0.
    3000022    2    5    5    0    0 -0.49948784635E+02  0.15235898961E+02 -0.22239904070E+02  0.56759928968E+02  0.24999952742E+00 0.  0.
        -13    1    4    4    0    0  0.35297658183E+01 -0.80228343301E+00  0.42589310135E+01  0.55903867323E+01  0.10500000000E+00 0. -1.
         13    1    4    4    0    0  0.13059609450E+01 -0.30026507733E+00  0.16582579185E+01  0.21346047481E+01  0.10500000000E+00 0.  1.
    3000001    1    5    5    0    0 -0.35148634258E+01  0.15690168856E+00 -0.44237452719E+01  0.57400701452E+01  0.10000000000E+01 0.  1.
        -13    1    6    6    0    0 -0.21792880890E+02  0.67144215445E+01 -0.96944974903E+01  0.24779173125E+02  0.10500000000E+00 0. -1.
         13    1    6    6    0    0 -0.28155903745E+02  0.85214774165E+01 -0.12545406580E+02  0.31980755843E+02  0.10500000000E+00 0.  1.
</event>
<event>
11    0  0.3396091E-009  0.9118800E+02  0.7816531E-02  0.1126479E+00
         25   -1    0    0    0    0  0.00000000000E+00  0.00000000000E+00  0.99999998245E-14  0.12500000000E+03  0.12500000000E+03 0.  0.
    3000001    1    3    3    0    0  0.23088730106E+01 -0.16942381221E+02 -0.16650730780E+02  0.23887695819E+02  0.10000000000E+01 0.  1.
    1000022    2    1    0    0    0  0.17318715670E+02 -0.38944878579E+02 -0.44605024739E+02  0.62500003694E+02  0.10000037492E+02 0.  0.
    3000022    2    3    3    0    0  0.15009842660E+02 -0.22002497358E+02 -0.27954293958E+02  0.38612307875E+02  0.25000417385E+00 0.  0.
    1000022    2    1    0    0    0 -0.17318715670E+02  0.38944878579E+02  0.44605024739E+02  0.62499996306E+02  0.99999913131E+01 0.  0.
    3000022    2    5    5    0    0 -0.20148216337E+01  0.12918344368E+02  0.17978829150E+02  0.22231597439E+02  0.24999935083E+00 0.  0.
        -13    1    4    4    0    0  0.47976430549E+01 -0.71132717748E+01 -0.90397863290E+01  0.12463738448E+02  0.10500000000E+00 0.  1.
         13    1    4    4    0    0  0.10212199605E+02 -0.14889225583E+02 -0.18914507629E+02  0.26148569427E+02  0.10500000000E+00 0. -1.
    3000001    1    5    5    0    0 -0.15303894037E+02  0.26026534211E+02  0.26626195588E+02  0.40268398866E+02  0.10000000000E+01 0.  1.
        -13    1    6    6    0    0 -0.14238515274E+01  0.91919852362E+01  0.12859660500E+02  0.15871415782E+02  0.10500000000E+00 0. -1.
         13    1    6    6    0    0 -0.59097010621E+00  0.37263591317E+01  0.51191686498E+01  0.63601816570E+01  0.10500000000E+00 0.  1.
</event>
<event>
11    0  0.3396091E-009  0.9118800E+02  0.7816531E-02  0.1126479E+00
         25   -1    0    0    0    0  0.00000000000E+00  0.00000000000E+00  0.99999998245E-14  0.12500000000E+03  0.12500000000E+03 0.  0.
    3000001    1    3    3    0    0  0.14668111536E+01 -0.49381438547E+00 -0.11447330724E+01  0.21692859228E+01  0.10000000000E+01 0.  1.
    1000022    2    1    0    0    0  0.34444888736E+02 -0.50483863002E+02 -0.84367792981E+01  0.62499999533E+02  0.99999956559E+01 0.  0.
    3000022    2    3    3    0    0  0.32978077582E+02 -0.49990048616E+02 -0.72920462257E+01  0.60330713610E+02  0.25000980808E+00 0.  0.
    1000022    2    1    0    0    0 -0.34444888736E+02  0.50483863002E+02  0.84367792981E+01  0.62500000467E+02  0.10000001495E+02 0.  0.
    3000022    2    5    5    0    0 -0.82348460994E+01  0.11348984500E+02  0.62052063305E+01  0.15335554448E+02  0.25001035909E+00 0.  0.
        -13    1    4    4    0    0  0.75591648490E+01 -0.11455740720E+02 -0.16750332926E+01  0.13827209776E+02  0.10500000000E+00 0. -1.
         13    1    4    4    0    0  0.25418912733E+02 -0.38534307896E+02 -0.56170129331E+01  0.46503503834E+02  0.10500000000E+00 0.  1.
    3000001    1    5    5    0    0 -0.26210042636E+02  0.39134878502E+02  0.22315729676E+01  0.47164446019E+02  0.10000000000E+01 0.  1.
        -13    1    6    6    0    0 -0.57459364810E+01  0.78393199366E+01  0.42906126780E+01  0.10625022601E+02  0.10500000000E+00 0. -1.
         13    1    6    6    0    0 -0.24889096183E+01  0.35096645630E+01  0.19145936525E+01  0.47105318476E+01  0.10500000000E+00 0.  1.
</event>
<event>
11    0  0.3396091E-009  0.9118800E+02  0.7816531E-02  0.1126479E+00
         25   -1    0    0    0    0  0.00000000000E+00  0.00000000000E+00  0.99999998245E-14  0.12500000000E+03  0.12500000000E+03 0.  0.
    3000001    1    3    3    0    0  0.15310779919E+02  0.17750119173E+01  0.41474633751E+01  0.15992876586E+02  0.10000000000E+01 0. -1.
    1000022    2    1    0    0    0  0.54766674338E+02 -0.35584800845E+01  0.28181526217E+02  0.62499998598E+02  0.10000000315E+02 0.  0.
    3000022    2    3    3    0    0  0.39455894419E+02 -0.53334920019E+01  0.24034062842E+02  0.46507122013E+02  0.24995972111E+00 0.  0.
    1000022    2    1    0    0    0 -0.54766674338E+02  0.35584800845E+01 -0.28181526217E+02  0.62500001402E+02  0.10000017836E+02 0.  0.
    3000022    2    5    5    0    0 -0.24986348991E+02  0.61773209923E+01 -0.10881225230E+02  0.27945312577E+02  0.25000403897E+00 0.  0.
        -13    1    4    4    0    0  0.20630060333E+02 -0.27211571227E+01  0.12550348730E+02  0.24300748212E+02  0.10500000000E+00 0. -1.
         13    1    4    4    0    0  0.18825834086E+02 -0.26123348792E+01  0.11483714112E+02  0.22206373801E+02  0.10500000000E+00 0.  1.
    3000001    1    5    5    0    0 -0.29780325348E+02 -0.26188409077E+01 -0.17300300986E+02  0.34554688824E+02  0.10000000000E+01 0.  1.
        -13    1    6    6    0    0 -0.95978667953E+01  0.23755433579E+01 -0.42466635063E+01  0.10761386026E+02  0.10500000000E+00 0. -1.
         13    1    6    6    0    0 -0.15388482195E+02  0.38017776344E+01 -0.66345617240E+01  0.17183926551E+02  0.10500000000E+00 0.  1.
</event>
<event>
11    0  0.3396091E-009  0.9118800E+02  0.7816531E-02  0.1126479E+00
         25   -1    0    0    0    0  0.00000000000E+00  0.00000000000E+00  0.99999998245E-14  0.12500000000E+03  0.12500000000E+03 0.  0.
    3000001    1    3    3    0    0  0.16031678563E+01 -0.44982504027E+00  0.10573182447E+01  0.22114275057E+01  0.10000000000E+01 0. -1.
    1000022    2    1    0    0    0  0.57936561436E+02 -0.17322871691E+02 -0.12227953586E+02  0.62499999253E+02  0.10000001155E+02 0.  0.
    3000022    2    3    3    0    0  0.56333393580E+02 -0.16873046651E+02 -0.13285271831E+02  0.60288571747E+02  0.25000051282E+00 0.  0.
    1000022    2    1    0    0    0 -0.57936561436E+02  0.17322871691E+02  0.12227953586E+02  0.62500000747E+02  0.10000010490E+02 0.  0.
    3000022    2    5    5    0    0 -0.95594053880E+01  0.31822809357E+01  0.59386423492E+01  0.11697825891E+02  0.25002861869E+00 0.  0.
        -13    1    4    4    0    0  0.37008835958E+02 -0.11075673691E+02 -0.86712773287E+01  0.39592001240E+02  0.10500000000E+00 0. -1.
         13    1    4    4    0    0  0.19324557622E+02 -0.57973729602E+01 -0.46139945023E+01  0.20696570508E+02  0.10500000000E+00 0.  1.
    3000001    1    5    5    0    0 -0.48377156048E+02  0.14140590755E+02  0.62893112371E+01  0.50802174855E+02  0.10000000000E+01 0. -1.
        -13    1    6    6    0    0 -0.54557104016E+01  0.18834019742E+01  0.34181200384E+01  0.67086920170E+01  0.10500000000E+00 0. -1.
         13    1    6    6    0    0 -0.41036949863E+01  0.12988789615E+01  0.25205223108E+01  0.49891338744E+01  0.10500000000E+00 0.  1.
</event>
<event>
11    0  0.3396091E-009  0.9118800E+02  0.7816531E-02  0.1126479E+00
         25   -1    0    0    0    0  0.00000000000E+00  0.00000000000E+00  0.99999998245E-14  0.12500000000E+03  0.12500000000E+03 0.  0.
    3000001    1    3    3    0    0 -0.98289807550E+01  0.16391314023E+02 -0.56724169023E+02  0.59865811524E+02  0.10000000000E+01 0.  1.
    1000022    2    1    0    0    0 -0.10742237574E+02  0.15134910434E+02 -0.58836962492E+02  0.62500006563E+02  0.10000074158E+02 0.  0.
    3000022    2    3    3    0    0 -0.91325681872E+00 -0.12564035896E+01 -0.21127934697E+01  0.26341950395E+01  0.24999852713E+00 0.  0.
    1000022    2    1    0    0    0  0.10742237574E+02 -0.15134910434E+02  0.58836962492E+02  0.62499993437E+02  0.99999921181E+01 0.  0.
    3000022    2    5    5    0    0  0.10865433248E+02 -0.75774678803E+01  0.41418371927E+02  0.43485856265E+02  0.25000568250E+00 0.  0.
        -13    1    4    4    0    0 -0.46211209345E+00 -0.67384678012E+00 -0.10029736006E+01  0.12979206884E+01  0.10500000000E+00 0. -1.
         13    1    4    4    0    0 -0.45114472527E+00 -0.58255680947E+00 -0.11098198691E+01  0.13362743511E+01  0.10500000000E+00 0.  1.
    3000001    1    5    5    0    0 -0.12319567438E+00 -0.75574425534E+01  0.17418590565E+02  0.19014137172E+02  0.10000000000E+01 0.  1.
        -13    1    6    6    0    0  0.68707648347E+01 -0.48323391420E+01  0.26421285825E+02  0.27724615067E+02  0.10500000000E+00 0.  1.
         13    1    6    6    0    0  0.39946684134E+01 -0.27451287383E+01  0.14997086102E+02  0.15761241197E+02  0.10500000000E+00 0. -1.
</event>
<event>
11    0  0.3396091E-009  0.9118800E+02  0.7816531E-02  0.1126479E+00
         25   -1    0    0    0    0  0.00000000000E+00  0.00000000000E+00  0.99999998245E-14  0.12500000000E+03  0.12500000000E+03 0.  0.
    3000001    1    3    3    0    0  0.61049648453E+02  0.35706307588E+01  0.10125086842E+02  0.61994567212E+02  0.10000000000E+01 0.  1.
    1000022    2    1    0    0    0  0.60800028899E+02  0.37078884905E+01  0.97907022343E+01  0.62499998522E+02  0.10000000690E+02 0.  0.
    3000022    2    3    3    0    0 -0.24961955438E+00  0.13725773164E+00 -0.33438460820E+00  0.50543130919E+00  0.24999627053E+00 0.  0.
    1000022    2    1    0    0    0 -0.60800028899E+02 -0.37078884905E+01 -0.97907022343E+01  0.62500001478E+02  0.10000019170E+02 0.  0.
    3000022    2    5    5    0    0 -0.28741038241E+02  0.28404990914E+01 -0.27290372709E+01  0.29010788678E+02  0.25000209554E+00 0.  0.
        -13    1    4    4    0    0 -0.78381775469E-01  0.85909019418E-01 -0.75970814563E-01  0.17412819131E+00  0.10500000000E+00 0.  1.
         13    1    4    4    0    0 -0.17123777891E+00  0.51348712219E-01 -0.25841379364E+00  0.33130311788E+00  0.10500000000E+00 0. -1.
    3000001    1    5    5    0    0 -0.32058990658E+02 -0.65483875819E+01 -0.70616649633E+01  0.33489212800E+02  0.10000000000E+01 0.  1.
        -13    1    6    6    0    0 -0.86268523004E+01  0.88546406954E+00 -0.85184160079E+00  0.87145445288E+01  0.10500000000E+00 0. -1.
         13    1    6    6    0    0 -0.20114185940E+02  0.19550350218E+01 -0.18771956701E+01  0.20296244149E+02  0.10500000000E+00 0.  1.
</event>
<event>
11    0  0.3396091E-009  0.9118800E+02  0.7816531E-02  0.1126479E+00
         25   -1    0    0    0    0  0.00000000000E+00  0.00000000000E+00  0.99999998245E-14  0.12500000000E+03  0.12500000000E+03 0.  0.
    3000001    1    3    3    0    0 -0.96216971989E+01 -0.33446303752E+02  0.30457582378E+01  0.34950092059E+02  0.10000000000E+01 0.  1.
    1000022    2    1    0    0    0 -0.20140266773E+02 -0.58252574725E+02 -0.26938935401E+01  0.62500001097E+02  0.10000013347E+02 0.  0.
    3000022    2    3    3    0    0 -0.10518569574E+02 -0.24806270973E+02 -0.57396517779E+01  0.27549909038E+02  0.25000004254E+00 0.  0.
    1000022    2    1    0    0    0  0.20140266773E+02  0.58252574725E+02  0.26938935401E+01  0.62499998903E+02  0.99999996344E+01 0.  0.
    3000022    2    5    5    0    0  0.19612456567E+02  0.52738324662E+02  0.48409088780E+01  0.56475448112E+02  0.24999992081E+00 0.  0.
        -13    1    4    4    0    0 -0.25533794788E+01 -0.60316523535E+01 -0.14173060531E+01  0.67022651637E+01  0.10500000000E+00 0. -1.
         13    1    4    4    0    0 -0.79651900953E+01 -0.18774618619E+02 -0.43223457248E+01  0.20847643874E+02  0.10500000000E+00 0.  1.
    3000001    1    5    5    0    0  0.52781020635E+00  0.55142500634E+01 -0.21470153379E+01  0.60245507913E+01  0.10000000000E+01 0. -1.
        -13    1    6    6    0    0  0.48790884055E+01  0.13144906961E+02  0.11818907492E+01  0.14071317402E+02  0.10500000000E+00 0. -1.
         13    1    6    6    0    0  0.14733368161E+02  0.39593417701E+02  0.36590181288E+01  0.42404130710E+02  0.10500000000E+00 0.  1.
</event>
<event>
11    0  0.3396091E-009  0.9118800E+02  0.7816531E-02  0.1126479E+00
         25   -1    0    0    0    0  0.00000000000E+00  0.00000000000E+00  0.99999998245E-14  0.12500000000E+03  0.12500000000E+03 0.  0.
    3000001    1    3    3    0    0  0.33211144808E+01 -0.22045170243E+02  0.10278358099E+02  0.24569574226E+02  0.10000000000E+01 0.  1.
    1000022    2    1    0    0    0 -0.22539222072E+01 -0.58134743357E+02  0.20530984909E+02  0.62499999718E+02  0.10000003650E+02 0.  0.
    3000022    2    3    3    0    0 -0.55750366879E+01 -0.36089573114E+02  0.10252626810E+02  0.37930425493E+02  0.24999984570E+00 0.  0.
    1000022    2    1    0    0    0  0.22539222072E+01  0.58134743357E+02 -0.20530984909E+02  0.62500000282E+02  0.10000007173E+02 0.  0.
    3000022    2    5    5    0    0 -0.49136289604E+00  0.63912011313E+01 -0.57313715645E+01  0.86023258658E+01  0.25000179030E+00 0.  0.
        -13    1    4    4    0    0 -0.34158525589E+01 -0.21710065350E+02  0.61561832839E+01  0.22823334635E+02  0.10500000000E+00 0.  1.
         13    1    4    4    0    0 -0.21591841291E+01 -0.14379507764E+02  0.40964435261E+01  0.15107090858E+02  0.10500000000E+00 0. -1.
    3000001    1    5    5    0    0  0.27452851032E+01  0.51743542225E+02 -0.14799613344E+02  0.53897674416E+02  0.10000000000E+01 0.  1.
        -13    1    6    6    0    0 -0.27195423197E+00  0.27304721229E+01 -0.24249780599E+01  0.36634656692E+01  0.10500000000E+00 0. -1.
         13    1    6    6    0    0 -0.21940866407E+00  0.36607290085E+01 -0.33063935046E+01  0.49388601967E+01  0.10500000000E+00 0.  1.
</event>
<event>
11    0  0.3396091E-009  0.9118800E+02  0.7816531E-02  0.1126479E+00
         25   -1    0    0    0    0  0.00000000000E+00  0.00000000000E+00  0.99999998245E-14  0.12500000000E+03  0.12500000000E+03 0.  0.
    3000001    1    3    3    0    0 -0.59340483974E+01 -0.67157544575E+01  0.31542987714E+01  0.95532135460E+01  0.10000000000E+01 0. -1.
    1000022    2    1    0    0    0 -0.38027057995E+02 -0.29752461885E+02  0.38405517795E+02  0.62499999052E+02  0.99999978206E+01 0.  0.
    3000022    2    3    3    0    0 -0.32093009598E+02 -0.23036707428E+02  0.35251219023E+02  0.52946785506E+02  0.24999725753E+00 0.  0.
    1000022    2    1    0    0    0  0.38027057995E+02  0.29752461885E+02 -0.38405517795E+02  0.62500000948E+02  0.10000009673E+02 0.  0.
    3000022    2    5    5    0    0  0.12401223347E+02  0.96185732017E+01 -0.68495343902E+01  0.17125592263E+02  0.24999609688E+00 0.  0.
        -13    1    4    4    0    0 -0.13458947014E+02 -0.96515148948E+01  0.14692445931E+02  0.22139873236E+02  0.10500000000E+00 0.  1.
         13    1    4    4    0    0 -0.18634062584E+02 -0.13385192533E+02  0.20558773092E+02  0.30806912269E+02  0.10500000000E+00 0. -1.
    3000001    1    5    5    0    0  0.25625834648E+02  0.20133888683E+02 -0.31555983404E+02  0.45374408685E+02  0.10000000000E+01 0. -1.
        -13    1    6    6    0    0  0.47936693742E+01  0.36540965493E+01 -0.26686688282E+01  0.65927616349E+01  0.10500000000E+00 0.  1.
         13    1    6    6    0    0  0.76075539732E+01  0.59644766524E+01 -0.41808655620E+01  0.10532830628E+02  0.10500000000E+00 0. -1.
</event>
<event>
11    0  0.3396091E-009  0.9118800E+02  0.7816531E-02  0.1126479E+00
         25   -1    0    0    0    0  0.00000000000E+00  0.00000000000E+00  0.99999998245E-14  0.12500000000E+03  0.12500000000E+03 0.  0.
    3000001    1    3    3    0    0  0.33994081871E+01  0.14712835238E+02  0.79821846135E+01  0.17109610398E+02  0.10000000000E+01 0. -1.
    1000022    2    1    0    0    0 -0.99692165903E+00  0.57822241904E+02  0.21490568987E+02  0.62500001444E+02  0.10000005672E+02 0.  0.
    3000022    2    3    3    0    0 -0.43963298462E+01  0.43109406666E+02  0.13508384373E+02  0.45390391046E+02  0.24998334260E+00 0.  0.
    1000022    2    1    0    0    0  0.99692165903E+00 -0.57822241904E+02 -0.21490568987E+02  0.62499998556E+02  0.99999876259E+01 0.  0.
    3000022    2    5    5    0    0  0.20504339998E+01 -0.21643884178E+01 -0.73987441371E+00  0.30820057574E+01  0.24997705836E+00 0.  0.
        -13    1    4    4    0    0 -0.18946475825E+01  0.18077698472E+02  0.57083658932E+01  0.19052279068E+02  0.10500000000E+00 0.  1.
         13    1    4    4    0    0 -0.25016822637E+01  0.25031708194E+02  0.78000184799E+01  0.26338111978E+02  0.10500000000E+00 0. -1.
    3000001    1    5    5    0    0 -0.10535123408E+01 -0.55657853487E+02 -0.20750694573E+02  0.59417992799E+02  0.10000000000E+01 0.  1.
        -13    1    6    6    0    0  0.12049175101E+01 -0.13391753534E+01 -0.40285906337E+00  0.18489286785E+01  0.10500000000E+00 0. -1.
         13    1    6    6    0    0  0.84551648972E+00 -0.82521306441E+00 -0.33701535033E+00  0.12330770789E+01  0.10500000000E+00 0.  1.
</event>
<event>
11    0  0.3396091E-009  0.9118800E+02  0.7816531E-02  0.1126479E+00
         25   -1    0    0    0    0  0.00000000000E+00  0.00000000000E+00  0.99999998245E-14  0.12500000000E+03  0.12500000000E+03 0.  0.
    3000001    1    3    3    0    0 -0.25785753668E+01 -0.52671841495E+01  0.28426768197E+02  0.29042614034E+02  0.10000000000E+01 0. -1.
    1000022    2    1    0    0    0 -0.11105116541E+02 -0.19569678848E+02  0.57445226867E+02  0.62500000133E+02  0.99999991593E+01 0.  0.
    3000022    2    3    3    0    0 -0.85265411740E+01 -0.14302494699E+02  0.29018458670E+02  0.33457386099E+02  0.24996398800E+00 0.  0.
    1000022    2    1    0    0    0  0.11105116541E+02  0.19569678848E+02 -0.57445226867E+02  0.62499999867E+02  0.99999974981E+01 0.  0.
    3000022    2    5    5    0    0  0.95409018899E+01  0.68555303106E+01 -0.28790486679E+02  0.31096330086E+02  0.25003369749E+00 0.  0.
        -13    1    4    4    0    0 -0.38941382625E+01 -0.65874604207E+01  0.13214129355E+02  0.15270336841E+02  0.10500000000E+00 0.  1.
         13    1    4    4    0    0 -0.46324029115E+01 -0.77150342781E+01  0.15804329315E+02  0.18187049258E+02  0.10500000000E+00 0. -1.
    3000001    1    5    5    0    0  0.15642146508E+01  0.12714148538E+02 -0.28654740188E+02  0.31403669782E+02  0.10000000000E+01 0.  1.
        -13    1    6    6    0    0  0.26657835470E+01  0.19114723840E+01 -0.81454773677E+01  0.87817968060E+01  0.10500000000E+00 0. -1.
         13    1    6    6    0    0  0.68751183429E+01  0.49440579266E+01 -0.20645009312E+02  0.22314533280E+02  0.10500000000E+00 0.  1.
</event>
<event>
11    0  0.3396091E-009  0.9118800E+02  0.7816531E-02  0.1126479E+00
         25   -1    0    0    0    0  0.00000000000E+00  0.00000000000E+00  0.99999998245E-14  0.12500000000E+03  0.12500000000E+03 0.  0.
    3000001    1    3    3    0    0  0.28186572251E+02 -0.82819347328E+01  0.23561725929E+02  0.37672645605E+02  0.10000000000E+01 0.  1.
    1000022    2    1    0    0    0  0.40870682522E+02 -0.12636525416E+02  0.44453969789E+02  0.62499998827E+02  0.99999979509E+01 0.  0.
    3000022    2    3    3    0    0  0.12684110271E+02 -0.43545906829E+01  0.20892243861E+02  0.24827353222E+02  0.25000219456E+00 0.  0.
    1000022    2    1    0    0    0 -0.40870682522E+02  0.12636525416E+02 -0.44453969789E+02  0.62500001173E+02  0.10000012608E+02 0.  0.
    3000022    2    5    5    0    0 -0.16196594554E+02  0.96283246768E+01 -0.22226275342E+02  0.29139391329E+02  0.25000038510E+00 0.  0.
        -13    1    4    4    0    0  0.29080931268E+01 -0.99998718948E+00  0.47844998331E+01  0.56885361620E+01  0.10500000000E+00 0. -1.
         13    1    4    4    0    0  0.97760171441E+01 -0.33546034934E+01  0.16107744027E+02  0.19138817060E+02  0.10500000000E+00 0.  1.
    3000001    1    5    5    0    0 -0.24674087967E+02  0.30082007389E+01 -0.22227694448E+02  0.33360609844E+02  0.10000000000E+01 0.  1.
        -13    1    6    6    0    0 -0.70716086363E+01  0.41743360363E+01 -0.97807632497E+01  0.12771338411E+02  0.10500000000E+00 0. -1.
         13    1    6    6    0    0 -0.91249859180E+01  0.54539886406E+01 -0.12445512092E+02  0.16368052918E+02  0.10500000000E+00 0.  1.
</event>
<event>
11    0  0.3396091E-009  0.9118800E+02  0.7816531E-02  0.1126479E+00
         25   -1    0    0    0    0  0.00000000000E+00  0.00000000000E+00  0.99999998245E-14  0.12500000000E+03  0.12500000000E+03 0.  0.
    3000001    1    3    3    0    0  0.82985743058E+00  0.37906595450E+01  0.11876824994E+02  0.12534621458E+02  0.10000000000E+01 0.  1.
    1000022    2    1    0    0    0 -0.67046904135E+01  0.33143259694E+02  0.51602534065E+02  0.62499999548E+02  0.99999942437E+01 0.  0.
    3000022    2    3    3    0    0 -0.75345478441E+01  0.29352600149E+02  0.39725709070E+02  0.49965378090E+02  0.24999961312E+00 0.  0.
    1000022    2    1    0    0    0  0.67046904135E+01 -0.33143259694E+02 -0.51602534065E+02  0.62500000452E+02  0.99999998966E+01 0.  0.
    3000022    2    5    5    0    0  0.54952464911E+01 -0.12795150005E+02 -0.14189579018E+02  0.19882662104E+02  0.25000401092E+00 0.  0.
        -13    1    4    4    0    0 -0.32452514741E+01  0.12784366703E+02  0.17198894484E+02  0.21674516963E+02  0.10500000000E+00 0. -1.
         13    1    4    4    0    0 -0.42892963699E+01  0.16568233446E+02  0.22526814586E+02  0.28290861127E+02  0.10500000000E+00 0.  1.
    3000001    1    5    5    0    0  0.12094439224E+01 -0.20348109690E+02 -0.37412955047E+02  0.42617338348E+02  0.10000000000E+01 0. -1.
        -13    1    6    6    0    0  0.17411703654E+01 -0.40460402457E+01 -0.44180984396E+01  0.62396101428E+01  0.10500000000E+00 0. -1.
         13    1    6    6    0    0  0.37540761257E+01 -0.87491097588E+01 -0.97714805784E+01  0.13643051961E+02  0.10500000000E+00 0.  1.
</event>
<event>
11    0  0.3396091E-009  0.9118800E+02  0.7816531E-02  0.1126479E+00
         25   -1    0    0    0    0  0.00000000000E+00  0.00000000000E+00  0.99999998245E-14  0.12500000000E+03  0.12500000000E+03 0.  0.
    3000001    1    3    3    0    0  0.97702466126E+01  0.51016875659E+01  0.15173187431E+02  0.18780589760E+02  0.10000000000E+01 0.  1.
    1000022    2    1    0    0    0  0.21644501665E+02  0.27297885158E+02  0.50917491144E+02  0.62500000495E+02  0.10000008553E+02 0.  0.
    3000022    2    3    3    0    0  0.11874255053E+02  0.22196197592E+02  0.35744303712E+02  0.43719410735E+02  0.25001313969E+00 0.  0.
    1000022    2    1    0    0    0 -0.21644501665E+02 -0.27297885158E+02 -0.50917491144E+02  0.62499999505E+02  0.10000002365E+02 0.  0.
    3000022    2    5    5    0    0 -0.10881949927E+02 -0.18055935883E+02 -0.23210431324E+02  0.31356343487E+02  0.24999954082E+00 0.  0.
        -13    1    4    4    0    0  0.82411890437E+01  0.15498138991E+02  0.24950669106E+02  0.30506661942E+02  0.10500000000E+00 0.  1.
         13    1    4    4    0    0  0.36330660091E+01  0.66980586011E+01  0.10793634606E+02  0.13212748793E+02  0.10500000000E+00 0. -1.
    3000001    1    5    5    0    0 -0.10762551738E+02 -0.92419492742E+01 -0.27707059820E+02  0.31143656018E+02  0.10000000000E+01 0. -1.
        -13    1    6    6    0    0 -0.37569156432E+01 -0.61335756473E+01 -0.78913961053E+01  0.10678029915E+02  0.10500000000E+00 0. -1.
         13    1    6    6    0    0 -0.71250342838E+01 -0.11922360236E+02 -0.15319035218E+02  0.20678313572E+02  0.10500000000E+00 0.  1.
</event>
<event>
11    0  0.3396091E-009  0.9118800E+02  0.7816531E-02  0.1126479E+00
         25   -1    0    0    0    0  0.00000000000E+00  0.00000000000E+00  0.99999998245E-14  0.12500000000E+03  0.12500000000E+03 0.  0.
    3000001    1    3    3    0    0  0.25522697047E+02 -0.17270135472E+02  0.75000054545E+01  0.31731935421E+02  0.10000000000E+01 0. -1.
    1000022    2    1    0    0    0  0.44383982960E+02 -0.36750571523E+02  0.22038774343E+02  0.62500000061E+02  0.99999991233E+01 0.  0.
    3000022    2    3    3    0    0  0.18861285914E+02 -0.19480436051E+02  0.14538768888E+02  0.30768064640E+02  0.25001172830E+00 0.  0.
    1000022    2    1    0    0    0 -0.44383982960E+02  0.36750571523E+02 -0.22038774343E+02  0.62499999939E+02  0.99999983556E+01 0.  0.
    3000022    2    5    5    0    0 -0.41088268737E+02  0.31365868970E+02 -0.21806316135E+02  0.56103845575E+02  0.25000185483E+00 0.  0.
        -13    1    4    4    0    0  0.82213569266E+01 -0.85193173291E+01  0.64196143953E+01  0.13468182931E+02  0.10500000000E+00 0. -1.
         13    1    4    4    0    0  0.10639928987E+02 -0.10961118722E+02  0.81191544932E+01  0.17299881710E+02  0.10500000000E+00 0.  1.
    3000001    1    5    5    0    0 -0.32957142237E+01  0.53847025521E+01 -0.23245820825E+00  0.63961543631E+01  0.10000000000E+01 0. -1.
        -13    1    6    6    0    0 -0.23270730892E+02  0.17704858857E+02 -0.12384616936E+02  0.31754979216E+02  0.10500000000E+00 0.  1.
         13    1    6    6    0    0 -0.17817537845E+02  0.13661010114E+02 -0.94216991991E+01  0.24348866359E+02  0.10500000000E+00 0. -1.
</event>
<event>
11    0  0.3396091E-009  0.9118800E+02  0.7816531E-02  0.1126479E+00
         25   -1    0    0    0    0  0.00000000000E+00  0.00000000000E+00  0.99999998245E-14  0.12500000000E+03  0.12500000000E+03 0.  0.
    3000001    1    3    3    0    0  0.44465794349E+02  0.32631361408E+02  0.22659544469E+02  0.59636126383E+02  0.10000000000E+01 0.  1.
    1000022    2    1    0    0    0  0.45563770374E+02  0.35213044411E+02  0.22141236451E+02  0.62499999512E+02  0.99999960016E+01 0.  0.
    3000022    2    3    3    0    0  0.10979760251E+01  0.25816830026E+01 -0.51830801857E+00  0.28638731286E+01  0.24997523270E+00 0.  0.
    1000022    2    1    0    0    0 -0.45563770374E+02 -0.35213044411E+02 -0.22141236451E+02  0.62500000488E+02  0.10000002105E+02 0.  0.
    3000022    2    5    5    0    0 -0.20003882637E+01  0.52574564881E+00 -0.61179626249E+00  0.21713491638E+01  0.25000166361E+00 0.  0.
        -13    1    4    4    0    0  0.48807227314E+00  0.11414639117E+01 -0.16224791387E+00  0.12563852081E+01  0.10500000000E+00 0. -1.
         13    1    4    4    0    0  0.60990375193E+00  0.14402190909E+01 -0.35606010470E+00  0.16074879205E+01  0.10500000000E+00 0.  1.
    3000001    1    5    5    0    0 -0.43563382110E+02 -0.35738790059E+02 -0.21529440188E+02  0.60328651324E+02  0.10000000000E+01 0.  1.
        -13    1    6    6    0    0 -0.96527964984E+00  0.18427767130E+00 -0.28278650569E+00  0.10279670570E+01  0.10500000000E+00 0.  1.
         13    1    6    6    0    0 -0.10351086138E+01  0.34146797751E+00 -0.32900975679E+00  0.11433821068E+01  0.10500000000E+00 0. -1.
</event>
<event>
11    0  0.3396091E-009  0.9118800E+02  0.7816531E-02  0.1126479E+00
         25   -1    0    0    0    0  0.00000000000E+00  0.00000000000E+00  0.99999998245E-14  0.12500000000E+03  0.12500000000E+03 0.  0.
    3000001    1    3    3    0    0 -0.21355228826E+01  0.32053625861E+01  0.28204433422E+02  0.28483765059E+02  0.10000000000E+01 0.  1.
    1000022    2    1    0    0    0 -0.11613941890E+02  0.14714476562E+02  0.58777976741E+02  0.62499999186E+02  0.99999940873E+01 0.  0.
    3000022    2    3    3    0    0 -0.94784190075E+01  0.11509113976E+02  0.30573543319E+02  0.34016234127E+02  0.25000337717E+00 0.  0.
    1000022    2    1    0    0    0  0.11613941890E+02 -0.14714476562E+02 -0.58777976741E+02  0.62500000814E+02  0.10000004268E+02 0.  0.
    3000022    2    5    5    0    0  0.38586370811E+01 -0.37587590172E+00 -0.20791282528E+02  0.21151129502E+02  0.24997449321E+00 0.  0.
        -13    1    4    4    0    0 -0.62549973340E+01  0.76635432134E+01  0.20209564327E+02  0.22500942236E+02  0.10500000000E+00 0.  1.
         13    1    4    4    0    0 -0.32234216736E+01  0.38455707628E+01  0.10363978992E+02  0.11515291890E+02  0.10500000000E+00 0. -1.
    3000001    1    5    5    0    0  0.77553048090E+01 -0.14338600661E+02 -0.37986694213E+02  0.41348871312E+02  0.10000000000E+01 0.  1.
        -13    1    6    6    0    0  0.24813838924E+01 -0.28879815788E+00 -0.13563430612E+02  0.13791966697E+02  0.10500000000E+00 0. -1.
         13    1    6    6    0    0  0.13772531887E+01 -0.87077743839E-01 -0.72278519158E+01  0.73591628054E+01  0.10500000000E+00 0.  1.
</event>
<event>
11    0  0.3396091E-009  0.9118800E+02  0.7816531E-02  0.1126479E+00
         25   -1    0    0    0    0  0.00000000000E+00  0.00000000000E+00  0.99999998245E-14  0.12500000000E+03  0.12500000000E+03 0.  0.
    3000001    1    3    3    0    0  0.99453972984E+00 -0.32614050021E+02  0.23084712295E+02  0.39982112373E+02  0.10000000000E+01 0.  1.
    1000022    2    1    0    0    0 -0.42413345048E+01 -0.47479917390E+02  0.39165271322E+02  0.62500000173E+02  0.10000003511E+02 0.  0.
    3000022    2    3    3    0    0 -0.52358742347E+01 -0.14865867369E+02  0.16080559027E+02  0.22517887800E+02  0.25000150788E+00 0.  0.
    1000022    2    1    0    0    0  0.42413345048E+01  0.47479917390E+02 -0.39165271322E+02  0.62499999827E+02  0.10000001344E+02 0.  0.
    3000022    2    5    5    0    0  0.47346719345E+01  0.28416011661E+02 -0.17891656304E+02  0.33912544896E+02  0.24999800016E+00 0.  0.
        -13    1    4    4    0    0 -0.36089822326E+01 -0.10130618980E+02  0.10925565367E+02  0.15330792454E+02  0.10500000000E+00 0. -1.
         13    1    4    4    0    0 -0.16268920021E+01 -0.47352483884E+01  0.51549936593E+01  0.71870953461E+01  0.10500000000E+00 0.  1.
    3000001    1    5    5    0    0 -0.49333742965E+00  0.19063905729E+02 -0.21273615018E+02  0.28587454930E+02  0.10000000000E+01 0.  1.
        -13    1    6    6    0    0  0.13216933613E+01  0.77275779891E+01 -0.48868642043E+01  0.92387662418E+01  0.10500000000E+00 0.  1.
         13    1    6    6    0    0  0.34129785732E+01  0.20688433672E+02 -0.13004792100E+02  0.24673778655E+02  0.10500000000E+00 0. -1.
</event>
<event>
11    0  0.3396091E-009  0.9118800E+02  0.7816531E-02  0.1126479E+00
         25   -1    0    0    0    0  0.00000000000E+00  0.00000000000E+00  0.99999998245E-14  0.12500000000E+03  0.12500000000E+03 0.  0.
    3000001    1    3    3    0    0 -0.19796031763E+01 -0.27773772137E+02 -0.13544759943E+02  0.30980022101E+02  0.10000000000E+01 0. -1.
    1000022    2    1    0    0    0  0.12355072971E+01 -0.51237767998E+02 -0.34342605779E+02  0.62499998878E+02  0.99999970179E+01 0.  0.
    3000022    2    3    3    0    0  0.32151104734E+01 -0.23463995861E+02 -0.20797845836E+02  0.31519976777E+02  0.25001499175E+00 0.  0.
    1000022    2    1    0    0    0 -0.12355072971E+01  0.51237767998E+02  0.34342605779E+02  0.62500001122E+02  0.10000011044E+02 0.  0.
    3000022    2    5    5    0    0 -0.36648541154E+01  0.13803315088E+02  0.13083089876E+02  0.19369883953E+02  0.25000105789E+00 0.  0.
        -13    1    4    4    0    0  0.16729918324E+01 -0.11711030195E+02 -0.10382291057E+02  0.15740080130E+02  0.10500000000E+00 0.  1.
         13    1    4    4    0    0  0.15421186409E+01 -0.11752965666E+02 -0.10415554778E+02  0.15779896647E+02  0.10500000000E+00 0. -1.
    3000001    1    5    5    0    0  0.24293468183E+01  0.37434452910E+02  0.21259515903E+02  0.43130117169E+02  0.10000000000E+01 0.  1.
        -13    1    6    6    0    0 -0.11519046766E+01  0.43269407457E+01  0.41693337362E+01  0.61191232546E+01  0.10500000000E+00 0.  1.
         13    1    6    6    0    0 -0.25129494388E+01  0.94763743428E+01  0.89137561397E+01  0.13250760698E+02  0.10500000000E+00 0. -1.
</event>
<event>
11    0  0.3396091E-009  0.9118800E+02  0.7816531E-02  0.1126479E+00
         25   -1    0    0    0    0  0.00000000000E+00  0.00000000000E+00  0.99999998245E-14  0.12500000000E+03  0.12500000000E+03 0.  0.
    3000001    1    3    3    0    0 -0.12655891768E+02  0.22405182905E+01  0.74684498952E+01  0.14898632907E+02  0.10000000000E+01 0. -1.
    1000022    2    1    0    0    0 -0.52143881208E+02 -0.80515934159E+01  0.31975579899E+02  0.62500006792E+02  0.10000031763E+02 0.  0.
    3000022    2    3    3    0    0 -0.39487989440E+02 -0.10292111706E+02  0.24507130003E+02  0.47601373886E+02  0.25000285690E+00 0.  0.
    1000022    2    1    0    0    0  0.52143881208E+02  0.80515934159E+01 -0.31975579899E+02  0.62499993208E+02  0.99999468589E+01 0.  0.
    3000022    2    5    5    0    0  0.57405595797E+01 -0.22178016579E+01 -0.39519952605E+01  0.73180212489E+01  0.24999995895E+00 0.  0.
        -13    1    4    4    0    0 -0.14489249551E+02 -0.37677748732E+01  0.90593951773E+01  0.17499089863E+02  0.10500000000E+00 0.  1.
         13    1    4    4    0    0 -0.24998739889E+02 -0.65243368332E+01  0.15447734826E+02  0.30102284023E+02  0.10500000000E+00 0. -1.
    3000001    1    5    5    0    0  0.46403321628E+02  0.10269395074E+02 -0.28023584638E+02  0.55181971959E+02  0.10000000000E+01 0. -1.
        -13    1    6    6    0    0  0.43876821720E+01 -0.16775499016E+01 -0.30175532257E+01  0.55841365478E+01  0.10500000000E+00 0. -1.
         13    1    6    6    0    0  0.13528774076E+01 -0.54025175632E+00 -0.93444203481E+00  0.17338847011E+01  0.10500000000E+00 0.  1.
</event>
<event>
11    0  0.3396091E-009  0.9118800E+02  0.7816531E-02  0.1126479E+00
         25   -1    0    0    0    0  0.00000000000E+00  0.00000000000E+00  0.99999998245E-14  0.12500000000E+03  0.12500000000E+03 0.  0.
    3000001    1    3    3    0    0 -0.81181580042E+01 -0.11400267910E+02 -0.29898747180E+02  0.33027347467E+02  0.10000000000E+01 0. -1.
    1000022    2    1    0    0    0 -0.11473388198E+02 -0.13454519251E+02 -0.59106575494E+02  0.62500000038E+02  0.10000000652E+02 0.  0.
    3000022    2    3    3    0    0 -0.33552301937E+01 -0.20542513406E+01 -0.29207828314E+02  0.29472652570E+02  0.24999292677E+00 0.  0.
    1000022    2    1    0    0    0  0.11473388198E+02  0.13454519251E+02  0.59106575494E+02  0.62499999962E+02  0.10000000182E+02 0.  0.
    3000022    2    5    5    0    0  0.15370440486E+01  0.52853115162E+01  0.75085324280E+01  0.93133010769E+01  0.24999099428E+00 0.  0.
        -13    1    4    4    0    0 -0.85730078965E+00 -0.51815347174E+00 -0.76795320682E+01  0.77453008625E+01  0.10500000000E+00 0. -1.
         13    1    4    4    0    0 -0.24979294041E+01 -0.15360978689E+01 -0.21528296246E+02  0.21727351708E+02  0.10500000000E+00 0.  1.
    3000001    1    5    5    0    0  0.99363441492E+01  0.81692077346E+01  0.51598043066E+02  0.53186698885E+02  0.10000000000E+01 0. -1.
        -13    1    6    6    0    0  0.92496344944E+00  0.31946814055E+01  0.44296901325E+01  0.55402821530E+01  0.10500000000E+00 0. -1.
         13    1    6    6    0    0  0.61208059921E+00  0.20906301107E+01  0.30788422955E+01  0.37730189239E+01  0.10500000000E+00 0.  1.
</event>
<event>
11    0  0.3396091E-009  0.9118800E+02  0.7816531E-02  0.1126479E+00
         25   -1    0    0    0    0  0.00000000000E+00  0.00000000000E+00  0.99999998245E-14  0.12500000000E+03  0.12500000000E+03 0.  0.
    3000001    1    3    3    0    0 -0.23755294881E+01  0.27385127081E+02  0.53110394966E+02  0.59810554077E+02  0.10000000000E+01 0.  1.
    1000022    2    1    0    0    0 -0.26205205287E+01  0.26531790194E+02  0.55636739920E+02  0.62499999597E+02  0.10000005101E+02 0.  0.
    3000022    2    3    3    0    0 -0.24499104059E+00 -0.85333688740E+00  0.25263449540E+01  0.26894455199E+01  0.24998784885E+00 0.  0.
    1000022    2    1    0    0    0  0.26205205287E+01 -0.26531790194E+02 -0.55636739920E+02  0.62500000403E+02  0.10000010135E+02 0.  0.
    3000022    2    5    5    0    0  0.44224853499E+01 -0.24947728918E+02 -0.45976545590E+02  0.52496217027E+02  0.25000576826E+00 0.  0.
        -13    1    4    4    0    0 -0.17653730207E+00 -0.66200989979E+00  0.19356153632E+01  0.20559801460E+01  0.10500000000E+00 0.  1.
         13    1    4    4    0    0 -0.68453738524E-01 -0.19132698761E+00  0.59072959078E+00  0.63346537390E+00  0.10500000000E+00 0. -1.
    3000001    1    5    5    0    0 -0.18019648211E+01 -0.15840612755E+01 -0.96601943299E+01  0.10003783376E+02  0.10000000000E+01 0.  1.
        -13    1    6    6    0    0  0.14899990072E+01 -0.87086202132E+01 -0.15993247574E+02  0.18271703698E+02  0.10500000000E+00 0.  1.
         13    1    6    6    0    0  0.29324863427E+01 -0.16239108705E+02 -0.29983298016E+02  0.34224513329E+02  0.10500000000E+00 0. -1.
</event>
<event>
11    0  0.3396091E-009  0.9118800E+02  0.7816531E-02  0.1126479E+00
         25   -1    0    0    0    0  0.00000000000E+00  0.00000000000E+00  0.99999998245E-14  0.12500000000E+03  0.12500000000E+03 0.  0.
    3000001    1    3    3    0    0  0.56360619874E+01 -0.23469460676E+02 -0.85745201897E+01  0.25634023789E+02  0.10000000000E+01 0. -1.
    1000022    2    1    0    0    0  0.19345794867E+01 -0.57764272432E+02 -0.21582312909E+02  0.62500000835E+02  0.10000005325E+02 0.  0.
    3000022    2    3    3    0    0 -0.37014825007E+01 -0.34294811755E+02 -0.13007792719E+02  0.36865977045E+02  0.25001205110E+00 0.  0.
    1000022    2    1    0    0    0 -0.19345794867E+01  0.57764272432E+02  0.21582312909E+02  0.62499999165E+02  0.99999948932E+01 0.  0.
    3000022    2    5    5    0    0 -0.38224418854E+01  0.88198308012E+01  0.44954596687E+01  0.10614712768E+02  0.24998435523E+00 0.  0.
        -13    1    4    4    0    0 -0.26302083107E+01 -0.24730399156E+02 -0.93857130806E+01  0.26582198427E+02  0.10500000000E+00 0. -1.
         13    1    4    4    0    0 -0.10712741901E+01 -0.95644125993E+01 -0.36220796383E+01  0.10283778618E+02  0.10500000000E+00 0.  1.
    3000001    1    5    5    0    0  0.18878623987E+01  0.48944441630E+02  0.17086853240E+02  0.51885286398E+02  0.10000000000E+01 0. -1.
        -13    1    6    6    0    0 -0.19125882662E+01  0.45784840573E+01  0.23026362058E+01  0.54711670268E+01  0.10500000000E+00 0. -1.
         13    1    6    6    0    0 -0.19098536192E+01  0.42413467439E+01  0.21928234629E+01  0.51435457408E+01  0.10500000000E+00 0.  1.
</event>
<event>
11    0  0.3396091E-009  0.9118800E+02  0.7816531E-02  0.1126479E+00
         25   -1    0    0    0    0  0.00000000000E+00  0.00000000000E+00  0.99999998245E-14  0.12500000000E+03  0.12500000000E+03 0.  0.
    3000001    1    3    3    0    0 -0.11834565104E+02 -0.31034457785E+02  0.92321053007E+01  0.34488059811E+02  0.10000000000E+01 0.  1.
    1000022    2    1    0    0    0 -0.28493898953E+02 -0.51290655095E+02  0.19068736103E+02  0.62499999047E+02  0.99999803324E+01 0.  0.
    3000022    2    3    3    0    0 -0.16659333850E+02 -0.20256197310E+02  0.98366308019E+01  0.28011939236E+02  0.25000094209E+00 0.  0.
    1000022    2    1    0    0    0  0.28493898953E+02  0.51290655095E+02 -0.19068736103E+02  0.62500000953E+02  0.99999922448E+01 0.  0.
    3000022    2    5    5    0    0  0.44120884191E+01  0.11313199951E+02 -0.79397159090E+01  0.14510568690E+02  0.24999530182E+00 0.  0.
        -13    1    4    4    0    0 -0.58497903930E+01 -0.72000910578E+01  0.34648145624E+01  0.99033996100E+01  0.10500000000E+00 0.  1.
         13    1    4    4    0    0 -0.10809543456E+02 -0.13056106252E+02  0.63718162395E+01  0.18108539626E+02  0.10500000000E+00 0. -1.
    3000001    1    5    5    0    0  0.24081810534E+02  0.39977455144E+02 -0.11129020194E+02  0.47989432263E+02  0.10000000000E+01 0. -1.
        -13    1    6    6    0    0  0.21637275180E+01  0.56943683594E+01 -0.40331346560E+01  0.73064867028E+01  0.10500000000E+00 0. -1.
         13    1    6    6    0    0  0.22483609011E+01  0.56188315918E+01 -0.39065812530E+01  0.72040819877E+01  0.10500000000E+00 0.  1.
</event>
<event>
11    0  0.3396091E-009  0.9118800E+02  0.7816531E-02  0.1126479E+00
         25   -1    0    0    0    0  0.00000000000E+00  0.00000000000E+00  0.99999998245E-14  0.12500000000E+03  0.12500000000E+03 0.  0.
    3000001    1    3    3    0    0 -0.58304172240E+01  0.49561737760E+02  0.22616446456E+02  0.54798387432E+02  0.10000000000E+01 0. -1.
    1000022    2    1    0    0    0 -0.10139096162E+02  0.55410217474E+02  0.25162601870E+02  0.62500000225E+02  0.10000001189E+02 0.  0.
    3000022    2    3    3    0    0 -0.43086789383E+01  0.58484797140E+01  0.25461554137E+01  0.77016127936E+01  0.25000614471E+00 0.  0.
    1000022    2    1    0    0    0  0.10139096162E+02 -0.55410217474E+02 -0.25162601870E+02  0.62499999775E+02  0.99999983749E+01 0.  0.
    3000022    2    5    5    0    0  0.38801744553E+01 -0.25622872300E+02 -0.62778076326E+01  0.26665721677E+02  0.25001030634E+00 0.  0.
        -13    1    4    4    0    0 -0.22540420532E+01  0.29493490236E+01  0.12819317228E+01  0.39285797920E+01  0.10500000000E+00 0. -1.
         13    1    4    4    0    0 -0.20546368852E+01  0.28991306905E+01  0.12642236909E+01  0.37730330016E+01  0.10500000000E+00 0.  1.
    3000001    1    5    5    0    0  0.62589217070E+01 -0.29787345174E+02 -0.18884794237E+02  0.35834278098E+02  0.10000000000E+01 0. -1.
        -13    1    6    6    0    0  0.12616410498E+01 -0.86954133237E+01 -0.21317624829E+01  0.90419791689E+01  0.10500000000E+00 0.  1.
         13    1    6    6    0    0  0.26185334055E+01 -0.16927458976E+02 -0.41460451498E+01  0.17623742508E+02  0.10500000000E+00 0. -1.
</event>
<event>
11    0  0.3396091E-009  0.9118800E+02  0.7816531E-02  0.1126479E+00
         25   -1    0    0    0    0  0.00000000000E+00  0.00000000000E+00  0.99999998245E-14  0.12500000000E+03  0.12500000000E+03 0.  0.
    3000001    1    3    3    0    0 -0.40171535918E+01 -0.22771745757E+01 -0.70246365792E+00  0.47766622467E+01  0.10000000000E+01 0. -1.
    1000022    2    1    0    0    0 -0.29678736314E+02 -0.52084805223E+02 -0.14580661481E+02  0.62500000367E+02  0.10000001620E+02 0.  0.
    3000022    2    3    3    0    0 -0.25661582722E+02 -0.49807630647E+02 -0.13878197823E+02  0.57723338121E+02  0.24998097805E+00 0.  0.
    1000022    2    1    0    0    0  0.29678736314E+02  0.52084805223E+02  0.14580661481E+02  0.62499999633E+02  0.99999970300E+01 0.  0.
    3000022    2    5    5    0    0  0.17307471256E+02  0.35599530250E+02  0.55367199814E+01  0.39969900479E+02  0.25012158766E+00 0.  0.
        -13    1    4    4    0    0 -0.12971240693E+02 -0.25173734944E+02 -0.69446343188E+01  0.29158343351E+02  0.10500000000E+00 0. -1.
         13    1    4    4    0    0 -0.12690342030E+02 -0.24633895703E+02 -0.69335635038E+01  0.28564994770E+02  0.10500000000E+00 0.  1.
    3000001    1    5    5    0    0  0.12371265058E+02  0.16485274973E+02  0.90439414993E+01  0.22530099154E+02  0.10000000000E+01 0.  1.
        -13    1    6    6    0    0  0.89554176956E+01  0.18288464738E+02  0.28121594016E+01  0.20556914021E+02  0.10500000000E+00 0. -1.
         13    1    6    6    0    0  0.83520535606E+01  0.17311065512E+02  0.27245605798E+01  0.19412986458E+02  0.10500000000E+00 0.  1.
</event>
<event>
11    0  0.3396091E-009  0.9118800E+02  0.7816531E-02  0.1126479E+00
         25   -1    0    0    0    0  0.00000000000E+00  0.00000000000E+00  0.99999998245E-14  0.12500000000E+03  0.12500000000E+03 0.  0.
    3000001    1    3    3    0    0  0.19227433395E+02  0.20025369206E+02  0.23812584767E+02  0.36588916356E+02  0.10000000000E+01 0. -1.
    1000022    2    1    0    0    0  0.32618571543E+02  0.27003776484E+02  0.44867300872E+02  0.62500001354E+02  0.10000016388E+02 0.  0.
    3000022    2    3    3    0    0  0.13391138148E+02  0.69784072787E+01  0.21054716104E+02  0.25911084998E+02  0.25001297380E+00 0.  0.
    1000022    2    1    0    0    0 -0.32618571543E+02 -0.27003776484E+02 -0.44867300872E+02  0.62499998646E+02  0.99999994653E+01 0.  0.
    3000022    2    5    5    0    0 -0.81000966404E+01 -0.19171079248E+01 -0.70758077401E+01  0.10927782249E+02  0.25000265976E+00 0.  0.
        -13    1    4    4    0    0  0.50300886969E+01  0.26377105622E+01  0.78195511084E+01  0.96651804869E+01  0.10500000000E+00 0. -1.
         13    1    4    4    0    0  0.83610494512E+01  0.43406967165E+01  0.13235164996E+02  0.16245904511E+02  0.10500000000E+00 0.  1.
    3000001    1    5    5    0    0 -0.24518474903E+02 -0.25086668559E+02 -0.37791493132E+02  0.51572216397E+02  0.10000000000E+01 0.  1.
        -13    1    6    6    0    0 -0.41717063366E+01 -0.97068647062E+00 -0.37271138800E+01  0.56787119013E+01  0.10500000000E+00 0.  1.
         13    1    6    6    0    0 -0.39283903038E+01 -0.94642145418E+00 -0.33486938600E+01  0.52490703478E+01  0.10500000000E+00 0. -1.
</event>
<event>
11    0  0.3396091E-009  0.9118800E+02  0.7816531E-02  0.1126479E+00
         25   -1    0    0    0    0  0.00000000000E+00  0.00000000000E+00  0.99999998245E-14  0.12500000000E+03  0.12500000000E+03 0.  0.
    3000001    1    3    3    0    0  0.13414089654E+01  0.23108067869E+01  0.14873584469E+01  0.32173655634E+01  0.10000000000E+01 0.  1.
    1000022    2    1    0    0    0  0.54435548605E+02  0.27403270498E+02  0.95959457393E+01  0.62500002855E+02  0.99999998192E+01 0.  0.
    3000022    2    3    3    0    0  0.53094139640E+02  0.25092463711E+02  0.81085872924E+01  0.59282637292E+02  0.24999451890E+00 0.  0.
    1000022    2    1    0    0    0 -0.54435548605E+02 -0.27403270498E+02 -0.95959457393E+01  0.62499997145E+02  0.99999641270E+01 0.  0.
    3000022    2    5    5    0    0 -0.33262038453E+02 -0.19483487113E+02 -0.18893745000E+01  0.38595358656E+02  0.25000325741E+00 0.  0.
        -13    1    4    4    0    0  0.16570090122E+02  0.78718800823E+01  0.25655692256E+01  0.18523702468E+02  0.10500000000E+00 0.  1.
         13    1    4    4    0    0  0.36524049518E+02  0.17220583629E+02  0.55430180668E+01  0.40758934824E+02  0.10500000000E+00 0. -1.
    3000001    1    5    5    0    0 -0.21173510152E+02 -0.79197833848E+01 -0.77065712393E+01  0.23904638489E+02  0.10000000000E+01 0. -1.
        -13    1    6    6    0    0 -0.17560710142E+02 -0.10279008933E+02 -0.93005979322E+00  0.20369403565E+02  0.10500000000E+00 0.  1.
         13    1    6    6    0    0 -0.15701328311E+02 -0.92044781798E+01 -0.95931470678E+00  0.18225955091E+02  0.10500000000E+00 0. -1.
</event>
<event>
11    0  0.3396091E-009  0.9118800E+02  0.7816531E-02  0.1126479E+00
         25   -1    0    0    0    0  0.00000000000E+00  0.00000000000E+00  0.99999998245E-14  0.12500000000E+03  0.12500000000E+03 0.  0.
    3000001    1    3    3    0    0 -0.18982805793E+01  0.22919646949E+01  0.78189892376E+00  0.32354191764E+01  0.10000000000E+01 0.  1.
    1000022    2    1    0    0    0 -0.70630142838E+01  0.61235164462E+02 -0.25726220625E+01  0.62500000119E+02  0.10000004660E+02 0.  0.
    3000022    2    3    3    0    0 -0.51647337046E+01  0.58943199767E+02 -0.33545209863E+01  0.59264580943E+02  0.24994055668E+00 0.  0.
    1000022    2    1    0    0    0  0.70630142838E+01 -0.61235164462E+02  0.25726220625E+01  0.62499999881E+02  0.10000003166E+02 0.  0.
    3000022    2    5    5    0    0 -0.21688319007E+01 -0.63210043323E+01 -0.61157648270E+00  0.67153148218E+01  0.24999955867E+00 0.  0.
        -13    1    4    4    0    0 -0.18860933711E+01  0.22003540582E+02 -0.12950806010E+01  0.22122418609E+02  0.10500000000E+00 0. -1.
         13    1    4    4    0    0 -0.32786403334E+01  0.36939659185E+02 -0.20594403853E+01  0.37142162334E+02  0.10500000000E+00 0.  1.
    3000001    1    5    5    0    0  0.92318461845E+01 -0.54914160130E+02  0.31841985452E+01  0.55784685059E+02  0.10000000000E+01 0. -1.
        -13    1    6    6    0    0 -0.15741031813E+01 -0.44774057700E+01 -0.45795364971E+00  0.47692462507E+01  0.10500000000E+00 0. -1.
         13    1    6    6    0    0 -0.59472871931E+00 -0.18435985624E+01 -0.15362283299E+00  0.19460685711E+01  0.10500000000E+00 0.  1.
</event>
<event>
11    0  0.3396091E-009  0.9118800E+02  0.7816531E-02  0.1126479E+00
         25   -1    0    0    0    0  0.00000000000E+00  0.00000000000E+00  0.99999998245E-14  0.12500000000E+03  0.12500000000E+03 0.  0.
    3000001    1    3    3    0    0 -0.50473796799E+02  0.21324154740E+01  0.24299506083E+02  0.56067970848E+02  0.10000000000E+01 0. -1.
    1000022    2    1    0    0    0 -0.56080017740E+02 -0.67814996292E+00  0.25706454925E+02  0.62499999889E+02  0.99999942088E+01 0.  0.
    3000022    2    3    3    0    0 -0.56062209411E+01 -0.28105654369E+01  0.14069488420E+01  0.64320290414E+01  0.25000245905E+00 0.  0.
    1000022    2    1    0    0    0  0.56080017740E+02  0.67814996292E+00 -0.25706454925E+02  0.62500000111E+02  0.99999955967E+01 0.  0.
    3000022    2    5    5    0    0  0.42618566082E+02  0.13241480726E+01 -0.23856684817E+02  0.48859998507E+02  0.25000132334E+00 0.  0.
        -13    1    4    4    0    0 -0.15438304056E+01 -0.73258968465E+00  0.38409025123E+00  0.17546083006E+01  0.10500000000E+00 0. -1.
         13    1    4    4    0    0 -0.40623905355E+01 -0.20779757522E+01  0.10228585907E+01  0.46774207408E+01  0.10500000000E+00 0.  1.
    3000001    1    5    5    0    0  0.13461451658E+02 -0.64599810964E+00 -0.18497701088E+01  0.13640001604E+02  0.10000000000E+01 0.  1.
        -13    1    6    6    0    0  0.17924975024E+02  0.50249512223E+00 -0.10073468119E+02  0.20568009527E+02  0.10500000000E+00 0.  1.
         13    1    6    6    0    0  0.24693591059E+02  0.82165295033E+00 -0.13783216697E+02  0.28291988980E+02  0.10500000000E+00 0. -1.
</event>
<event>
11    0  0.3396091E-009  0.9118800E+02  0.7816531E-02  0.1126479E+00
         25   -1    0    0    0    0  0.00000000000E+00  0.00000000000E+00  0.99999998245E-14  0.12500000000E+03  0.12500000000E+03 0.  0.
    3000001    1    3    3    0    0 -0.31457736220E+01  0.53426790071E+01 -0.82850418356E+01  0.10396250712E+02  0.10000000000E+01 0. -1.
    1000022    2    1    0    0    0 -0.28216573641E+02  0.43290157458E+02 -0.33705152155E+02  0.62499999590E+02  0.99999953105E+01 0.  0.
    3000022    2    3    3    0    0 -0.25070800019E+02  0.37947478450E+02 -0.25420110320E+02  0.52103748878E+02  0.25000824101E+00 0.  0.
    1000022    2    1    0    0    0  0.28216573641E+02 -0.43290157458E+02  0.33705152155E+02  0.62500000410E+02  0.10000000433E+02 0.  0.
    3000022    2    5    5    0    0  0.57335375546E+01 -0.14901073427E+02  0.14130021251E+02  0.21322181700E+02  0.24997946109E+00 0.  0.
        -13    1    4    4    0    0 -0.14301359726E+02  0.21530921209E+02 -0.14464127535E+02  0.29619781709E+02  0.10500000000E+00 0. -1.
         13    1    4    4    0    0 -0.10769440294E+02  0.16416557241E+02 -0.10955982784E+02  0.22483967169E+02  0.10500000000E+00 0.  1.
    3000001    1    5    5    0    0  0.22483036087E+02 -0.28389084031E+02  0.19575130904E+02  0.41177818710E+02  0.10000000000E+01 0. -1.
        -13    1    6    6    0    0  0.21802000753E+01 -0.55749350861E+01  0.52306762003E+01  0.79501051625E+01  0.10500000000E+00 0.  1.
         13    1    6    6    0    0  0.35533374793E+01 -0.93261383407E+01  0.88993450509E+01  0.13372076538E+02  0.10500000000E+00 0. -1.
</event>
<event>
11    0  0.3396091E-009  0.9118800E+02  0.7816531E-02  0.1126479E+00
         25   -1    0    0    0    0  0.00000000000E+00  0.00000000000E+00  0.99999998245E-14  0.12500000000E+03  0.12500000000E+03 0.  0.
    3000001    1    3    3    0    0  0.12047227391E+02  0.15699485105E+02 -0.56729268591E+02  0.60090094319E+02  0.10000000000E+01 0. -1.
    1000022    2    1    0    0    0  0.14105845639E+02  0.15762370973E+02 -0.57955353819E+02  0.62499998213E+02  0.99999760241E+01 0.  0.
    3000022    2    3    3    0    0  0.20586182473E+01  0.62885867263E-01 -0.12260852286E+01  0.24099038946E+01  0.24997614504E+00 0.  0.
    1000022    2    1    0    0    0 -0.14105845639E+02 -0.15762370973E+02  0.57955353819E+02  0.62500001787E+02  0.99999983591E+01 0.  0.
    3000022    2    5    5    0    0 -0.10624421379E+02 -0.96498191073E+01  0.49050820532E+02  0.51108148634E+02  0.25004707630E+00 0.  0.
        -13    1    4    4    0    0  0.12813669284E+01  0.67509780385E-01 -0.69933567124E+00  0.14651123359E+01  0.10500000000E+00 0. -1.
         13    1    4    4    0    0  0.77725131889E+00 -0.46239131214E-02 -0.52674955736E+00  0.94479155874E+00  0.10500000000E+00 0.  1.
    3000001    1    5    5    0    0 -0.34814242600E+01 -0.61125518654E+01  0.89045332876E+01  0.11391853153E+02  0.10000000000E+01 0.  1.
        -13    1    6    6    0    0 -0.24647004655E+01 -0.22306863524E+01  0.11335200556E+02  0.11813065082E+02  0.10500000000E+00 0.  1.
         13    1    6    6    0    0 -0.81597209132E+01 -0.74191327549E+01  0.37715619976E+02  0.39295083552E+02  0.10500000000E+00 0. -1.
</event>
<event>
11    0  0.3396091E-009  0.9118800E+02  0.7816531E-02  0.1126479E+00
         25   -1    0    0    0    0  0.00000000000E+00  0.00000000000E+00  0.99999998245E-14  0.12500000000E+03  0.12500000000E+03 0.  0.
    3000001    1    3    3    0    0  0.84267455092E+01 -0.17346867424E+02 -0.89831366170E+01  0.21298370660E+02  0.10000000000E+01 0.  1.
    1000022    2    1    0    0    0  0.14137759279E+02 -0.48929013800E+02 -0.34818462961E+02  0.62499999697E+02  0.99999985191E+01 0.  0.
    3000022    2    3    3    0    0  0.57110137693E+01 -0.31582146376E+02 -0.25835326344E+02  0.41201629037E+02  0.25000008957E+00 0.  0.
    1000022    2    1    0    0    0 -0.14137759279E+02  0.48929013800E+02  0.34818462961E+02  0.62500000303E+02  0.10000002301E+02 0.  0.
    3000022    2    5    5    0    0 -0.12791392290E+02  0.35648547960E+02  0.29842770723E+02  0.48219209350E+02  0.24999503247E+00 0.  0.
        -13    1    4    4    0    0  0.38954883189E+01 -0.21257915327E+02 -0.17413164868E+02  0.27754335319E+02  0.10500000000E+00 0.  1.
         13    1    4    4    0    0  0.18155254505E+01 -0.10324231049E+02 -0.84221614760E+01  0.13447293718E+02  0.10500000000E+00 0. -1.
    3000001    1    5    5    0    0 -0.13463669882E+01  0.13280465839E+02  0.49756922380E+01  0.14280790952E+02  0.10000000000E+01 0.  1.
        -13    1    6    6    0    0 -0.62220767088E+01  0.17312389559E+02  0.14580937423E+02  0.23474408022E+02  0.10500000000E+00 0. -1.
         13    1    6    6    0    0 -0.65693155816E+01  0.18336158401E+02  0.15261833300E+02  0.24744801329E+02  0.10500000000E+00 0.  1.
</event>
<event>
11    0  0.3396091E-009  0.9118800E+02  0.7816531E-02  0.1126479E+00
         25   -1    0    0    0    0  0.00000000000E+00  0.00000000000E+00  0.99999998245E-14  0.12500000000E+03  0.12500000000E+03 0.  0.
    3000001    1    3    3    0    0  0.16729638190E+01 -0.27307366380E+01  0.27140018494E+01  0.43152678439E+01  0.10000000000E+01 0.  1.
    1000022    2    1    0    0    0  0.29636679393E+02 -0.91181188449E+01  0.53336452324E+02  0.62499999811E+02  0.99999986580E+01 0.  0.
    3000022    2    3    3    0    0  0.27963715574E+02 -0.63873822069E+01  0.50622450475E+02  0.58184731967E+02  0.25000376104E+00 0.  0.
    1000022    2    1    0    0    0 -0.29636679393E+02  0.91181188449E+01 -0.53336452324E+02  0.62500000189E+02  0.10000001020E+02 0.  0.
    3000022    2    5    5    0    0 -0.24556094387E+02  0.89358089630E+01 -0.36543768239E+02  0.44926161119E+02  0.25000477798E+00 0.  0.
        -13    1    4    4    0    0  0.17440994023E+02 -0.39344274840E+01  0.31627407436E+02  0.36331417784E+02  0.10500000000E+00 0.  1.
         13    1    4    4    0    0  0.10522721551E+02 -0.24529547229E+01  0.18995043039E+02  0.21853314183E+02  0.10500000000E+00 0. -1.
    3000001    1    5    5    0    0 -0.50805850063E+01  0.18230988194E+00 -0.16792684085E+02  0.17573839070E+02  0.10000000000E+01 0.  1.
        -13    1    6    6    0    0 -0.15360731756E+02  0.56007253123E+01 -0.22762535186E+02  0.28026134896E+02  0.10500000000E+00 0.  1.
         13    1    6    6    0    0 -0.91953626302E+01  0.33350836507E+01 -0.13781233053E+02  0.16900026222E+02  0.10500000000E+00 0. -1.
</event>
<event>
11    0  0.3396091E-009  0.9118800E+02  0.7816531E-02  0.1126479E+00
         25   -1    0    0    0    0  0.00000000000E+00  0.00000000000E+00  0.99999998245E-14  0.12500000000E+03  0.12500000000E+03 0.  0.
    3000001    1    3    3    0    0  0.20259150633E+01 -0.22077698748E+02 -0.91290019584E+01  0.23997245480E+02  0.10000000000E+01 0.  1.
    1000022    2    1    0    0    0 -0.37630187012E+01 -0.59619282800E+02 -0.15415276612E+02  0.62499999113E+02  0.99999972380E+01 0.  0.
    3000022    2    3    3    0    0 -0.57889337646E+01 -0.37541584052E+02 -0.62862746533E+01  0.38502753633E+02  0.25000212605E+00 0.  0.
    1000022    2    1    0    0    0  0.37630187012E+01  0.59619282800E+02  0.15415276612E+02  0.62500000887E+02  0.10000008324E+02 0.  0.
    3000022    2    5    5    0    0  0.32873479230E+01  0.67724717186E+01  0.35465735727E+01  0.83254882816E+01  0.25008293571E+00 0.  0.
        -13    1    4    4    0    0 -0.35086474071E+01 -0.22621743043E+02 -0.38487364809E+01  0.23213738657E+02  0.10500000000E+00 0.  1.
         13    1    4    4    0    0 -0.22802863574E+01 -0.14919841009E+02 -0.24375381724E+01  0.15289014977E+02  0.10500000000E+00 0. -1.
    3000001    1    5    5    0    0  0.47567077819E+00  0.52846811082E+02  0.11868703039E+02  0.54174512605E+02  0.10000000000E+01 0. -1.
        -13    1    6    6    0    0  0.18666112717E+01  0.38992468143E+01  0.21036585264E+01  0.48088218468E+01  0.10500000000E+00 0.  1.
         13    1    6    6    0    0  0.14207366513E+01  0.28732249043E+01  0.14429150463E+01  0.35166664348E+01  0.10500000000E+00 0. -1.
</event>
<event>
11    0  0.3396091E-009  0.9118800E+02  0.7816531E-02  0.1126479E+00
         25   -1    0    0    0    0  0.00000000000E+00  0.00000000000E+00  0.99999998245E-14  0.12500000000E+03  0.12500000000E+03 0.  0.
    3000001    1    3    3    0    0 -0.50395641927E+02 -0.13023346447E+02  0.14258884819E+02  0.53978181464E+02  0.10000000000E+01 0. -1.
    1000022    2    1    0    0    0 -0.57771142710E+02 -0.11605069016E+02  0.18277514463E+02  0.62500001092E+02  0.10000002229E+02 0.  0.
    3000022    2    3    3    0    0 -0.73755007834E+01  0.14182774307E+01  0.40186296440E+01  0.85218196274E+01  0.25000573783E+00 0.  0.
    1000022    2    1    0    0    0  0.57771142710E+02  0.11605069016E+02 -0.18277514463E+02  0.62499998908E+02  0.99999885829E+01 0.  0.
    3000022    2    5    5    0    0  0.28320050798E+02  0.87801635980E+00 -0.10220798227E+02  0.30121809490E+02  0.25000120273E+00 0.  0.
        -13    1    4    4    0    0 -0.42824188402E+01  0.88370200271E+00  0.23094008881E+01  0.49461497970E+01  0.10500000000E+00 0. -1.
         13    1    4    4    0    0 -0.30930819432E+01  0.53457542800E+00  0.17092287559E+01  0.35756698303E+01  0.10500000000E+00 0.  1.
    3000001    1    5    5    0    0  0.29451091912E+02  0.10727052656E+02 -0.80567162361E+01  0.32378189418E+02  0.10000000000E+01 0.  1.
        -13    1    6    6    0    0  0.13552248872E+02  0.44871151223E+00 -0.48262237040E+01  0.14393340535E+02  0.10500000000E+00 0. -1.
         13    1    6    6    0    0  0.14767801926E+02  0.42930484757E+00 -0.53945745232E+01  0.15728468955E+02  0.10500000000E+00 0.  1.
</event>
<event>
11    0  0.3396091E-009  0.9118800E+02  0.7816531E-02  0.1126479E+00
         25   -1    0    0    0    0  0.00000000000E+00  0.00000000000E+00  0.99999998245E-14  0.12500000000E+03  0.12500000000E+03 0.  0.
    3000001    1    3    3    0    0 -0.27790169797E+02 -0.17539126922E+02 -0.15936040182E+02  0.36535898610E+02  0.10000000000E+01 0.  1.
    1000022    2    1    0    0    0 -0.50660788895E+02 -0.22257479284E+02 -0.27282578845E+02  0.62499998936E+02  0.99999921563E+01 0.  0.
    3000022    2    3    3    0    0 -0.22870619097E+02 -0.47183523618E+01 -0.11346538663E+02  0.25964100326E+02  0.24999846271E+00 0.  0.
    1000022    2    1    0    0    0  0.50660788895E+02  0.22257479284E+02  0.27282578845E+02  0.62500001064E+02  0.10000005450E+02 0.  0.
    3000022    2    5    5    0    0  0.15024370647E+02  0.41365630554E+01  0.12070419455E+02  0.19712950408E+02  0.25004144359E+00 0.  0.
        -13    1    4    4    0    0 -0.13136552660E+02 -0.26587653517E+01 -0.64659676705E+01  0.14881458662E+02  0.10500000000E+00 0.  1.
         13    1    4    4    0    0 -0.97340664373E+01 -0.20595870101E+01 -0.48805709921E+01  0.11082641665E+02  0.10500000000E+00 0. -1.
    3000001    1    5    5    0    0  0.35636418247E+02  0.18120916229E+02  0.15212159390E+02  0.42787050655E+02  0.10000000000E+01 0.  1.
        -13    1    6    6    0    0  0.11587380462E+02  0.31896662762E+01  0.93049397008E+01  0.15199811998E+02  0.10500000000E+00 0. -1.
         13    1    6    6    0    0  0.34369901848E+01  0.94689677923E+00  0.27654797543E+01  0.45131384105E+01  0.10500000000E+00 0.  1.
</event>
<event>
11    0  0.3396091E-009  0.9118800E+02  0.7816531E-02  0.1126479E+00
         25   -1    0    0    0    0  0.00000000000E+00  0.00000000000E+00  0.99999998245E-14  0.12500000000E+03  0.12500000000E+03 0.  0.
    3000001    1    3    3    0    0 -0.13778091822E+02  0.11157291308E+02 -0.28989402967E+02  0.33995682784E+02  0.10000000000E+01 0.  1.
    1000022    2    1    0    0    0 -0.17394007206E+02  0.17554485312E+02 -0.56529094702E+02  0.62499999719E+02  0.99999987864E+01 0.  0.
    3000022    2    3    3    0    0 -0.36159153845E+01  0.63971940037E+01 -0.27539691735E+02  0.28504316934E+02  0.25005567511E+00 0.  0.
    1000022    2    1    0    0    0  0.17394007206E+02 -0.17554485312E+02  0.56529094702E+02  0.62500000281E+02  0.10000002301E+02 0.  0.
    3000022    2    5    5    0    0  0.16678882251E+02 -0.11030647808E+02  0.41307192336E+02  0.45893430162E+02  0.24997826503E+00 0.  0.
        -13    1    4    4    0    0 -0.15968692633E+01  0.29486147021E+01 -0.12456987654E+02  0.12900848287E+02  0.10500000000E+00 0. -1.
         13    1    4    4    0    0 -0.20190461213E+01  0.34485793015E+01 -0.15082704081E+02  0.15603468647E+02  0.10500000000E+00 0.  1.
    3000001    1    5    5    0    0  0.71512495534E+00 -0.65238375040E+01  0.15221902366E+02  0.16606570119E+02  0.10000000000E+01 0.  1.
        -13    1    6    6    0    0  0.91318195140E+01 -0.60108203630E+01  0.22726388480E+02  0.25219433923E+02  0.10500000000E+00 0.  1.
         13    1    6    6    0    0  0.75470627368E+01 -0.50198274450E+01  0.18580803857E+02  0.20673996239E+02  0.10500000000E+00 0. -1.
</event>
<event>
11    0  0.3396091E-009  0.9118800E+02  0.7816531E-02  0.1126479E+00
         25   -1    0    0    0    0  0.00000000000E+00  0.00000000000E+00  0.99999998245E-14  0.12500000000E+03  0.12500000000E+03 0.  0.
    3000001    1    3    3    0    0  0.23115820767E+02  0.71081763903E+01 -0.29543604348E+02  0.38192825232E+02  0.10000000000E+01 0.  1.
    1000022    2    1    0    0    0  0.32537544240E+02  0.17403680797E+02 -0.49443602345E+02  0.62499999132E+02  0.10000009410E+02 0.  0.
    3000022    2    3    3    0    0  0.94217234728E+01  0.10295504407E+02 -0.19899997997E+02  0.24307173900E+02  0.24999706189E+00 0.  0.
    1000022    2    1    0    0    0 -0.32537544240E+02 -0.17403680797E+02  0.49443602345E+02  0.62500000868E+02  0.10000020263E+02 0.  0.
    3000022    2    5    5    0    0 -0.29581859134E+02 -0.14038582294E+02  0.37950437027E+02  0.50124508498E+02  0.24999795961E+00 0.  0.
        -13    1    4    4    0    0  0.31865369186E+01  0.34886603034E+01 -0.68329925723E+01  0.83081634997E+01  0.10500000000E+00 0.  1.
         13    1    4    4    0    0  0.62351865542E+01  0.68068441037E+01 -0.13067005425E+02  0.15999010400E+02  0.10500000000E+00 0. -1.
    3000001    1    5    5    0    0 -0.29556851053E+01 -0.33650985031E+01  0.11493165318E+02  0.12375492370E+02  0.10000000000E+01 0.  1.
        -13    1    6    6    0    0 -0.17417122140E+02 -0.83182036947E+01  0.22304618158E+02  0.29496706130E+02  0.10500000000E+00 0.  1.
         13    1    6    6    0    0 -0.12164736994E+02 -0.57203785996E+01  0.15645818869E+02  0.20627802369E+02  0.10500000000E+00 0. -1.
</event>
<event>
11    0  0.3396091E-009  0.9118800E+02  0.7816531E-02  0.1126479E+00
         25   -1    0    0    0    0  0.00000000000E+00  0.00000000000E+00  0.99999998245E-14  0.12500000000E+03  0.12500000000E+03 0.  0.
    3000001    1    3    3    0    0  0.17199074638E+01 -0.49670595515E+02 -0.11119469033E+01  0.49722857585E+02  0.10000000000E+01 0.  1.
    1000022    2    1    0    0    0  0.43151043522E+01 -0.61270627509E+02 -0.57913761503E+01  0.62500000034E+02  0.10000002283E+02 0.  0.
    3000022    2    3    3    0    0  0.25951968885E+01 -0.11600031993E+02 -0.46794292470E+01  0.12777142449E+02  0.25004388141E+00 0.  0.
    1000022    2    1    0    0    0 -0.43151043522E+01  0.61270627509E+02  0.57913761503E+01  0.62499999966E+02  0.10000001859E+02 0.  0.
    3000022    2    5    5    0    0  0.32471905042E+01  0.18882323433E+02  0.19262167523E+01  0.19257704894E+02  0.25000484420E+00 0.  0.
        -13    1    4    4    0    0  0.17528240408E+01 -0.80478545368E+01 -0.32535678475E+01  0.88564712782E+01  0.10500000000E+00 0. -1.
         13    1    4    4    0    0  0.84237284767E+00 -0.35521774565E+01 -0.14258613995E+01  0.39206711706E+01  0.10500000000E+00 0.  1.
    3000001    1    5    5    0    0 -0.75622948565E+01  0.42388304076E+02  0.38651593981E+01  0.43242295072E+02  0.10000000000E+01 0.  1.
        -13    1    6    6    0    0  0.20741513168E+01  0.12037148014E+02  0.12865773661E+01  0.12282562531E+02  0.10500000000E+00 0. -1.
         13    1    6    6    0    0  0.11730391874E+01  0.68451754183E+01  0.63963938614E+00  0.69751423632E+01  0.10500000000E+00 0.  1.
</event>
<event>
11    0  0.3396091E-009  0.9118800E+02  0.7816531E-02  0.1126479E+00
         25   -1    0    0    0    0  0.00000000000E+00  0.00000000000E+00  0.99999998245E-14  0.12500000000E+03  0.12500000000E+03 0.  0.
    3000001    1    3    3    0    0 -0.14001354938E+02 -0.19002691721E+02 -0.42999275743E+02  0.49061980668E+02  0.10000000000E+01 0.  1.
    1000022    2    1    0    0    0 -0.18779831975E+02 -0.19161284691E+02 -0.55555499681E+02  0.62499995851E+02  0.99999508281E+01 0.  0.
    3000022    2    3    3    0    0 -0.47784770378E+01 -0.15859296969E+00 -0.12556223938E+02  0.13438015182E+02  0.24999585226E+00 0.  0.
    1000022    2    1    0    0    0  0.18779831975E+02  0.19161284691E+02  0.55555499681E+02  0.62500004149E+02  0.10000002692E+02 0.  0.
    3000022    2    5    5    0    0  0.69999993068E+01  0.13294261047E+02  0.34773655268E+02  0.37881485076E+02  0.24988762426E+00 0.  0.
        -13    1    4    4    0    0 -0.20777730121E+01 -0.69974329503E-01 -0.52772303935E+01  0.56729377507E+01  0.10500000000E+00 0.  1.
         13    1    4    4    0    0 -0.27007040256E+01 -0.88618640189E-01 -0.72789935446E+01  0.77650774317E+01  0.10500000000E+00 0. -1.
    3000001    1    5    5    0    0  0.11779832669E+02  0.58670236439E+01  0.20781844413E+02  0.24618519073E+02  0.10000000000E+01 0.  1.
        -13    1    6    6    0    0  0.47302525822E+01  0.90632276990E+01  0.23573147220E+02  0.25694779249E+02  0.10500000000E+00 0. -1.
         13    1    6    6    0    0  0.22697467246E+01  0.42310333478E+01  0.11200508048E+02  0.12186705827E+02  0.10500000000E+00 0.  1.
</event>
<event>
11    0  0.3396091E-009  0.9118800E+02  0.7816531E-02  0.1126479E+00
         25   -1    0    0    0    0  0.00000000000E+00  0.00000000000E+00  0.99999998245E-14  0.12500000000E+03  0.12500000000E+03 0.  0.
    3000001    1    3    3    0    0 -0.19594072960E+02  0.26982195158E+02 -0.29343763168E+02  0.44429978478E+02  0.10000000000E+01 0.  1.
    1000022    2    1    0    0    0 -0.31952808410E+02  0.37902576421E+02 -0.36724146450E+02  0.62499998512E+02  0.99999808473E+01 0.  0.
    3000022    2    3    3    0    0 -0.12358735450E+02  0.10920381263E+02 -0.73803832817E+01  0.18070020034E+02  0.24999560195E+00 0.  0.
    1000022    2    1    0    0    0  0.31952808410E+02 -0.37902576421E+02  0.36724146450E+02  0.62500001488E+02  0.99999994473E+01 0.  0.
    3000022    2    5    5    0    0  0.27953196539E+02 -0.36730787028E+02  0.32279634647E+02  0.56325564618E+02  0.25000838774E+00 0.  0.
        -13    1    4    4    0    0 -0.50997493860E+01  0.45109907200E+01 -0.31172776729E+01  0.74889869920E+01  0.10500000000E+00 0.  1.
         13    1    4    4    0    0 -0.72589860638E+01  0.64093905428E+01 -0.42631056089E+01  0.10581033042E+02  0.10500000000E+00 0. -1.
    3000001    1    5    5    0    0  0.39996118707E+01 -0.11717893934E+01  0.44445118021E+01  0.61744368697E+01  0.10000000000E+01 0.  1.
        -13    1    6    6    0    0  0.17214745359E+02 -0.22527032963E+02  0.19797425592E+02  0.34579817191E+02  0.10500000000E+00 0.  1.
         13    1    6    6    0    0  0.10738451180E+02 -0.14203754065E+02  0.12482209056E+02  0.21745747427E+02  0.10500000000E+00 0. -1.
</event>
<event>
11    0  0.3396091E-009  0.9118800E+02  0.7816531E-02  0.1126479E+00
         25   -1    0    0    0    0  0.00000000000E+00  0.00000000000E+00  0.99999998245E-14  0.12500000000E+03  0.12500000000E+03 0.  0.
    3000001    1    3    3    0    0  0.24808756369E+02  0.25068367007E+02  0.24418875328E+02  0.42908960477E+02  0.10000000000E+01 0.  1.
    1000022    2    1    0    0    0  0.31744049373E+02  0.34417738948E+02  0.40174424152E+02  0.62500001869E+02  0.10000022640E+02 0.  0.
    3000022    2    3    3    0    0  0.69352930040E+01  0.93493719417E+01  0.15755548824E+02  0.19591041392E+02  0.25007863572E+00 0.  0.
    1000022    2    1    0    0    0 -0.31744049373E+02 -0.34417738948E+02 -0.40174424152E+02  0.62499998131E+02  0.99999992795E+01 0.  0.
    3000022    2    5    5    0    0 -0.28721640505E+02 -0.27972751489E+02 -0.37291223165E+02  0.54754956708E+02  0.24999956085E+00 0.  0.
        -13    1    4    4    0    0  0.52018612286E+01  0.70339690573E+01  0.11876324099E+02  0.14751073860E+02  0.10500000000E+00 0.  1.
         13    1    4    4    0    0  0.17334317755E+01  0.23154028844E+01  0.38792247252E+01  0.48399675315E+01  0.10500000000E+00 0. -1.
    3000001    1    5    5    0    0 -0.30224088676E+01 -0.64449874597E+01 -0.28832009862E+01  0.77450414231E+01  0.10000000000E+01 0. -1.
        -13    1    6    6    0    0 -0.12053521537E+02 -0.11714301973E+02 -0.15548833389E+02  0.22897368777E+02  0.10500000000E+00 0. -1.
         13    1    6    6    0    0 -0.16668118968E+02 -0.16258449516E+02 -0.21742389776E+02  0.31857587931E+02  0.10500000000E+00 0.  1.
</event>
<event>
11    0  0.3396091E-009  0.9118800E+02  0.7816531E-02  0.1126479E+00
         25   -1    0    0    0    0  0.00000000000E+00  0.00000000000E+00  0.99999998245E-14  0.12500000000E+03  0.12500000000E+03 0.  0.
    3000001    1    3    3    0    0 -0.18160421161E+02 -0.59272993284E+01  0.17800811181E+02  0.26130492777E+02  0.10000000000E+01 0.  1.
    1000022    2    1    0    0    0 -0.36615547151E+02 -0.23551778718E+02  0.43713445407E+02  0.62500000074E+02  0.10000006297E+02 0.  0.
    3000022    2    3    3    0    0 -0.18455125989E+02 -0.17624479390E+02  0.25912634226E+02  0.36369507296E+02  0.24999881677E+00 0.  0.
    1000022    2    1    0    0    0  0.36615547151E+02  0.23551778718E+02 -0.43713445407E+02  0.62499999926E+02  0.10000005377E+02 0.  0.
    3000022    2    5    5    0    0  0.36632366500E+02  0.23516408664E+02 -0.41854835607E+02  0.60389084410E+02  0.25000055437E+00 0.  0.
        -13    1    4    4    0    0 -0.67251500237E+01 -0.63449450817E+01  0.93651573358E+01  0.13160667455E+02  0.10500000000E+00 0.  1.
         13    1    4    4    0    0 -0.11729975965E+02 -0.11279534308E+02  0.16547476890E+02  0.23208839841E+02  0.10500000000E+00 0. -1.
    3000001    1    5    5    0    0 -0.16819349725E-01  0.35370053847E-01 -0.18586097994E+01  0.21109155164E+01  0.10000000000E+01 0.  1.
        -13    1    6    6    0    0  0.12524180136E+02  0.80752232862E+01 -0.14392779756E+02  0.20717805224E+02  0.10500000000E+00 0. -1.
         13    1    6    6    0    0  0.24108186364E+02  0.15441185378E+02 -0.27462055851E+02  0.39671279186E+02  0.10500000000E+00 0.  1.
</event>
<event>
11    0  0.3396091E-009  0.9118800E+02  0.7816531E-02  0.1126479E+00
         25   -1    0    0    0    0  0.00000000000E+00  0.00000000000E+00  0.99999998245E-14  0.12500000000E+03  0.12500000000E+03 0.  0.
    3000001    1    3    3    0    0 -0.26911843968E+02 -0.93254423486E+01  0.10366877881E+02  0.30326281964E+02  0.10000000000E+01 0.  1.
    1000022    2    1    0    0    0 -0.57526529938E+02 -0.93048187341E+01  0.20257574499E+02  0.62499994460E+02  0.99999342218E+01 0.  0.
    3000022    2    3    3    0    0 -0.30614685970E+02  0.20623614484E-01  0.98906966185E+01  0.32173712496E+02  0.24994753321E+00 0.  0.
    1000022    2    1    0    0    0  0.57526529938E+02  0.93048187341E+01 -0.20257574499E+02  0.62500005540E+02  0.10000003475E+02 0.  0.
    3000022    2    5    5    0    0  0.30616765113E+02 -0.45549691422E-01 -0.10195719288E+02  0.32270785191E+02  0.25000851818E+00 0.  0.
        -13    1    4    4    0    0 -0.18481165740E+02 -0.17901201661E-01  0.59130733680E+01  0.19404362119E+02  0.10500000000E+00 0.  1.
         13    1    4    4    0    0 -0.12133520230E+02  0.38524816145E-01  0.39776232505E+01  0.12769350377E+02  0.10500000000E+00 0. -1.
    3000001    1    5    5    0    0  0.26909764825E+02  0.93503684255E+01 -0.10061855211E+02  0.30229220350E+02  0.10000000000E+01 0. -1.
        -13    1    6    6    0    0  0.85726463017E+01 -0.41189599603E-01 -0.28841478491E+01  0.90455124241E+01  0.10500000000E+00 0.  1.
         13    1    6    6    0    0  0.22044118811E+02 -0.43600918196E-02 -0.73115714390E+01  0.23225272767E+02  0.10500000000E+00 0. -1.
</event>
<event>
11    0  0.3396091E-009  0.9118800E+02  0.7816531E-02  0.1126479E+00
         25   -1    0    0    0    0  0.00000000000E+00  0.00000000000E+00  0.99999998245E-14  0.12500000000E+03  0.12500000000E+03 0.  0.
    3000001    1    3    3    0    0 -0.41832244197E+02 -0.17589942648E+02 -0.39825856102E+02  0.60385772754E+02  0.10000000000E+01 0.  1.
    1000022    2    1    0    0    0 -0.42655443888E+02 -0.19504531714E+02 -0.40079126940E+02  0.62500000139E+02  0.99999975207E+01 0.  0.
    3000022    2    3    3    0    0 -0.82319969158E+00 -0.19145890659E+01 -0.25327083866E+00  0.21142273850E+01  0.25000458820E+00 0.  0.
    1000022    2    1    0    0    0  0.42655443888E+02  0.19504531714E+02  0.40079126940E+02  0.62499999861E+02  0.99999957791E+01 0.  0.
    3000022    2    5    5    0    0  0.22674240883E+02  0.12409095052E+02  0.27870823793E+02  0.38012526314E+02  0.24999649013E+00 0.  0.
        -13    1    4    4    0    0 -0.20871316693E+00 -0.44668828565E+00 -0.70242626040E-01  0.50897017310E+00  0.10500000000E+00 0. -1.
         13    1    4    4    0    0 -0.61448652466E+00 -0.14679007803E+01 -0.18302821262E+00  0.16052572119E+01  0.10500000000E+00 0.  1.
    3000001    1    5    5    0    0  0.19981203005E+02  0.70954366615E+01  0.12208303148E+02  0.24487473546E+02  0.10000000000E+01 0.  1.
        -13    1    6    6    0    0  0.92160137643E+01  0.49747830285E+01  0.11264031695E+02  0.15380923604E+02  0.10500000000E+00 0.  1.
         13    1    6    6    0    0  0.13458227119E+02  0.74343120240E+01  0.16606792098E+02  0.22631602711E+02  0.10500000000E+00 0. -1.
</event>
<event>
11    0  0.3396091E-009  0.9118800E+02  0.7816531E-02  0.1126479E+00
         25   -1    0    0    0    0  0.00000000000E+00  0.00000000000E+00  0.99999998245E-14  0.12500000000E+03  0.12500000000E+03 0.  0.
    3000001    1    3    3    0    0 -0.30840372535E+02 -0.23579069413E+02  0.22251133437E+02  0.44757279092E+02  0.10000000000E+01 0.  1.
    1000022    2    1    0    0    0 -0.45495297766E+02 -0.27194889756E+02  0.31573180438E+02  0.62499997396E+02  0.99999901917E+01 0.  0.
    3000022    2    3    3    0    0 -0.14654925231E+02 -0.36158203431E+01  0.93220470014E+01  0.17742718304E+02  0.25000448154E+00 0.  0.
    1000022    2    1    0    0    0  0.45495297766E+02  0.27194889756E+02 -0.31573180438E+02  0.62500002604E+02  0.10000022741E+02 0.  0.
    3000022    2    5    5    0    0  0.40557409927E+02  0.22747992251E+02 -0.23846279486E+02  0.52259756901E+02  0.24998911340E+00 0.  0.
        -13    1    4    4    0    0 -0.59663804695E+01 -0.15234485849E+01  0.37562834558E+01  0.72138257463E+01  0.10500000000E+00 0.  1.
         13    1    4    4    0    0 -0.86885447613E+01 -0.20923717581E+01  0.55657635456E+01  0.10528892558E+02  0.10500000000E+00 0. -1.
    3000001    1    5    5    0    0  0.49378878391E+01  0.44468975053E+01 -0.77269009527E+01  0.10240245703E+02  0.10000000000E+01 0. -1.
        -13    1    6    6    0    0  0.27723644624E+02  0.15497777056E+02 -0.16263457811E+02  0.35683226450E+02  0.10500000000E+00 0.  1.
         13    1    6    6    0    0  0.12833765303E+02  0.72502151946E+01 -0.75828216750E+01  0.16576530450E+02  0.10500000000E+00 0. -1.
</event>
<event>
11    0  0.3396091E-009  0.9118800E+02  0.7816531E-02  0.1126479E+00
         25   -1    0    0    0    0  0.00000000000E+00  0.00000000000E+00  0.99999998245E-14  0.12500000000E+03  0.12500000000E+03 0.  0.
    3000001    1    3    3    0    0 -0.13779752890E+02  0.17714057854E+02 -0.16561418602E+02  0.27909676126E+02  0.10000000000E+01 0. -1.
    1000022    2    1    0    0    0 -0.20792669283E+02  0.44037356873E+02 -0.37876458822E+02  0.62499999936E+02  0.99999981442E+01 0.  0.
    3000022    2    3    3    0    0 -0.70129163927E+01  0.26323299019E+02 -0.21315040220E+02  0.34590323810E+02  0.24998825146E+00 0.  0.
    1000022    2    1    0    0    0  0.20792669283E+02 -0.44037356873E+02  0.37876458822E+02  0.62500000064E+02  0.99999989439E+01 0.  0.
    3000022    2    5    5    0    0  0.20853503264E+02 -0.37692021311E+02  0.34799802084E+02  0.55377303886E+02  0.24998332502E+00 0.  0.
        -13    1    4    4    0    0 -0.40578047681E+01  0.15243088642E+02 -0.12424437234E+02  0.20079721026E+02  0.10500000000E+00 0. -1.
         13    1    4    4    0    0 -0.29551116246E+01  0.11080210377E+02 -0.88906029864E+01  0.14510602784E+02  0.10500000000E+00 0.  1.
    3000001    1    5    5    0    0 -0.60833981649E-01 -0.63453355615E+01  0.30766567374E+01  0.71226961778E+01  0.10000000000E+01 0. -1.
        -13    1    6    6    0    0  0.87571850067E+01 -0.15694972688E+02  0.14517659812E+02  0.23103980790E+02  0.10500000000E+00 0.  1.
         13    1    6    6    0    0  0.12096318258E+02 -0.21997048623E+02  0.20282142272E+02  0.32273323096E+02  0.10500000000E+00 0. -1.
</event>
<event>
11    0  0.3396091E-009  0.9118800E+02  0.7816531E-02  0.1126479E+00
         25   -1    0    0    0    0  0.00000000000E+00  0.00000000000E+00  0.99999998245E-14  0.12500000000E+03  0.12500000000E+03 0.  0.
    3000001    1    3    3    0    0 -0.16875778765E+02  0.21360434685E+01  0.12446258499E+02  0.21101278189E+02  0.10000000000E+01 0.  1.
    1000022    2    1    0    0    0 -0.40080465071E+02  0.94436247520E+01  0.45941532173E+02  0.62499998794E+02  0.99999871003E+01 0.  0.
    3000022    2    3    3    0    0 -0.23204686306E+02  0.73075812835E+01  0.33495273675E+02  0.41398720604E+02  0.24999665902E+00 0.  0.
    1000022    2    1    0    0    0  0.40080465071E+02 -0.94436247520E+01 -0.45941532173E+02  0.62500001206E+02  0.10000002181E+02 0.  0.
    3000022    2    5    5    0    0  0.15228688417E+02 -0.65157064137E+00 -0.22689071167E+02  0.27334848552E+02  0.24999950410E+00 0.  0.
        -13    1    4    4    0    0 -0.10912434967E+02  0.35072129587E+01  0.15783331783E+02  0.19506572400E+02  0.10500000000E+00 0.  1.
         13    1    4    4    0    0 -0.12292251340E+02  0.38003683248E+01  0.17711941892E+02  0.21892148204E+02  0.10500000000E+00 0. -1.
    3000001    1    5    5    0    0  0.24851776654E+02 -0.87920541106E+01 -0.23252461007E+02  0.35165152655E+02  0.10000000000E+01 0.  1.
        -13    1    6    6    0    0  0.72580611854E+01 -0.37690074172E+00 -0.10794644942E+02  0.13013719328E+02  0.10500000000E+00 0. -1.
         13    1    6    6    0    0  0.79706272313E+01 -0.27466989965E+00 -0.11894426225E+02  0.14321129223E+02  0.10500000000E+00 0.  1.
</event>
<event>
11    0  0.3396091E-009  0.9118800E+02  0.7816531E-02  0.1126479E+00
         25   -1    0    0    0    0  0.00000000000E+00  0.00000000000E+00  0.99999998245E-14  0.12500000000E+03  0.12500000000E+03 0.  0.
    3000001    1    3    3    0    0 -0.23560194682E+02 -0.99756544448E+01 -0.29200480005E+02  0.38836380980E+02  0.10000000000E+01 0.  1.
    1000022    2    1    0    0    0 -0.39131915991E+02 -0.22069849339E+02 -0.42283152863E+02  0.62500000421E+02  0.99999968782E+01 0.  0.
    3000022    2    3    3    0    0 -0.15571721309E+02 -0.12094194894E+02 -0.13082672858E+02  0.23663619441E+02  0.25000256268E+00 0.  0.
    1000022    2    1    0    0    0  0.39131915991E+02  0.22069849339E+02  0.42283152863E+02  0.62499999579E+02  0.99999916201E+01 0.  0.
    3000022    2    5    5    0    0  0.16431201636E+02  0.14419245929E+02  0.22989245317E+02  0.31724862972E+02  0.24998003708E+00 0.  0.
        -13    1    4    4    0    0 -0.73849729902E+01 -0.58165452463E+01 -0.62108041921E+01  0.11267437081E+02  0.10500000000E+00 0. -1.
         13    1    4    4    0    0 -0.81867483187E+01 -0.62776496480E+01 -0.68718686657E+01  0.12396182360E+02  0.10500000000E+00 0.  1.
    3000001    1    5    5    0    0  0.22700714356E+02  0.76506034106E+01  0.19293907545E+02  0.30775136607E+02  0.10000000000E+01 0. -1.
        -13    1    6    6    0    0  0.61113391318E+01  0.52845909356E+01  0.85076705951E+01  0.11733151806E+02  0.10500000000E+00 0.  1.
         13    1    6    6    0    0  0.10319862504E+02  0.91346549929E+01  0.14481574722E+02  0.19991711167E+02  0.10500000000E+00 0. -1.
</event>
<event>
11    0  0.3396091E-009  0.9118800E+02  0.7816531E-02  0.1126479E+00
         25   -1    0    0    0    0  0.00000000000E+00  0.00000000000E+00  0.99999998245E-14  0.12500000000E+03  0.12500000000E+03 0.  0.
    3000001    1    3    3    0    0 -0.24588727944E+02 -0.11275526170E+02 -0.15973064334E+02  0.31430587276E+02  0.10000000000E+01 0.  1.
    1000022    2    1    0    0    0 -0.48866595738E+02 -0.28796213536E+02 -0.24271052494E+02  0.62500000444E+02  0.99999986629E+01 0.  0.
    3000022    2    3    3    0    0 -0.24277867795E+02 -0.17520687366E+02 -0.82979881603E+01  0.31069413168E+02  0.24995332062E+00 0.  0.
    1000022    2    1    0    0    0  0.48866595738E+02  0.28796213536E+02  0.24271052494E+02  0.62499999556E+02  0.99999931139E+01 0.  0.
    3000022    2    5    5    0    0  0.59185285308E+00  0.14273675517E+01  0.23542606395E+01  0.28271389213E+01  0.25000678789E+00 0.  0.
        -13    1    4    4    0    0 -0.99354223891E+01 -0.72034372423E+01 -0.34614321929E+01  0.12751261270E+02  0.10500000000E+00 0. -1.
         13    1    4    4    0    0 -0.14342445405E+02 -0.10317250124E+02 -0.48365559675E+01  0.18318151898E+02  0.10500000000E+00 0.  1.
    3000001    1    5    5    0    0  0.48274742885E+02  0.27368845985E+02  0.21916791854E+02  0.59672860635E+02  0.10000000000E+01 0.  1.
        -13    1    6    6    0    0  0.43138088485E+00  0.91852732003E+00  0.14797170201E+01  0.17973228328E+01  0.10500000000E+00 0.  1.
         13    1    6    6    0    0  0.16047196823E+00  0.50884023171E+00  0.87454361937E+00  0.10298160885E+01  0.10500000000E+00 0. -1.
</event>
<event>
11    0  0.3396091E-009  0.9118800E+02  0.7816531E-02  0.1126479E+00
         25   -1    0    0    0    0  0.00000000000E+00  0.00000000000E+00  0.99999998245E-14  0.12500000000E+03  0.12500000000E+03 0.  0.
    3000001    1    3    3    0    0  0.52430022523E+01  0.74034897101E+01 -0.21584363990E+01  0.93786768893E+01  0.10000000000E+01 0. -1.
    1000022    2    1    0    0    0  0.33205567320E+02  0.51305424906E+02  0.84494700108E+01  0.62500001550E+02  0.10000016226E+02 0.  0.
    3000022    2    3    3    0    0  0.27962565067E+02  0.43901935196E+02  0.10607906410E+02  0.53121324661E+02  0.24999249074E+00 0.  0.
    1000022    2    1    0    0    0 -0.33205567320E+02 -0.51305424906E+02 -0.84494700108E+01  0.62499998450E+02  0.99999968497E+01 0.  0.
    3000022    2    5    5    0    0 -0.33127380415E+02 -0.50957148178E+02 -0.78594915178E+01  0.61285303223E+02  0.25000133329E+00 0.  0.
        -13    1    4    4    0    0  0.13292907027E+02  0.20754950397E+02  0.49955869131E+01  0.25148285365E+02  0.10500000000E+00 0.  1.
         13    1    4    4    0    0  0.14669658041E+02  0.23146984799E+02  0.56123194966E+01  0.27973039296E+02  0.10500000000E+00 0. -1.
    3000001    1    5    5    0    0 -0.78186904514E-01 -0.34827672784E+00 -0.58997849294E+00  0.12146952265E+01  0.10000000000E+01 0. -1.
        -13    1    6    6    0    0 -0.18860407520E+02 -0.29112788937E+02 -0.44501843244E+01  0.34972626682E+02  0.10500000000E+00 0. -1.
         13    1    6    6    0    0 -0.14266972895E+02 -0.21844359241E+02 -0.34093071934E+01  0.26312676542E+02  0.10500000000E+00 0.  1.
</event>
<event>
11    0  0.3396091E-009  0.9118800E+02  0.7816531E-02  0.1126479E+00
         25   -1    0    0    0    0  0.00000000000E+00  0.00000000000E+00  0.99999998245E-14  0.12500000000E+03  0.12500000000E+03 0.  0.
    3000001    1    3    3    0    0 -0.29826966966E+02  0.43788605406E+02 -0.10965119594E+02  0.54113988668E+02  0.10000000000E+01 0. -1.
    1000022    2    1    0    0    0 -0.33357132271E+02  0.49308627997E+02 -0.16192927867E+02  0.62500000480E+02  0.10000003938E+02 0.  0.
    3000022    2    3    3    0    0 -0.35301653053E+01  0.55200225906E+01 -0.52278082731E+01  0.83860118121E+01  0.24999657591E+00 0.  0.
    1000022    2    1    0    0    0  0.33357132271E+02 -0.49308627997E+02  0.16192927867E+02  0.62499999520E+02  0.99999979422E+01 0.  0.
    3000022    2    5    5    0    0  0.11356268217E+02 -0.17618489269E+02  0.87934364978E+00  0.20981223367E+02  0.24999353241E+00 0.  0.
        -13    1    4    4    0    0 -0.23951450163E+01  0.36867281704E+01 -0.35603389258E+01  0.56582437662E+01  0.10500000000E+00 0.  1.
         13    1    4    4    0    0 -0.11350202891E+01  0.18332944202E+01 -0.16674693473E+01  0.27277680459E+01  0.10500000000E+00 0. -1.
    3000001    1    5    5    0    0  0.22000864055E+02 -0.31690138727E+02  0.15313584217E+02  0.41518776154E+02  0.10000000000E+01 0. -1.
        -13    1    6    6    0    0  0.38741479614E+01 -0.61036269241E+01  0.27983703094E+00  0.72355108887E+01  0.10500000000E+00 0. -1.
         13    1    6    6    0    0  0.74821202552E+01 -0.11514862345E+02  0.59950661884E+00  0.13745712478E+02  0.10500000000E+00 0.  1.
</event>
<event>
11    0  0.3396091E-009  0.9118800E+02  0.7816531E-02  0.1126479E+00
         25   -1    0    0    0    0  0.00000000000E+00  0.00000000000E+00  0.99999998245E-14  0.12500000000E+03  0.12500000000E+03 0.  0.
    3000001    1    3    3    0    0 -0.23616548409E+02 -0.38271460409E+02  0.20553540752E+02  0.49455981216E+02  0.10000000000E+01 0. -1.
    1000022    2    1    0    0    0 -0.33690349284E+02 -0.45105154023E+02  0.25233616176E+02  0.62499999767E+02  0.10000001561E+02 0.  0.
    3000022    2    3    3    0    0 -0.10073800875E+02 -0.68336936148E+01  0.46800754242E+01  0.13044018552E+02  0.24996300637E+00 0.  0.
    1000022    2    1    0    0    0  0.33690349284E+02  0.45105154023E+02 -0.25233616176E+02  0.62500000233E+02  0.10000004470E+02 0.  0.
    3000022    2    5    5    0    0  0.17228301718E+02  0.22773071797E+02 -0.18191759809E+02  0.33858969390E+02  0.25000808356E+00 0.  0.
        -13    1    4    4    0    0 -0.75442742108E+01 -0.50949609378E+01  0.34779967262E+01  0.97458804914E+01  0.10500000000E+00 0.  1.
         13    1    4    4    0    0 -0.25295266646E+01 -0.17387326769E+01  0.12020786980E+01  0.32981380603E+01  0.10500000000E+00 0. -1.
    3000001    1    5    5    0    0  0.16462047566E+02  0.22332082226E+02 -0.70418563673E+01  0.28641030843E+02  0.10000000000E+01 0. -1.
        -13    1    6    6    0    0  0.11432464757E+02  0.15179204395E+02 -0.12147533589E+02  0.22554003941E+02  0.10500000000E+00 0.  1.
         13    1    6    6    0    0  0.57958369609E+01  0.75938674021E+01 -0.60442262204E+01  0.11304965449E+02  0.10500000000E+00 0. -1.
</event>
<event>
11    0  0.3396091E-009  0.9118800E+02  0.7816531E-02  0.1126479E+00
         25   -1    0    0    0    0  0.00000000000E+00  0.00000000000E+00  0.99999998245E-14  0.12500000000E+03  0.12500000000E+03 0.  0.
    3000001    1    3    3    0    0  0.15488053996E+02  0.88167340058E+01  0.55886379406E+01  0.18704210466E+02  0.10000000000E+01 0. -1.
    1000022    2    1    0    0    0  0.44328608054E+02  0.41026352161E+02  0.12572315363E+02  0.62500001416E+02  0.99999999898E+01 0.  0.
    3000022    2    3    3    0    0  0.28840554058E+02  0.32209618155E+02  0.69836774226E+01  0.43795790950E+02  0.24998914282E+00 0.  0.
    1000022    2    1    0    0    0 -0.44328608054E+02 -0.41026352161E+02 -0.12572315363E+02  0.62499998584E+02  0.99999822894E+01 0.  0.
    3000022    2    5    5    0    0 -0.15134330961E+02 -0.20527544151E+02 -0.42530484625E+01  0.25856893549E+02  0.24996059288E+00 0.  0.
        -13    1    4    4    0    0  0.12712629683E+02  0.14162857741E+02  0.31368934766E+01  0.19288561858E+02  0.10500000000E+00 0.  1.
         13    1    4    4    0    0  0.16127924374E+02  0.18046760414E+02  0.38467839459E+01  0.24507229093E+02  0.10500000000E+00 0. -1.
    3000001    1    5    5    0    0 -0.29194277093E+02 -0.20498808010E+02 -0.83192669007E+01  0.36643105035E+02  0.10000000000E+01 0.  1.
        -13    1    6    6    0    0 -0.42049150948E+01 -0.56467642216E+01 -0.11926812428E+01  0.71414823864E+01  0.10500000000E+00 0.  1.
         13    1    6    6    0    0 -0.10929415866E+02 -0.14880779929E+02 -0.30603672197E+01  0.18715411163E+02  0.10500000000E+00 0. -1.
</event>
<event>
11    0  0.3396091E-009  0.9118800E+02  0.7816531E-02  0.1126479E+00
         25   -1    0    0    0    0  0.00000000000E+00  0.00000000000E+00  0.99999998245E-14  0.12500000000E+03  0.12500000000E+03 0.  0.
    3000001    1    3    3    0    0  0.28095803087E+02 -0.12078402043E+02 -0.10877699174E+02  0.32474394318E+02  0.10000000000E+01 0. -1.
    1000022    2    1    0    0    0  0.57067812163E+02 -0.19768388232E+02 -0.12598607519E+02  0.62500003818E+02  0.10000060370E+02 0.  0.
    3000022    2    3    3    0    0  0.28972009076E+02 -0.76899861884E+01 -0.17209083453E+01  0.30025609499E+02  0.25000556845E+00 0.  0.
    1000022    2    1    0    0    0 -0.57067812163E+02  0.19768388232E+02  0.12598607519E+02  0.62499996182E+02  0.10000012648E+02 0.  0.
    3000022    2    5    5    0    0 -0.10065899697E+02  0.46435152127E-01  0.38125789327E+01  0.10766742785E+02  0.24999827834E+00 0.  0.
        -13    1    4    4    0    0  0.19622836080E+02 -0.52282296069E+01 -0.11181572361E+01  0.20338421307E+02  0.10500000000E+00 0. -1.
         13    1    4    4    0    0  0.93491729958E+01 -0.24617565815E+01 -0.60275110923E+00  0.96871881922E+01  0.10500000000E+00 0.  1.
    3000001    1    5    5    0    0 -0.47001912466E+02  0.19721953080E+02  0.87860285866E+01  0.51733253398E+02  0.10000000000E+01 0. -1.
        -13    1    6    6    0    0 -0.73293319642E+01  0.32482376615E-01  0.28147808339E+01  0.78520174662E+01  0.10500000000E+00 0.  1.
         13    1    6    6    0    0 -0.27365677328E+01  0.13952775512E-01  0.99779809881E+00  0.29147253185E+01  0.10500000000E+00 0. -1.
</event>
<event>
11    0  0.3396091E-009  0.9118800E+02  0.7816531E-02  0.1126479E+00
         25   -1    0    0    0    0  0.00000000000E+00  0.00000000000E+00  0.99999998245E-14  0.12500000000E+03  0.12500000000E+03 0.  0.
    3000001    1    3    3    0    0  0.34483355782E+01  0.25952346852E+02  0.85404220871E+01  0.27556381018E+02  0.10000000000E+01 0. -1.
    1000022    2    1    0    0    0 -0.76409757628E-01  0.60570958141E+02  0.11721912938E+02  0.62499999368E+02  0.99999934748E+01 0.  0.
    3000022    2    3    3    0    0 -0.35247453359E+01  0.34618611288E+02  0.31814908514E+01  0.34943618349E+02  0.25000418098E+00 0.  0.
    1000022    2    1    0    0    0  0.76409757628E-01 -0.60570958141E+02 -0.11721912938E+02  0.62500000632E+02  0.10000001380E+02 0.  0.
    3000022    2    5    5    0    0 -0.36470196731E+01 -0.39395449522E+02 -0.46126083340E+01  0.39832660605E+02  0.24999930116E+00 0.  0.
        -13    1    4    4    0    0 -0.20998999335E+01  0.20104760468E+02  0.18102698258E+01  0.20295296870E+02  0.10500000000E+00 0.  1.
         13    1    4    4    0    0 -0.14248454024E+01  0.14513850820E+02  0.13712210256E+01  0.14648321479E+02  0.10500000000E+00 0. -1.
    3000001    1    5    5    0    0  0.37234294307E+01 -0.21175508618E+02 -0.71093046045E+01  0.22667340028E+02  0.10000000000E+01 0.  1.
        -13    1    6    6    0    0 -0.13594269554E+01 -0.14784636988E+02 -0.17909027670E+01  0.14954995494E+02  0.10500000000E+00 0.  1.
         13    1    6    6    0    0 -0.22875927176E+01 -0.24610812535E+02 -0.28217055670E+01  0.24877665111E+02  0.10500000000E+00 0. -1.
</event>
<event>
11    0  0.3396091E-009  0.9118800E+02  0.7816531E-02  0.1126479E+00
         25   -1    0    0    0    0  0.00000000000E+00  0.00000000000E+00  0.99999998245E-14  0.12500000000E+03  0.12500000000E+03 0.  0.
    3000001    1    3    3    0    0 -0.78354167173E+01 -0.17372203954E+02 -0.51793222071E+02  0.55197147371E+02  0.10000000000E+01 0. -1.
    1000022    2    1    0    0    0 -0.83231839084E+01 -0.22696709649E+02 -0.56761198114E+02  0.62499994117E+02  0.99999816987E+01 0.  0.
    3000022    2    3    3    0    0 -0.48776719106E+00 -0.53245056953E+01 -0.49679760427E+01  0.73028467459E+01  0.25001380127E+00 0.  0.
    1000022    2    1    0    0    0  0.83231839084E+01  0.22696709649E+02  0.56761198114E+02  0.62500005883E+02  0.10000055240E+02 0.  0.
    3000022    2    5    5    0    0  0.10024480069E+02  0.14229586037E+02  0.39797352282E+02  0.43438037037E+02  0.24998704439E+00 0.  0.
        -13    1    4    4    0    0 -0.14697158011E+00 -0.20107672327E+01 -0.18091044017E+01  0.27108429031E+01  0.10500000000E+00 0. -1.
         13    1    4    4    0    0 -0.34079561094E+00 -0.33137384626E+01 -0.31588716411E+01  0.45920038427E+01  0.10500000000E+00 0.  1.
    3000001    1    5    5    0    0 -0.17012961604E+01  0.84671236125E+01  0.16963845832E+02  0.19061968846E+02  0.10000000000E+01 0.  1.
        -13    1    6    6    0    0  0.37244939582E+01  0.53734953655E+01  0.15033587323E+02  0.16394086754E+02  0.10500000000E+00 0. -1.
         13    1    6    6    0    0  0.62999861106E+01  0.88560906713E+01  0.24763764959E+02  0.27043950283E+02  0.10500000000E+00 0.  1.
</event>
<event>
11    0  0.3396091E-009  0.9118800E+02  0.7816531E-02  0.1126479E+00
         25   -1    0    0    0    0  0.00000000000E+00  0.00000000000E+00  0.99999998245E-14  0.12500000000E+03  0.12500000000E+03 0.  0.
    3000001    1    3    3    0    0 -0.23654261558E+01  0.39333010714E+01  0.16901904802E+01  0.49922782450E+01  0.10000000000E+01 0. -1.
    1000022    2    1    0    0    0 -0.48797693321E+02  0.37725801446E+02 -0.13409449034E+01  0.62500006524E+02  0.10000085699E+02 0.  0.
    3000022    2    3    3    0    0 -0.46432267165E+02  0.33792500375E+02 -0.30311353836E+01  0.57507728279E+02  0.25002870332E+00 0.  0.
    1000022    2    1    0    0    0  0.48797693321E+02 -0.37725801446E+02  0.13409449034E+01  0.62499993476E+02  0.10000004152E+02 0.  0.
    3000022    2    5    5    0    0  0.29739721955E+02 -0.19359684403E+02  0.47191950920E+01  0.35799186331E+02  0.24999505079E+00 0.  0.
        -13    1    4    4    0    0 -0.23715236124E+02  0.17179330204E+02 -0.15257053566E+01  0.29323720987E+02  0.10500000000E+00 0.  1.
         13    1    4    4    0    0 -0.22717031042E+02  0.16613170171E+02 -0.15054300270E+01  0.28184007292E+02  0.10500000000E+00 0. -1.
    3000001    1    5    5    0    0  0.19057971367E+02 -0.18366117044E+02 -0.33782501886E+01  0.26700807145E+02  0.10000000000E+01 0.  1.
        -13    1    6    6    0    0  0.22931819761E+02 -0.14930707968E+02  0.36387747952E+01  0.27605182575E+02  0.10500000000E+00 0.  1.
         13    1    6    6    0    0  0.68079021937E+01 -0.44289764344E+01  0.10804202968E+01  0.81940037560E+01  0.10500000000E+00 0. -1.
</event>
<event>
11    0  0.3396091E-009  0.9118800E+02  0.7816531E-02  0.1126479E+00
         25   -1    0    0    0    0  0.00000000000E+00  0.00000000000E+00  0.99999998245E-14  0.12500000000E+03  0.12500000000E+03 0.  0.
    3000001    1    3    3    0    0 -0.21180247703E+02 -0.18249208861E+02  0.20170438778E+02  0.34488883967E+02  0.10000000000E+01 0. -1.
    1000022    2    1    0    0    0 -0.44221891202E+02 -0.30541680650E+02  0.30296536796E+02  0.62499998889E+02  0.99999900470E+01 0.  0.
    3000022    2    3    3    0    0 -0.23041643499E+02 -0.12292471789E+02  0.10126098018E+02  0.28011114922E+02  0.25000058554E+00 0.  0.
    1000022    2    1    0    0    0  0.44221891202E+02  0.30541680650E+02 -0.30296536796E+02  0.62500001111E+02  0.10000003929E+02 0.  0.
    3000022    2    5    5    0    0  0.29819177644E+02  0.21806925657E+02 -0.25725865761E+02  0.45017863475E+02  0.25000133818E+00 0.  0.
        -13    1    4    4    0    0 -0.11925044112E+02 -0.64328163112E+01  0.52812014969E+01  0.14542692908E+02  0.10500000000E+00 0. -1.
         13    1    4    4    0    0 -0.11116599387E+02 -0.58596554776E+01  0.48448965213E+01  0.13468422014E+02  0.10500000000E+00 0.  1.
    3000001    1    5    5    0    0  0.14402713558E+02  0.87347549926E+01 -0.45706710351E+01  0.17482137636E+02  0.10000000000E+01 0. -1.
        -13    1    6    6    0    0  0.18636810185E+02  0.13702833941E+02 -0.16098252220E+02  0.28182673781E+02  0.10500000000E+00 0. -1.
         13    1    6    6    0    0  0.11182367459E+02  0.81040917166E+01 -0.96276135411E+01  0.16835189694E+02  0.10500000000E+00 0.  1.
</event>
<event>
11    0  0.3396091E-009  0.9118800E+02  0.7816531E-02  0.1126479E+00
         25   -1    0    0    0    0  0.00000000000E+00  0.00000000000E+00  0.99999998245E-14  0.12500000000E+03  0.12500000000E+03 0.  0.
    3000001    1    3    3    0    0  0.13037470862E+01 -0.79439960222E+00 -0.18005021067E+00  0.18339152846E+01  0.10000000000E+01 0.  1.
    1000022    2    1    0    0    0  0.29311488707E+02 -0.40772490007E+02  0.35842582534E+02  0.62500000312E+02  0.10000000235E+02 0.  0.
    3000022    2    3    3    0    0  0.28007741621E+02 -0.39978090405E+02  0.36022632745E+02  0.60666085028E+02  0.24999915962E+00 0.  0.
    1000022    2    1    0    0    0 -0.29311488707E+02  0.40772490007E+02 -0.35842582534E+02  0.62499999688E+02  0.99999963335E+01 0.  0.
    3000022    2    5    5    0    0 -0.10244008893E+02  0.75195591038E+01 -0.69311151817E+01  0.14477097396E+02  0.25000803576E+00 0.  0.
        -13    1    4    4    0    0  0.74914941294E+01 -0.10648242982E+02  0.95796775522E+01  0.16164430392E+02  0.10500000000E+00 0.  1.
         13    1    4    4    0    0  0.20516247491E+02 -0.29329847423E+02  0.26442955192E+02  0.44501654636E+02  0.10500000000E+00 0. -1.
    3000001    1    5    5    0    0 -0.19067479814E+02  0.33252930904E+02 -0.28911467352E+02  0.48022902292E+02  0.10000000000E+01 0.  1.
        -13    1    6    6    0    0 -0.37827048699E+01  0.27464969534E+01 -0.26115300928E+01  0.53556713933E+01  0.10500000000E+00 0. -1.
         13    1    6    6    0    0 -0.64613040233E+01  0.47730621504E+01 -0.43195850889E+01  0.91214260022E+01  0.10500000000E+00 0.  1.
</event>
<event>
11    0  0.3396091E-009  0.9118800E+02  0.7816531E-02  0.1126479E+00
         25   -1    0    0    0    0  0.00000000000E+00  0.00000000000E+00  0.99999998245E-14  0.12500000000E+03  0.12500000000E+03 0.  0.
    3000001    1    3    3    0    0 -0.16225596083E+02 -0.38095892341E+01 -0.26328699572E+02  0.31176647664E+02  0.10000000000E+01 0. -1.
    1000022    2    1    0    0    0 -0.36480203438E+02  0.93545168570E+00 -0.49745044260E+02  0.62499997331E+02  0.99999962590E+01 0.  0.
    3000022    2    3    3    0    0 -0.20254607355E+02  0.47450409198E+01 -0.23416344687E+02  0.31323349667E+02  0.25000678182E+00 0.  0.
    1000022    2    1    0    0    0  0.36480203438E+02 -0.93545168570E+00  0.49745044260E+02  0.62500002669E+02  0.10000029627E+02 0.  0.
    3000022    2    5    5    0    0  0.34731751162E+02 -0.29315874965E+01  0.47299425806E+02  0.58755314010E+02  0.24999756903E+00 0.  0.
        -13    1    4    4    0    0 -0.13408841116E+02  0.31304149743E+01 -0.15418228973E+02  0.20671945425E+02  0.10500000000E+00 0. -1.
         13    1    4    4    0    0 -0.68457662394E+01  0.16146259455E+01 -0.79981157146E+01  0.10651404242E+02  0.10500000000E+00 0.  1.
    3000001    1    5    5    0    0  0.17484522761E+01  0.19961358108E+01  0.24456184535E+01  0.37446886595E+01  0.10000000000E+01 0.  1.
        -13    1    6    6    0    0  0.24069769406E+02 -0.19924655289E+01  0.32728324363E+02  0.40675274538E+02  0.10500000000E+00 0.  1.
         13    1    6    6    0    0  0.10661981756E+02 -0.93912196760E+00  0.14571101444E+02  0.18080039472E+02  0.10500000000E+00 0. -1.
</event>
<event>
11    0  0.3396091E-009  0.9118800E+02  0.7816531E-02  0.1126479E+00
         25   -1    0    0    0    0  0.00000000000E+00  0.00000000000E+00  0.99999998245E-14  0.12500000000E+03  0.12500000000E+03 0.  0.
    3000001    1    3    3    0    0  0.38883590111E+02 -0.18113087884E+02  0.20203196650E+02  0.47425591061E+02  0.10000000000E+01 0. -1.
    1000022    2    1    0    0    0  0.49357895039E+02 -0.20599859149E+02  0.30752134724E+02  0.62499996099E+02  0.99999861334E+01 0.  0.
    3000022    2    3    3    0    0  0.10474304928E+02 -0.24867712643E+01  0.10548938074E+02  0.15074405038E+02  0.24999542314E+00 0.  0.
    1000022    2    1    0    0    0 -0.49357895039E+02  0.20599859149E+02 -0.30752134724E+02  0.62500003901E+02  0.10000034900E+02 0.  0.
    3000022    2    5    5    0    0 -0.43920855186E+01  0.10490463127E+01 -0.61466753505E+01  0.76311881740E+01  0.25000342671E+00 0.  0.
        -13    1    4    4    0    0  0.28717496360E+01 -0.72067229018E+00  0.29059731841E+01  0.41499421283E+01  0.10500000000E+00 0. -1.
         13    1    4    4    0    0  0.76025552923E+01 -0.17660989742E+01  0.76429648896E+01  0.10924462910E+02  0.10500000000E+00 0.  1.
    3000001    1    5    5    0    0 -0.44965809520E+02  0.19550812836E+02 -0.24605459373E+02  0.54868815727E+02  0.10000000000E+01 0.  1.
        -13    1    6    6    0    0 -0.19953582293E+01  0.54268482440E+00 -0.28460232813E+01  0.35194935430E+01  0.10500000000E+00 0.  1.
         13    1    6    6    0    0 -0.23967272893E+01  0.50636148831E+00 -0.33006520692E+01  0.41116946310E+01  0.10500000000E+00 0. -1.
</event>
